 Entering Gaussian System, Link 0=g16
 AtFile(1): pcseg2.gbs
            -H     0
            S   4   1.00
                  0.754732D+02           0.427821D-02
                  0.113575D+02           0.328672D-01
                  0.260081D+01           0.159578D+00
                  0.735503D+00           0.500000D+00
            S   1   1.00
                  0.231761D+00           1.0000000
            S   1   1.00
                  0.741675D-01           1.0000000
            P   1   1.00
                  0.160000D+01           1.0000000
            P   1   1.00
                  0.450000D+00           1.0000000
            D   1   1.00
                  0.125000D+01           1.0000000
            ****
            -C     0
            S   7   1.00
                  0.731999D+04           0.695369D-03
                  0.109818D+04           0.537138D-02
                  0.250014D+03           0.274734D-01
                  0.707586D+02           0.105078D+00
                  0.228595D+02           0.291262D+00
                  0.803936D+01           0.500000D+00
                  0.289309D+01           0.362224D+00
            S   2   1.00
                  0.521640D+01          -0.957844D-01
                  0.556124D+00           0.500000D+00
            S   1   1.00
                  0.228813D+00           1.0000000
            S   1   1.00
                  0.936338D-01           1.0000000
            P   4   1.00
                  0.339855D+02           0.818395D-02
                  0.772957D+01           0.586921D-01
                  0.224954D+01           0.222514D+00
                  0.767681D+00           0.500000D+00
            P   1   1.00
                  0.263283D+00           1.0000000
            P   1   1.00
                  0.848744D-01           1.0000000
            D   1   1.00
                  0.140000D+01           1.0000000
            D   1   1.00
                  0.450000D+00           1.0000000
            F   1   1.00
                  0.950000D+00           1.0000000
            ****
            -O     0
            S   7   1.00
                  0.135887D+05           0.665492D-03
                  0.203847D+04           0.514222D-02
                  0.464041D+03           0.263472D-01
                  0.131339D+03           0.101500D+00
                  0.425340D+02           0.285877D+00
                  0.150429D+02           0.500000D+00
                  0.546616D+01           0.368211D+00
            S   2   1.00
                  0.100915D+02          -0.100084D+00
                  0.110429D+01           0.500000D+00
            S   1   1.00
                  0.448082D+00           1.0000000
            S   1   1.00
                  0.175325D+00           1.0000000
            P   4   1.00
                  0.608220D+02           0.908253D-02
                  0.140332D+02           0.645878D-01
                  0.418244D+01           0.241502D+00
                  0.142490D+01           0.500000D+00
            P   1   1.00
                  0.478741D+00           1.0000000
            P   1   1.00
                  0.146257D+00           1.0000000
            D   1   1.00
                  0.220000D+01           1.0000000
            D   1   1.00
                  0.650000D+00           1.0000000
            F   1   1.00
                  0.110000D+01           1.0000000
            ****
            -N     0
            S   7   1.00
                  0.101643D+05           0.682757D-03
                  0.152481D+04           0.527488D-02
                  0.347119D+03           0.270037D-01
                  0.982389D+02           0.103673D+00
                  0.317799D+02           0.289575D+00
                  0.112240D+02           0.500000D+00
                  0.406611D+01           0.364621D+00
            S   2   1.00
                  0.747898D+01          -0.975681D-01
                  0.805040D+00           0.500000D+00
            S   1   1.00
                  0.324626D+00           1.0000000
            S   1   1.00
                  0.128132D+00           1.0000000
            P   4   1.00
                  0.482704D+02           0.829547D-02
                  0.110815D+02           0.596223D-01
                  0.326643D+01           0.227889D+00
                  0.111680D+01           0.500000D+00
            P   1   1.00
                  0.382049D+00           1.0000000
            P   1   1.00
                  0.121222D+00           1.0000000
            D   1   1.00
                  0.180000D+01           1.0000000
            D   1   1.00
                  0.550000D+00           1.0000000
            F   1   1.00
                  0.102000D+01           1.0000000
            ****
            -F     0
            S   7   1.00
                  0.174507D+05           0.655972D-03
                  0.261768D+04           0.506944D-02
                  0.595857D+03           0.259899D-01
                  0.168651D+03           0.100353D+00
                  0.546654D+02           0.284095D+00
                  0.193717D+02           0.500000D+00
                  0.706202D+01           0.370721D+00
            S   2   1.00
                  0.131197D+02          -0.101997D+00
                  0.145046D+01           0.500000D+00
            S   1   1.00
                  0.588255D+00           1.0000000
            S   1   1.00
                  0.227960D+00           1.0000000
            P   4   1.00
                  0.779407D+02           0.931135D-02
                  0.180425D+02           0.663964D-01
                  0.542342D+01           0.246386D+00
                  0.184876D+01           0.500000D+00
            P   1   1.00
                  0.617455D+00           1.0000000
            P   1   1.00
                  0.185496D+00           1.0000000
            D   1   1.00
                  0.280000D+01           1.0000000
            D   1   1.00
                  0.800000D+00           1.0000000
            F   1   1.00
                  0.120000D+01           1.0000000
            ****
            -Cl     0
            S   8   1.00
                  0.154272D+06           0.222473D-03
                  0.231232D+05           0.172590D-02
                  0.526257D+04           0.899286D-02
                  0.148995D+04           0.367724D-01
                  0.485417D+03           0.121446D+00
                  0.174634D+03           0.304148D+00
                  0.672393D+02           0.500000D+00
                  0.265780D+02           0.360252D+00
            S   3   1.00
                  0.131826D+03          -0.531330D-01
                  0.400703D+02          -0.233346D+00
                  0.789448D+01           0.500000D+00
            S   2   1.00
                  0.427711D+01           0.500000D+00
                  0.196233D+01           0.370517D+00
            S   1   1.00
                  0.520793D+00           1.0000000
            S   1   1.00
                  0.181633D+00           1.0000000
            P   7   1.00
                  0.124440D+04           0.988206D-03
                  0.295109D+03           0.829674D-02
                  0.947224D+02           0.430906D-01
                  0.352588D+02           0.148443D+00
                  0.144211D+02           0.344744D+00
                  0.610371D+01           0.500000D+00
                  0.258886D+01           0.348278D+00
            P   2   1.00
                  0.109447D+02          -0.196768D-01
                  0.104413D+01           0.500000D+00
            P   1   1.00
                  0.376184D+00           1.0000000
            P   1   1.00
                  0.120613D+00           1.0000000
            D   1   1.00
                  0.231000D+01           1.0000000
            D   1   1.00
                  0.520000D+00           1.0000000
            F   1   1.00
                  0.720000D+00           1.0000000
            ****
            -S     0
            S   8   1.00
                  0.134700D+06           0.226231D-03
                  0.201904D+05           0.175488D-02
                  0.459528D+04           0.914190D-02
                  0.130109D+04           0.373551D-01
                  0.423902D+03           0.123121D+00
                  0.152485D+03           0.306801D+00
                  0.586925D+02           0.500000D+00
                  0.231461D+02           0.354358D+00
            S   3   1.00
                  0.116327D+03          -0.491772D-01
                  0.352841D+02          -0.215962D+00
                  0.677831D+01           0.500000D+00
            S   2   1.00
                  0.360404D+01           0.500000D+00
                  0.164871D+01           0.366278D+00
            S   1   1.00
                  0.421821D+00           1.0000000
            S   1   1.00
                  0.147554D+00           1.0000000
            P   7   1.00
                  0.104863D+04           0.105273D-02
                  0.248717D+03           0.879338D-02
                  0.797887D+02           0.453358D-01
                  0.296023D+02           0.154476D+00
                  0.120627D+02           0.352366D+00
                  0.507628D+01           0.500000D+00
                  0.213375D+01           0.346429D+00
            P   2   1.00
                  0.928958D+01          -0.185932D-01
                  0.837819D+00           0.500000D+00
            P   1   1.00
                  0.301495D+00           1.0000000
            P   1   1.00
                  0.974740D-01           1.0000000
            D   1   1.00
                  0.210000D+01           1.0000000
            D   1   1.00
                  0.480000D+00           1.0000000
            F   1   1.00
                  0.660000D+00           1.0000000
            ****
            -Br     0
            S    10   1.00
                  0.233625D+07           0.532336D-04
                  0.349961D+06           0.413715D-03
                  0.796444D+05           0.217123D-02
                  0.225555D+05           0.910109D-02
                  0.735546D+04           0.323789D-01
                  0.265352D+04           0.988755D-01
                  0.103517D+04           0.248138D+00
                  0.422205D+03           0.474328D+00
                  0.180035D+03           0.500000D+00
                  0.793308D+02           0.187769D+00
            S    4   1.00
                  0.620834D+03          -0.226511D-01
                  0.190829D+03          -0.109497D+00
                  0.312505D+02           0.500000D+00
                  0.135270D+02           0.492812D+00
            S    2   1.00
                  0.216097D+02          -0.165418D+00
                  0.372566D+01           0.500000D+00
            S    1   1.00
                  0.169770D+01           1.0000000
            S    1   1.00
                  0.489332D+00           1.0000000
            S    1   1.00
                  0.175712D+00           1.0000000
            P    8   1.00
                  0.960829D+04           0.478974D-03
                  0.227618D+04           0.417853D-02
                  0.736723D+03           0.229315D-01
                  0.281579D+03           0.892653D-01
                  0.118395D+03           0.255288D+00
                  0.527481D+02           0.479074D+00
                  0.245098D+02           0.500000D+00
                  0.112009D+02           0.200944D+00
            P    4   1.00
                  0.587849D+02          -0.189674D-01
                  0.918962D+01           0.264104D+00
                  0.413895D+01           0.500000D+00
                  0.184225D+01           0.319316D+00
            P    1   1.00
                  0.713862D+00           1.0000000
            P    1   1.00
                  0.274232D+00           1.0000000
            P    1   1.00
                  0.944411D-01           1.0000000
            D    7   1.00
                  0.398470D+03           0.204066D-02
                  0.118967D+03           0.175171D-01
                  0.450197D+02           0.829708D-01
                  0.190320D+02           0.236284D+00
                  0.855686D+01           0.428468D+00
                  0.382950D+01           0.500000D+00
                  0.166291D+01           0.349360D+00
            D    1   1.00
                  0.672953D+00           1.0000000
            D    1   1.00
                  0.252000D+00           1.0000000
            F    1   1.00
                  0.530000D+00           1.0000000
            ****
            -Si     0
            S    8   1.00
                  0.996133D+05           0.235546D-03
                  0.149311D+05           0.182707D-02
                  0.339820D+04           0.951425D-02
                  0.962140D+03           0.388172D-01
                  0.313430D+03           0.127328D+00
                  0.112683D+03           0.313522D+00
                  0.433372D+02           0.500000D+00
                  0.170029D+02           0.340347D+00
            S    3   1.00
                  0.884208D+02          -0.404451D-01
                  0.266756D+02          -0.178059D+00
                  0.479640D+01           0.500000D+00
            S    2   1.00
                  0.239385D+01           0.500000D+00
                  0.108333D+01           0.338016D+00
            S    1   1.00
                  0.252420D+00           1.0000000
            S    1   1.00
                  0.891210D-01           1.0000000
            P    7   1.00
                  0.709901D+03           0.123028D-02
                  0.168426D+03           0.101366D-01
                  0.539946D+02           0.511840D-01
                  0.198646D+02           0.169967D+00
                  0.801369D+01           0.370717D+00
                  0.331870D+01           0.500000D+00
                  0.136112D+01           0.344128D+00
            P    2   1.00
                  0.622158D+01          -0.166609D-01
                  0.503049D+00           0.500000D+00
            P    1   1.00
                  0.179848D+00           1.0000000
            P    1   1.00
                  0.591912D-01           1.0000000
            D    1   1.00
                  0.168000D+01           1.0000000
            D    1   1.00
                  0.380000D+00           1.0000000
            F    1   1.00
                  0.540000D+00           1.0000000
            ****
            -P     0
            S    8   1.00
                  0.116416D+06           0.230715D-03
                  0.174500D+05           0.178960D-02
                  0.397149D+04           0.932116D-02
                  0.112447D+04           0.380591D-01
                  0.366347D+03           0.125148D+00
                  0.131757D+03           0.310022D+00
                  0.506988D+02           0.500000D+00
                  0.199436D+02           0.347528D+00
            S    3   1.00
                  0.101878D+03          -0.446755D-01
                  0.308249D+02          -0.196376D+00
                  0.573688D+01           0.500000D+00
            S    2   1.00
                  0.296868D+01           0.500000D+00
                  0.135315D+01           0.355098D+00
            S    1   1.00
                  0.332196D+00           1.0000000
            S    1   1.00
                  0.116229D+00           1.0000000
            P    7   1.00
                  0.873928D+03           0.112375D-02
                  0.207298D+03           0.933330D-02
                  0.664628D+02           0.477213D-01
                  0.245665D+02           0.160733D+00
                  0.996820D+01           0.359760D+00
                  0.416536D+01           0.500000D+00
                  0.173022D+01           0.346593D+00
            P    2   1.00
                  0.772530D+01          -0.175718D-01
                  0.657252D+00           0.500000D+00
            P    1   1.00
                  0.239903D+00           1.0000000
            P    1   1.00
                  0.800988D-01           1.0000000
            D    1   1.00
                  0.189000D+01           1.0000000
            D    1   1.00
                  0.430000D+00           1.0000000
            F    1   1.00
                  0.600000D+00           1.0000000
            ****
            
 Initial command:
 /usr/local/apps/g16_b01_avx/g16/l1.exe "/wrk/irikura/Gau-18925.inp" -scrdir="/wrk/irikura/"
 Entering Link 1 = /usr/local/apps/g16_b01_avx/g16/l1.exe PID=     18927.
  
 Copyright (c) 1988-2017, Gaussian, Inc.  All Rights Reserved.
  
 This is part of the Gaussian(R) 16 program.  It is based on
 the Gaussian(R) 09 system (copyright 2009, Gaussian, Inc.),
 the Gaussian(R) 03 system (copyright 2003, Gaussian, Inc.),
 the Gaussian(R) 98 system (copyright 1998, Gaussian, Inc.),
 the Gaussian(R) 94 system (copyright 1995, Gaussian, Inc.),
 the Gaussian 92(TM) system (copyright 1992, Gaussian, Inc.),
 the Gaussian 90(TM) system (copyright 1990, Gaussian, Inc.),
 the Gaussian 88(TM) system (copyright 1988, Gaussian, Inc.),
 the Gaussian 86(TM) system (copyright 1986, Carnegie Mellon
 University), and the Gaussian 82(TM) system (copyright 1983,
 Carnegie Mellon University). Gaussian is a federally registered
 trademark of Gaussian, Inc.
  
 This software contains proprietary and confidential information,
 including trade secrets, belonging to Gaussian, Inc.
  
 This software is provided under written license and may be
 used, copied, transmitted, or stored only in accord with that
 written license.
  
 The following legend is applicable only to US Government
 contracts under FAR:
  
                    RESTRICTED RIGHTS LEGEND
  
 Use, reproduction and disclosure by the US Government is
 subject to restrictions as set forth in subparagraphs (a)
 and (c) of the Commercial Computer Software - Restricted
 Rights clause in FAR 52.227-19.
  
 Gaussian, Inc.
 340 Quinnipiac St., Bldg. 40, Wallingford CT 06492
  
  
 ---------------------------------------------------------------
 Warning -- This program may not be used in any manner that
 competes with the business of Gaussian, Inc. or will provide
 assistance to any competitor of Gaussian, Inc.  The licensee
 of this program is prohibited from giving any competitor of
 Gaussian, Inc. access to this program.  By using this program,
 the user acknowledges that Gaussian, Inc. is engaged in the
 business of creating and licensing software in the field of
 computational chemistry and represents and warrants to the
 licensee that it is not a competitor of Gaussian, Inc. and that
 it will not use this program in any manner prohibited above.
 ---------------------------------------------------------------
  

 Cite this work as:
 Gaussian 16, Revision B.01,
 M. J. Frisch, G. W. Trucks, H. B. Schlegel, G. E. Scuseria, 
 M. A. Robb, J. R. Cheeseman, G. Scalmani, V. Barone, 
 G. A. Petersson, H. Nakatsuji, X. Li, M. Caricato, A. V. Marenich, 
 J. Bloino, B. G. Janesko, R. Gomperts, B. Mennucci, H. P. Hratchian, 
 J. V. Ortiz, A. F. Izmaylov, J. L. Sonnenberg, D. Williams-Young, 
 F. Ding, F. Lipparini, F. Egidi, J. Goings, B. Peng, A. Petrone, 
 T. Henderson, D. Ranasinghe, V. G. Zakrzewski, J. Gao, N. Rega, 
 G. Zheng, W. Liang, M. Hada, M. Ehara, K. Toyota, R. Fukuda, 
 J. Hasegawa, M. Ishida, T. Nakajima, Y. Honda, O. Kitao, H. Nakai, 
 T. Vreven, K. Throssell, J. A. Montgomery, Jr., J. E. Peralta, 
 F. Ogliaro, M. J. Bearpark, J. J. Heyd, E. N. Brothers, K. N. Kudin, 
 V. N. Staroverov, T. A. Keith, R. Kobayashi, J. Normand, 
 K. Raghavachari, A. P. Rendell, J. C. Burant, S. S. Iyengar, 
 J. Tomasi, M. Cossi, J. M. Millam, M. Klene, C. Adamo, R. Cammi, 
 J. W. Ochterski, R. L. Martin, K. Morokuma, O. Farkas, 
 J. B. Foresman, and D. J. Fox, Gaussian, Inc., Wallingford CT, 2016.
 
 ******************************************
 Gaussian 16:  ES64L-G16RevB.01 20-Dec-2017
                16-Jun-2022 
 ******************************************
 %mem=1000mw
 %nprocs=12
 Will use up to   12 processors via shared memory.
 --------------------
 # b3lyp/gen opt freq
 --------------------
 1/18=20,19=15,26=3,38=1/1,3;
 2/9=110,12=2,17=6,18=5,40=1/2;
 3/5=7,11=2,25=1,30=1,71=1,74=-5/1,2,3;
 4//1;
 5/5=2,38=5/2;
 6/7=2,8=2,9=2,10=2,28=1/1;
 7//1,2,3,16;
 1/18=20,19=15,26=3/3(2);
 2/9=110/2;
 99//99;
 2/9=110/2;
 3/5=7,6=1,11=2,25=1,30=1,71=1,74=-5,82=7/1,2,3;
 4/5=5,16=3,69=1/1;
 5/5=2,38=5/2;
 7//1,2,3,16;
 1/18=20,19=15,26=3/3(-5);
 2/9=110/2;
 6/7=2,8=2,9=2,10=2,19=2,28=1/1;
 99/9=1/99;
 ------------------------------
 acetyl chloride, B3LYP/pcseg-2
 ------------------------------
 Symbolic Z-matrix:
 Charge =  0 Multiplicity = 1
 C                     0.        0.54661   0. 
 C                     1.49074   0.72307   0. 
 O                    -0.84      1.37575   0. 
 Cl                   -0.45788  -1.22845   0. 
 H                     1.72708   1.78817   0. 
 H                     1.91624   0.23566   0.88096 
 H                     1.91624   0.23566  -0.88096 
 

 GradGradGradGradGradGradGradGradGradGradGradGradGradGradGradGradGradGrad
 Berny optimization.
 Initialization pass.
                           ----------------------------
                           !    Initial Parameters    !
                           ! (Angstroms and Degrees)  !
 --------------------------                            --------------------------
 ! Name  Definition              Value          Derivative Info.                !
 --------------------------------------------------------------------------------
 ! R1    R(1,2)                  1.5011         estimate D2E/DX2                !
 ! R2    R(1,3)                  1.1803         estimate D2E/DX2                !
 ! R3    R(1,4)                  1.8332         estimate D2E/DX2                !
 ! R4    R(2,5)                  1.091          estimate D2E/DX2                !
 ! R5    R(2,6)                  1.093          estimate D2E/DX2                !
 ! R6    R(2,7)                  1.093          estimate D2E/DX2                !
 ! A1    A(2,1,3)              128.6222         estimate D2E/DX2                !
 ! A2    A(2,1,4)              111.2149         estimate D2E/DX2                !
 ! A3    A(3,1,4)              120.163          estimate D2E/DX2                !
 ! A4    A(1,2,5)              109.2619         estimate D2E/DX2                !
 ! A5    A(1,2,6)              109.5225         estimate D2E/DX2                !
 ! A6    A(1,2,7)              109.5225         estimate D2E/DX2                !
 ! A7    A(5,2,6)              110.5486         estimate D2E/DX2                !
 ! A8    A(5,2,7)              110.5486         estimate D2E/DX2                !
 ! A9    A(6,2,7)              107.4098         estimate D2E/DX2                !
 ! D1    D(3,1,2,5)              0.0            estimate D2E/DX2                !
 ! D2    D(3,1,2,6)            121.2247         estimate D2E/DX2                !
 ! D3    D(3,1,2,7)           -121.2247         estimate D2E/DX2                !
 ! D4    D(4,1,2,5)            180.0            estimate D2E/DX2                !
 ! D5    D(4,1,2,6)            -58.7753         estimate D2E/DX2                !
 ! D6    D(4,1,2,7)             58.7753         estimate D2E/DX2                !
 --------------------------------------------------------------------------------
 Trust Radius=3.00D-01 FncErr=1.00D-07 GrdErr=1.00D-06 EigMax=2.50D+02 EigMin=1.00D-04
 Number of steps in this run=     31 maximum allowed number of steps=    100.
 GradGradGradGradGradGradGradGradGradGradGradGradGradGradGradGradGradGrad

                          Input orientation:                          
 ---------------------------------------------------------------------
 Center     Atomic      Atomic             Coordinates (Angstroms)
 Number     Number       Type             X           Y           Z
 ---------------------------------------------------------------------
      1          6           0        0.000000    0.546614    0.000000
      2          6           0        1.490735    0.723069    0.000000
      3          8           0       -0.839998    1.375753    0.000000
      4         17           0       -0.457882   -1.228448    0.000000
      5          1           0        1.727083    1.788173    0.000000
      6          1           0        1.916242    0.235662    0.880955
      7          1           0        1.916242    0.235662   -0.880955
 ---------------------------------------------------------------------
                    Distance matrix (angstroms):
                    1          2          3          4          5
     1  C    0.000000
     2  C    1.501142   0.000000
     3  O    1.180283   2.420395   0.000000
     4  Cl   1.833167   2.757812   2.632086   0.000000
     5  H    2.127037   1.091012   2.599999   3.724792   0.000000
     6  H    2.131843   1.093025   3.110104   2.925092   1.795036
     7  H    2.131843   1.093025   3.110104   2.925092   1.795036
                    6          7
     6  H    0.000000
     7  H    1.761910   0.000000
 Stoichiometry    C2H3ClO
 Framework group  CS[SG(C2HClO),X(H2)]
 Deg. of freedom    10
 Full point group                 CS      NOp   2
 Largest Abelian subgroup         CS      NOp   2
 Largest concise Abelian subgroup CS      NOp   2
                         Standard orientation:                         
 ---------------------------------------------------------------------
 Center     Atomic      Atomic             Coordinates (Angstroms)
 Number     Number       Type             X           Y           Z
 ---------------------------------------------------------------------
      1          6           0       -0.000000    0.546614    0.000000
      2          6           0        1.490735    0.723069    0.000000
      3          8           0       -0.839998    1.375753    0.000000
      4         17           0       -0.457882   -1.228448    0.000000
      5          1           0        1.727083    1.788173    0.000000
      6          1           0        1.916242    0.235662    0.880955
      7          1           0        1.916242    0.235662   -0.880955
 ---------------------------------------------------------------------
 Rotational constants (GHZ):          10.0911702           4.8421063           3.3397056
 General basis read from cards:  (5D, 7F)
 There are   125 symmetry adapted cartesian basis functions of A'  symmetry.
 There are    64 symmetry adapted cartesian basis functions of A"  symmetry.
 There are   107 symmetry adapted basis functions of A'  symmetry.
 There are    59 symmetry adapted basis functions of A"  symmetry.
   166 basis functions,   277 primitive gaussians,   189 cartesian basis functions
    20 alpha electrons       20 beta electrons
       nuclear repulsion energy       148.0624347315 Hartrees.
 NAtoms=    7 NActive=    7 NUniq=    6 SFac= 1.36D+00 NAtFMM=   60 NAOKFM=F Big=F
 Integral buffers will be    131072 words long.
 Raffenetti 2 integral format.
 Two-electron integral symmetry is turned on.
 One-electron integrals computed using PRISM.
 NBasis=   166 RedAO= T EigKep=  7.24D-04  NBF=   107    59
 NBsUse=   166 1.00D-06 EigRej= -1.00D+00 NBFU=   107    59
 ExpMin= 7.42D-02 ExpMax= 1.54D+05 ExpMxC= 1.49D+03 IAcc=3 IRadAn=         5 AccDes= 0.00D+00
 Harris functional with IExCor=  402 and IRadAn=       5 diagonalized for initial guess.
 HarFok:  IExCor=  402 AccDes= 0.00D+00 IRadAn=         5 IDoV= 1 UseB2=F ITyADJ=14
 ICtDFT=  3500011 ScaDFX=  1.000000  1.000000  1.000000  1.000000
 FoFCou: FMM=F IPFlag=           0 FMFlag=      100000 FMFlg1=           0
         NFxFlg=           0 DoJE=T BraDBF=F KetDBF=T FulRan=T
         wScrn=  0.000000 ICntrl=       500 IOpCl=  0 I1Cent=   200000004 NGrid=           0
         NMat0=    1 NMatS0=      1 NMatT0=    0 NMatD0=    1 NMtDS0=    0 NMtDT0=    0
 Petite list used in FoFCou.
 Initial guess orbital symmetries:
       Occupied  (A') (A') (A') (A') (A') (A') (A') (A") (A') (A')
                 (A') (A') (A') (A') (A") (A') (A") (A') (A") (A')
       Virtual   (A") (A') (A') (A') (A") (A') (A') (A') (A") (A')
                 (A") (A') (A') (A") (A') (A') (A') (A') (A') (A")
                 (A') (A") (A') (A') (A") (A") (A') (A") (A') (A')
                 (A') (A') (A") (A') (A") (A') (A") (A') (A") (A')
                 (A") (A') (A') (A') (A") (A') (A') (A") (A') (A")
                 (A') (A') (A") (A') (A') (A") (A') (A') (A') (A")
                 (A') (A') (A") (A') (A") (A') (A') (A") (A') (A')
                 (A") (A") (A') (A') (A") (A') (A') (A') (A') (A")
                 (A') (A") (A") (A') (A") (A') (A') (A") (A') (A")
                 (A') (A") (A') (A") (A") (A') (A") (A') (A') (A')
                 (A") (A') (A") (A') (A") (A') (A") (A') (A") (A')
                 (A') (A') (A") (A") (A') (A") (A') (A") (A') (A')
                 (A') (A') (A") (A') (A') (A') (A") (A") (A') (A')
                 (A") (A') (A") (A') (A") (A') (A') (A") (A") (A')
                 (A') (A') (A") (A') (A') (A')
 The electronic state of the initial guess is 1-A'.
 Keep R1 ints in memory in symmetry-blocked form, NReq=144521857.
 Requested convergence on RMS density matrix=1.00D-08 within 128 cycles.
 Requested convergence on MAX density matrix=1.00D-06.
 Requested convergence on             energy=1.00D-06.
 No special actions if energy rises.
 Integral accuracy reduced to 1.0D-05 until final iterations.
 Initial convergence to 1.0D-05 achieved.  Increase integral accuracy.
 SCF Done:  E(RB3LYP) =  -613.554396030     A.U. after   14 cycles
            NFock= 14  Conv=0.39D-08     -V/T= 2.0016

 **********************************************************************

            Population analysis using the SCF Density.

 **********************************************************************

 Orbital symmetries:
       Occupied  (A') (A') (A') (A') (A') (A') (A") (A') (A') (A')
                 (A') (A') (A') (A") (A') (A') (A") (A") (A') (A')
       Virtual   (A") (A') (A') (A') (A") (A') (A') (A') (A") (A')
                 (A") (A') (A') (A') (A") (A') (A') (A') (A") (A')
                 (A') (A") (A') (A') (A") (A") (A') (A") (A') (A')
                 (A') (A') (A") (A') (A") (A') (A") (A') (A") (A')
                 (A") (A') (A') (A') (A") (A') (A') (A") (A') (A")
                 (A') (A') (A") (A') (A') (A") (A') (A') (A') (A")
                 (A') (A') (A") (A') (A') (A") (A") (A') (A') (A')
                 (A") (A') (A") (A') (A") (A') (A') (A') (A") (A')
                 (A') (A") (A") (A') (A") (A') (A') (A") (A') (A")
                 (A') (A") (A') (A") (A") (A") (A') (A') (A') (A')
                 (A") (A') (A") (A') (A") (A") (A') (A') (A") (A')
                 (A') (A') (A") (A") (A") (A') (A') (A") (A') (A')
                 (A') (A') (A") (A') (A') (A') (A") (A") (A') (A')
                 (A") (A') (A") (A") (A') (A') (A') (A") (A") (A')
                 (A') (A') (A") (A') (A') (A')
 The electronic state is 1-A'.
 Alpha  occ. eigenvalues -- -101.51538 -19.16699 -10.33672 -10.21507  -9.46094
 Alpha  occ. eigenvalues --   -7.22153  -7.21472  -7.21352  -1.11010  -0.85365
 Alpha  occ. eigenvalues --   -0.77416  -0.57224  -0.50453  -0.48875  -0.48791
 Alpha  occ. eigenvalues --   -0.43150  -0.41418  -0.33237  -0.32846  -0.31000
 Alpha virt. eigenvalues --   -0.05218  -0.00105   0.01190   0.06443   0.06485
 Alpha virt. eigenvalues --    0.08911   0.13817   0.15403   0.15585   0.17604
 Alpha virt. eigenvalues --    0.19527   0.27095   0.29253   0.30337   0.31078
 Alpha virt. eigenvalues --    0.32376   0.33510   0.34482   0.35863   0.36369
 Alpha virt. eigenvalues --    0.43046   0.44091   0.47913   0.50618   0.53901
 Alpha virt. eigenvalues --    0.56156   0.60619   0.67215   0.68154   0.71588
 Alpha virt. eigenvalues --    0.75258   0.77634   0.89881   0.92739   0.93642
 Alpha virt. eigenvalues --    0.95928   0.97959   1.00656   1.03442   1.03883
 Alpha virt. eigenvalues --    1.13068   1.15633   1.17740   1.19027   1.22456
 Alpha virt. eigenvalues --    1.27694   1.35032   1.38635   1.42711   1.54705
 Alpha virt. eigenvalues --    1.58138   1.59603   1.62074   1.70435   1.73485
 Alpha virt. eigenvalues --    1.80654   1.80801   1.86420   1.91273   1.94678
 Alpha virt. eigenvalues --    2.06621   2.10883   2.11597   2.13634   2.14929
 Alpha virt. eigenvalues --    2.15811   2.18364   2.20740   2.24774   2.25246
 Alpha virt. eigenvalues --    2.27146   2.41508   2.43287   2.48257   2.60739
 Alpha virt. eigenvalues --    2.65563   2.78540   2.98342   3.08081   3.08980
 Alpha virt. eigenvalues --    3.20244   3.23639   3.24545   3.28628   3.35493
 Alpha virt. eigenvalues --    3.37920   3.45961   3.47635   3.52599   3.55525
 Alpha virt. eigenvalues --    3.59352   3.70035   3.72316   3.79790   3.80346
 Alpha virt. eigenvalues --    3.83051   3.83250   3.92769   3.95870   4.00377
 Alpha virt. eigenvalues --    4.00609   4.03800   4.06443   4.19648   4.20518
 Alpha virt. eigenvalues --    4.23054   4.23059   4.30429   4.31256   4.34111
 Alpha virt. eigenvalues --    4.45077   4.47980   4.51428   4.55967   4.56797
 Alpha virt. eigenvalues --    4.56832   4.64322   4.69397   4.71487   4.72256
 Alpha virt. eigenvalues --    4.84596   4.93800   4.96063   5.09294   5.13781
 Alpha virt. eigenvalues --    5.21621   5.24343   5.44408   5.45472   5.68646
 Alpha virt. eigenvalues --    5.71963   5.75685   5.79154   5.84999   5.85469
 Alpha virt. eigenvalues --    5.95365   6.00873   6.04971   6.09309   6.11095
 Alpha virt. eigenvalues --    6.17155   6.29229   6.41598   6.62429   7.32411
 Alpha virt. eigenvalues --   32.72936
          Condensed to atoms (all electrons):
               1          2          3          4          5          6
     1  C    4.612692   0.290845   0.584712   0.290682  -0.045178  -0.017182
     2  C    0.290845   4.670501  -0.053997  -0.085447   0.417064   0.405268
     3  O    0.584712  -0.053997   7.847649  -0.093784   0.005522   0.000202
     4  Cl   0.290682  -0.085447  -0.093784  17.039140   0.008100  -0.000554
     5  H   -0.045178   0.417064   0.005522   0.008100   0.583608  -0.017814
     6  H   -0.017182   0.405268   0.000202  -0.000554  -0.017814   0.584900
     7  H   -0.017182   0.405268   0.000202  -0.000554  -0.017814  -0.020053
               7
     1  C   -0.017182
     2  C    0.405268
     3  O    0.000202
     4  Cl  -0.000554
     5  H   -0.017814
     6  H   -0.020053
     7  H    0.584900
 Mulliken charges:
               1
     1  C    0.300612
     2  C   -0.049501
     3  O   -0.290506
     4  Cl  -0.157581
     5  H    0.066512
     6  H    0.065232
     7  H    0.065232
 Sum of Mulliken charges =  -0.00000
 Mulliken charges with hydrogens summed into heavy atoms:
               1
     1  C    0.300612
     2  C    0.147476
     3  O   -0.290506
     4  Cl  -0.157581
 Electronic spatial extent (au):  <R**2>=            366.6946
 Charge=             -0.0000 electrons
 Dipole moment (field-independent basis, Debye):
    X=              2.9267    Y=              0.2862    Z=             -0.0000  Tot=              2.9406
 Quadrupole moment (field-independent basis, Debye-Ang):
   XX=            -29.7175   YY=            -32.9921   ZZ=            -29.6511
   XY=              2.6753   XZ=             -0.0000   YZ=             -0.0000
 Traceless Quadrupole moment (field-independent basis, Debye-Ang):
   XX=              1.0694   YY=             -2.2052   ZZ=              1.1358
   XY=              2.6753   XZ=             -0.0000   YZ=             -0.0000
 Octapole moment (field-independent basis, Debye-Ang**2):
  XXX=              1.9247  YYY=             -3.0215  ZZZ=             -0.0000  XYY=              2.3098
  XXY=              0.0849  XXZ=             -0.0000  XZZ=              0.0558  YZZ=              0.7534
  YYZ=             -0.0000  XYZ=             -0.0000
 Hexadecapole moment (field-independent basis, Debye-Ang**3):
 XXXX=           -182.6705 YYYY=           -245.9544 ZZZZ=            -37.6051 XXXY=            -25.1959
 XXXZ=             -0.0000 YYYX=            -16.9183 YYYZ=              0.0000 ZZZX=             -0.0000
 ZZZY=             -0.0000 XXYY=            -72.1205 XXZZ=            -34.6657 YYZZ=            -48.7960
 XXYZ=             -0.0000 YYXZ=              0.0000 ZZXY=            -10.2291
 N-N= 1.480624347315D+02 E-N=-1.749804122899D+03  KE= 6.125901598960D+02
 Symmetry A'   KE= 5.607671472590D+02
 Symmetry A"   KE= 5.182301263701D+01
 Calling FoFJK, ICntrl=      2127 FMM=F ISym2X=1 I1Cent= 0 IOpClX= 0 NMat=1 NMatS=1 NMatT=0.
 ***** Axes restored to original set *****
 -------------------------------------------------------------------
 Center     Atomic                   Forces (Hartrees/Bohr)
 Number     Number              X              Y              Z
 -------------------------------------------------------------------
      1        6          -0.000524014   -0.000309751   -0.000000000
      2        6           0.000110362    0.001118905   -0.000000000
      3        8           0.003092101   -0.002402066    0.000000000
      4       17          -0.000120772    0.001746317    0.000000000
      5        1          -0.000331313   -0.002555136   -0.000000000
      6        1          -0.001113182    0.001200865   -0.001989772
      7        1          -0.001113182    0.001200865    0.001989772
 -------------------------------------------------------------------
 Cartesian Forces:  Max     0.003092101 RMS     0.001379255

 GradGradGradGradGradGradGradGradGradGradGradGradGradGradGradGradGradGrad
 Berny optimization.
 FormGI is forming the generalized inverse of G from B-inverse, IUseBI=4.
 Internal  Forces:  Max     0.003888176 RMS     0.001508703
 Search for a local minimum.
 Step number   1 out of a maximum of   31
 All quantities printed in internal units (Hartrees-Bohrs-Radians)
 Mixed Optimization -- RFO/linear search
 Second derivative matrix not updated -- first step.
 ITU=  0
     Eigenvalues ---    0.00751   0.00751   0.07472   0.07595   0.16000
     Eigenvalues ---    0.16000   0.16000   0.23669   0.25000   0.25000
     Eigenvalues ---    0.32258   0.34465   0.34465   0.34696   1.15389
 RFO step:  Lambda=-1.18275730D-04 EMin= 7.50841482D-03
 Linear search not attempted -- first point.
 Iteration  1 RMS(Cart)=  0.00491667 RMS(Int)=  0.00000734
 Iteration  2 RMS(Cart)=  0.00001153 RMS(Int)=  0.00000037
 Iteration  3 RMS(Cart)=  0.00000000 RMS(Int)=  0.00000037
 ClnCor:  largest displacement from symmetrization is 1.13D-11 for atom     5.
 Variable       Old X    -DE/DX   Delta X   Delta X   Delta X     New X
                                 (Linear)    (Quad)   (Total)
    R1        2.83675  -0.00232   0.00000  -0.00718  -0.00718   2.82957
    R2        2.23041  -0.00389   0.00000  -0.00337  -0.00337   2.22704
    R3        3.46418  -0.00166   0.00000  -0.00701  -0.00701   3.45717
    R4        2.06171  -0.00257   0.00000  -0.00739  -0.00739   2.05432
    R5        2.06552  -0.00257   0.00000  -0.00746  -0.00746   2.05806
    R6        2.06552  -0.00257   0.00000  -0.00746  -0.00746   2.05806
    A1        2.24488  -0.00133   0.00000  -0.00530  -0.00530   2.23958
    A2        1.94107   0.00162   0.00000   0.00648   0.00648   1.94754
    A3        2.09724  -0.00029   0.00000  -0.00118  -0.00118   2.09606
    A4        1.90698   0.00038   0.00000   0.00243   0.00243   1.90941
    A5        1.91153  -0.00019   0.00000  -0.00122  -0.00122   1.91031
    A6        1.91153  -0.00019   0.00000  -0.00122  -0.00122   1.91031
    A7        1.92944  -0.00009   0.00000  -0.00052  -0.00052   1.92892
    A8        1.92944  -0.00009   0.00000  -0.00052  -0.00052   1.92892
    A9        1.87465   0.00017   0.00000   0.00098   0.00098   1.87563
    D1        0.00000  -0.00000   0.00000  -0.00000   0.00000   0.00000
    D2        2.11577   0.00001   0.00000   0.00012   0.00012   2.11589
    D3       -2.11577  -0.00001   0.00000  -0.00012  -0.00012  -2.11589
    D4        3.14159  -0.00000   0.00000  -0.00000   0.00000   3.14159
    D5       -1.02582   0.00001   0.00000   0.00012   0.00012  -1.02570
    D6        1.02582  -0.00001   0.00000  -0.00012  -0.00012   1.02570
         Item               Value     Threshold  Converged?
 Maximum Force            0.003888     0.000450     NO 
 RMS     Force            0.001509     0.000300     NO 
 Maximum Displacement     0.012585     0.001800     NO 
 RMS     Displacement     0.004916     0.001200     NO 
 Predicted change in Energy=-5.915912D-05
 GradGradGradGradGradGradGradGradGradGradGradGradGradGradGradGradGradGrad

                          Input orientation:                          
 ---------------------------------------------------------------------
 Center     Atomic      Atomic             Coordinates (Angstroms)
 Number     Number       Type             X           Y           Z
 ---------------------------------------------------------------------
      1          6           0        0.003334    0.543429    0.000000
      2          6           0        1.489794    0.723627    0.000000
      3          8           0       -0.833338    1.373394    0.000000
      4         17           0       -0.460101   -1.226356    0.000000
      5          1           0        1.724881    1.785003    0.000000
      6          1           0        1.913926    0.238694    0.878088
      7          1           0        1.913926    0.238694   -0.878088
 ---------------------------------------------------------------------
                    Distance matrix (angstroms):
                    1          2          3          4          5
     1  C    0.000000
     2  C    1.497342   0.000000
     3  O    1.178500   2.412289   0.000000
     4  Cl   1.829456   2.757630   2.626406   0.000000
     5  H    2.122553   1.087099   2.591121   3.720541   0.000000
     6  H    2.124680   1.089076   3.099362   2.924622   1.788253
     7  H    2.124680   1.089076   3.099362   2.924622   1.788253
                    6          7
     6  H    0.000000
     7  H    1.756176   0.000000
 Stoichiometry    C2H3ClO
 Framework group  CS[SG(C2HClO),X(H2)]
 Deg. of freedom    10
 Full point group                 CS      NOp   2
 Largest Abelian subgroup         CS      NOp   2
 Largest concise Abelian subgroup CS      NOp   2
                         Standard orientation:                         
 ---------------------------------------------------------------------
 Center     Atomic      Atomic             Coordinates (Angstroms)
 Number     Number       Type             X           Y           Z
 ---------------------------------------------------------------------
      1          6           0        0.000000    0.543340    0.000000
      2          6           0        1.485527    0.731077    0.000000
      3          8           0       -0.840872    1.369050    0.000000
      4         17           0       -0.454449   -1.228773    0.000000
      5          1           0        1.715227    1.793632    0.000000
      6          1           0        1.912114    0.248303    0.878088
      7          1           0        1.912114    0.248303   -0.878088
 ---------------------------------------------------------------------
 Rotational constants (GHZ):          10.1654700           4.8484176           3.3503679
 Basis read from rwf:  (5D, 7F)
 There are   125 symmetry adapted cartesian basis functions of A'  symmetry.
 There are    64 symmetry adapted cartesian basis functions of A"  symmetry.
 There are   107 symmetry adapted basis functions of A'  symmetry.
 There are    59 symmetry adapted basis functions of A"  symmetry.
   166 basis functions,   277 primitive gaussians,   189 cartesian basis functions
    20 alpha electrons       20 beta electrons
       nuclear repulsion energy       148.3493226999 Hartrees.
 NAtoms=    7 NActive=    7 NUniq=    6 SFac= 1.36D+00 NAtFMM=   60 NAOKFM=F Big=F
 Integral buffers will be    131072 words long.
 Raffenetti 2 integral format.
 Two-electron integral symmetry is turned on.
 One-electron integrals computed using PRISM.
 NBasis=   166 RedAO= T EigKep=  7.15D-04  NBF=   107    59
 NBsUse=   166 1.00D-06 EigRej= -1.00D+00 NBFU=   107    59
 Initial guess from the checkpoint file:  "/wrk/irikura/Gau-18927.chk"
 B after Tr=     0.000000   -0.000000   -0.000000
         Rot=    0.999998   -0.000000   -0.000000   -0.001860 Ang=  -0.21 deg.
 Initial guess orbital symmetries:
       Occupied  (A') (A') (A') (A') (A') (A') (A") (A') (A') (A')
                 (A') (A') (A') (A") (A') (A') (A") (A") (A') (A')
       Virtual   (A") (A') (A') (A') (A") (A') (A') (A') (A") (A')
                 (A") (A') (A') (A') (A") (A') (A') (A') (A") (A')
                 (A') (A") (A') (A') (A") (A") (A') (A") (A') (A')
                 (A') (A') (A") (A') (A") (A') (A") (A') (A") (A')
                 (A") (A') (A') (A') (A") (A') (A') (A") (A') (A")
                 (A') (A') (A") (A') (A') (A") (A') (A') (A') (A")
                 (A') (A') (A") (A') (A') (A") (A") (A') (A') (A')
                 (A") (A') (A") (A') (A") (A') (A') (A') (A") (A')
                 (A') (A") (A") (A') (A") (A') (A') (A") (A') (A")
                 (A') (A") (A') (A") (A") (A") (A') (A') (A') (A')
                 (A") (A') (A") (A') (A") (A") (A') (A') (A") (A')
                 (A') (A') (A") (A") (A") (A') (A') (A") (A') (A')
                 (A') (A') (A") (A') (A') (A') (A") (A") (A') (A')
                 (A") (A') (A") (A") (A') (A') (A') (A") (A") (A')
                 (A') (A') (A") (A') (A') (A')
 Keep R1 ints in memory in symmetry-blocked form, NReq=144521857.
 Requested convergence on RMS density matrix=1.00D-08 within 128 cycles.
 Requested convergence on MAX density matrix=1.00D-06.
 Requested convergence on             energy=1.00D-06.
 No special actions if energy rises.
 SCF Done:  E(RB3LYP) =  -613.554458095     A.U. after    9 cycles
            NFock=  9  Conv=0.27D-08     -V/T= 2.0015
 Calling FoFJK, ICntrl=      2127 FMM=F ISym2X=1 I1Cent= 0 IOpClX= 0 NMat=1 NMatS=1 NMatT=0.
 ***** Axes restored to original set *****
 -------------------------------------------------------------------
 Center     Atomic                   Forces (Hartrees/Bohr)
 Number     Number              X              Y              Z
 -------------------------------------------------------------------
      1        6           0.000138949   -0.001225178   -0.000000000
      2        6          -0.000232464    0.000223528   -0.000000000
      3        8          -0.000233066    0.000410626   -0.000000000
      4       17           0.000074574    0.000687439    0.000000000
      5        1          -0.000034037   -0.000074245    0.000000000
      6        1           0.000143022   -0.000011085    0.000018659
      7        1           0.000143022   -0.000011085   -0.000018659
 -------------------------------------------------------------------
 Cartesian Forces:  Max     0.001225178 RMS     0.000336223

 GradGradGradGradGradGradGradGradGradGradGradGradGradGradGradGradGradGrad
 Berny optimization.
 Using GEDIIS/GDIIS optimizer.
 FormGI is forming the generalized inverse of G from B-inverse, IUseBI=4.
 Internal  Forces:  Max     0.000683723 RMS     0.000215976
 Search for a local minimum.
 Step number   2 out of a maximum of   31
 All quantities printed in internal units (Hartrees-Bohrs-Radians)
 Mixed Optimization -- En-DIIS/RFO-DIIS
 Update second derivatives using D2CorX and points    1    2
 DE= -6.21D-05 DEPred=-5.92D-05 R= 1.05D+00
 TightC=F SS=  1.41D+00  RLast= 1.90D-02 DXNew= 5.0454D-01 5.6919D-02
 Trust test= 1.05D+00 RLast= 1.90D-02 DXMaxT set to 3.00D-01
 ITU=  1  0
 Use linear search instead of GDIIS.
     Eigenvalues ---    0.00751   0.00751   0.07462   0.07606   0.15937
     Eigenvalues ---    0.16000   0.16175   0.20667   0.24633   0.25005
     Eigenvalues ---    0.32528   0.34465   0.34563   0.36444   1.19504
 RFO step:  Lambda=-3.62916500D-06 EMin= 7.50841482D-03
 Quartic linear search produced a step of  0.04883.
 Iteration  1 RMS(Cart)=  0.00130966 RMS(Int)=  0.00000111
 Iteration  2 RMS(Cart)=  0.00000123 RMS(Int)=  0.00000027
 Iteration  3 RMS(Cart)=  0.00000000 RMS(Int)=  0.00000027
 ClnCor:  largest displacement from symmetrization is 1.14D-11 for atom     5.
 Variable       Old X    -DE/DX   Delta X   Delta X   Delta X     New X
                                 (Linear)    (Quad)   (Total)
    R1        2.82957   0.00003  -0.00035   0.00025  -0.00010   2.82946
    R2        2.22704   0.00045  -0.00016   0.00047   0.00031   2.22735
    R3        3.45717  -0.00068  -0.00034  -0.00290  -0.00324   3.45393
    R4        2.05432  -0.00008  -0.00036  -0.00010  -0.00046   2.05386
    R5        2.05806   0.00008  -0.00036   0.00037   0.00000   2.05806
    R6        2.05806   0.00008  -0.00036   0.00037   0.00000   2.05806
    A1        2.23958  -0.00031  -0.00026  -0.00118  -0.00144   2.23814
    A2        1.94754   0.00033   0.00032   0.00126   0.00157   1.94912
    A3        2.09606  -0.00002  -0.00006  -0.00007  -0.00013   2.09593
    A4        1.90941  -0.00009   0.00012  -0.00072  -0.00060   1.90881
    A5        1.91031   0.00016  -0.00006   0.00114   0.00108   1.91139
    A6        1.91031   0.00016  -0.00006   0.00114   0.00108   1.91139
    A7        1.92892  -0.00005  -0.00003  -0.00042  -0.00044   1.92848
    A8        1.92892  -0.00005  -0.00003  -0.00042  -0.00044   1.92848
    A9        1.87563  -0.00013   0.00005  -0.00068  -0.00064   1.87500
    D1        0.00000   0.00000   0.00000   0.00000   0.00000   0.00000
    D2        2.11589  -0.00002   0.00001  -0.00025  -0.00024   2.11565
    D3       -2.11589   0.00002  -0.00001   0.00025   0.00024  -2.11565
    D4        3.14159   0.00000   0.00000   0.00000   0.00000   3.14159
    D5       -1.02570  -0.00002   0.00001  -0.00025  -0.00024  -1.02595
    D6        1.02570   0.00002  -0.00001   0.00025   0.00024   1.02595
         Item               Value     Threshold  Converged?
 Maximum Force            0.000684     0.000450     NO 
 RMS     Force            0.000216     0.000300     YES
 Maximum Displacement     0.002663     0.001800     NO 
 RMS     Displacement     0.001309     0.001200     NO 
 Predicted change in Energy=-1.954178D-06
 GradGradGradGradGradGradGradGradGradGradGradGradGradGradGradGradGradGrad

                          Input orientation:                          
 ---------------------------------------------------------------------
 Center     Atomic      Atomic             Coordinates (Angstroms)
 Number     Number       Type             X           Y           Z
 ---------------------------------------------------------------------
      1          6           0        0.003334    0.542321    0.000000
      2          6           0        1.489642    0.723311    0.000000
      3          8           0       -0.832704    1.373157    0.000000
      4         17           0       -0.461495   -1.225325    0.000000
      5          1           0        1.723472    1.784713    0.000000
      6          1           0        1.915086    0.239154    0.877884
      7          1           0        1.915086    0.239154   -0.877884
 ---------------------------------------------------------------------
                    Distance matrix (angstroms):
                    1          2          3          4          5
     1  C    0.000000
     2  C    1.497287   0.000000
     3  O    1.178664   2.411553   0.000000
     4  Cl   1.827741   2.757557   2.624863   0.000000
     5  H    2.121889   1.086853   2.589095   3.719464   0.000000
     6  H    2.125414   1.089078   3.099515   2.926348   1.787778
     7  H    2.125414   1.089078   3.099515   2.926348   1.787778
                    6          7
     6  H    0.000000
     7  H    1.755769   0.000000
 Stoichiometry    C2H3ClO
 Framework group  CS[SG(C2HClO),X(H2)]
 Deg. of freedom    10
 Full point group                 CS      NOp   2
 Largest Abelian subgroup         CS      NOp   2
 Largest concise Abelian subgroup CS      NOp   2
                         Standard orientation:                         
 ---------------------------------------------------------------------
 Center     Atomic      Atomic             Coordinates (Angstroms)
 Number     Number       Type             X           Y           Z
 ---------------------------------------------------------------------
      1          6           0        0.000000    0.542042    0.000000
      2          6           0        1.485205    0.731866    0.000000
      3          8           0       -0.840963    1.367893    0.000000
      4         17           0       -0.454311   -1.228337    0.000000
      5          1           0        1.712721    1.794639    0.000000
      6          1           0        1.913520    0.250247    0.877884
      7          1           0        1.913520    0.250247   -0.877884
 ---------------------------------------------------------------------
 Rotational constants (GHZ):          10.1721015           4.8515033           3.3525296
 Basis read from rwf:  (5D, 7F)
 There are   125 symmetry adapted cartesian basis functions of A'  symmetry.
 There are    64 symmetry adapted cartesian basis functions of A"  symmetry.
 There are   107 symmetry adapted basis functions of A'  symmetry.
 There are    59 symmetry adapted basis functions of A"  symmetry.
   166 basis functions,   277 primitive gaussians,   189 cartesian basis functions
    20 alpha electrons       20 beta electrons
       nuclear repulsion energy       148.3928411111 Hartrees.
 NAtoms=    7 NActive=    7 NUniq=    6 SFac= 1.36D+00 NAtFMM=   60 NAOKFM=F Big=F
 Integral buffers will be    131072 words long.
 Raffenetti 2 integral format.
 Two-electron integral symmetry is turned on.
 One-electron integrals computed using PRISM.
 NBasis=   166 RedAO= T EigKep=  7.15D-04  NBF=   107    59
 NBsUse=   166 1.00D-06 EigRej= -1.00D+00 NBFU=   107    59
 Initial guess from the checkpoint file:  "/wrk/irikura/Gau-18927.chk"
 B after Tr=     0.000000    0.000000    0.000000
         Rot=    1.000000   -0.000000    0.000000   -0.000182 Ang=  -0.02 deg.
 Initial guess orbital symmetries:
       Occupied  (A') (A') (A') (A') (A') (A') (A") (A') (A') (A')
                 (A') (A') (A') (A") (A') (A') (A") (A") (A') (A')
       Virtual   (A") (A') (A') (A') (A") (A') (A') (A') (A") (A')
                 (A") (A') (A') (A') (A") (A') (A') (A') (A") (A')
                 (A') (A") (A') (A') (A") (A") (A') (A") (A') (A')
                 (A') (A') (A") (A') (A") (A') (A") (A') (A") (A')
                 (A") (A') (A') (A') (A") (A') (A') (A") (A') (A")
                 (A') (A') (A") (A') (A') (A") (A') (A') (A') (A")
                 (A') (A') (A") (A') (A') (A") (A") (A') (A') (A')
                 (A") (A') (A") (A') (A") (A') (A') (A') (A") (A')
                 (A') (A") (A") (A') (A") (A') (A') (A") (A') (A")
                 (A') (A") (A') (A") (A") (A") (A') (A') (A') (A')
                 (A") (A') (A") (A') (A") (A") (A') (A') (A") (A')
                 (A') (A') (A") (A") (A") (A') (A') (A") (A') (A')
                 (A') (A') (A") (A') (A') (A') (A") (A") (A') (A')
                 (A") (A') (A") (A") (A') (A') (A') (A") (A") (A')
                 (A') (A') (A") (A') (A') (A')
 Keep R1 ints in memory in symmetry-blocked form, NReq=144521857.
 Requested convergence on RMS density matrix=1.00D-08 within 128 cycles.
 Requested convergence on MAX density matrix=1.00D-06.
 Requested convergence on             energy=1.00D-06.
 No special actions if energy rises.
 SCF Done:  E(RB3LYP) =  -613.554460987     A.U. after    8 cycles
            NFock=  8  Conv=0.28D-08     -V/T= 2.0015
 Calling FoFJK, ICntrl=      2127 FMM=F ISym2X=1 I1Cent= 0 IOpClX= 0 NMat=1 NMatS=1 NMatT=0.
 ***** Axes restored to original set *****
 -------------------------------------------------------------------
 Center     Atomic                   Forces (Hartrees/Bohr)
 Number     Number              X              Y              Z
 -------------------------------------------------------------------
      1        6           0.000141163   -0.000892344   -0.000000000
      2        6          -0.000078567    0.000093131   -0.000000000
      3        8          -0.000273474    0.000445225    0.000000000
      4       17           0.000071377    0.000346083   -0.000000000
      5        1           0.000011535    0.000082152   -0.000000000
      6        1           0.000063983   -0.000037123    0.000059788
      7        1           0.000063983   -0.000037123   -0.000059788
 -------------------------------------------------------------------
 Cartesian Forces:  Max     0.000892344 RMS     0.000244356

 GradGradGradGradGradGradGradGradGradGradGradGradGradGradGradGradGradGrad
 Berny optimization.
 Using GEDIIS/GDIIS optimizer.
 FormGI is forming the generalized inverse of G from B-inverse, IUseBI=4.
 Internal  Forces:  Max     0.000507688 RMS     0.000151183
 Search for a local minimum.
 Step number   3 out of a maximum of   31
 All quantities printed in internal units (Hartrees-Bohrs-Radians)
 Mixed Optimization -- En-DIIS/RFO-DIIS
 Swapping is turned off.
 Update second derivatives using D2CorX and points    1    2    3
 DE= -2.89D-06 DEPred=-1.95D-06 R= 1.48D+00
 TightC=F SS=  1.41D+00  RLast= 4.37D-03 DXNew= 5.0454D-01 1.3116D-02
 Trust test= 1.48D+00 RLast= 4.37D-03 DXMaxT set to 3.00D-01
 ITU=  1  1  0
     Eigenvalues ---    0.00751   0.00751   0.07461   0.07572   0.10081
     Eigenvalues ---    0.16000   0.16012   0.17044   0.24624   0.25677
     Eigenvalues ---    0.32535   0.34465   0.34832   0.37704   1.17853
 En-DIIS/RFO-DIIS/Sim-DIIS IScMMF=       -3 using points:     3    2
 RFO step:  Lambda=-2.51555115D-06.
 DidBck=F Rises=F RFO-DIIS coefs:    2.03978   -1.03978
 Iteration  1 RMS(Cart)=  0.00116419 RMS(Int)=  0.00000097
 Iteration  2 RMS(Cart)=  0.00000108 RMS(Int)=  0.00000037
 Iteration  3 RMS(Cart)=  0.00000000 RMS(Int)=  0.00000037
 ClnCor:  largest displacement from symmetrization is 2.65D-11 for atom     5.
 Variable       Old X    -DE/DX   Delta X   Delta X   Delta X     New X
                                 (Linear)    (Quad)   (Total)
    R1        2.82946   0.00007  -0.00011   0.00027   0.00017   2.82963
    R2        2.22735   0.00051   0.00032   0.00046   0.00078   2.22814
    R3        3.45393  -0.00035  -0.00337  -0.00035  -0.00372   3.45021
    R4        2.05386   0.00008  -0.00048   0.00059   0.00011   2.05397
    R5        2.05806   0.00009   0.00000   0.00024   0.00024   2.05830
    R6        2.05806   0.00009   0.00000   0.00024   0.00024   2.05830
    A1        2.23814  -0.00020  -0.00150  -0.00052  -0.00202   2.23612
    A2        1.94912   0.00013   0.00164  -0.00008   0.00155   1.95067
    A3        2.09593   0.00007  -0.00014   0.00060   0.00046   2.09639
    A4        1.90881  -0.00002  -0.00062   0.00026  -0.00036   1.90845
    A5        1.91139   0.00004   0.00112  -0.00044   0.00069   1.91207
    A6        1.91139   0.00004   0.00112  -0.00044   0.00069   1.91207
    A7        1.92848  -0.00001  -0.00046   0.00020  -0.00026   1.92821
    A8        1.92848  -0.00001  -0.00046   0.00020  -0.00026   1.92821
    A9        1.87500  -0.00003  -0.00066   0.00021  -0.00046   1.87454
    D1        0.00000  -0.00000   0.00000  -0.00000   0.00000   0.00000
    D2        2.11565  -0.00000  -0.00025   0.00013  -0.00012   2.11552
    D3       -2.11565   0.00000   0.00025  -0.00013   0.00012  -2.11552
    D4        3.14159   0.00000  -0.00000  -0.00000   0.00000   3.14159
    D5       -1.02595  -0.00000  -0.00025   0.00013  -0.00012  -1.02607
    D6        1.02595   0.00000   0.00025  -0.00013   0.00012   1.02607
         Item               Value     Threshold  Converged?
 Maximum Force            0.000508     0.000450     NO 
 RMS     Force            0.000151     0.000300     YES
 Maximum Displacement     0.002540     0.001800     NO 
 RMS     Displacement     0.001164     0.001200     YES
 Predicted change in Energy=-1.257784D-06
 GradGradGradGradGradGradGradGradGradGradGradGradGradGradGradGradGradGrad

                          Input orientation:                          
 ---------------------------------------------------------------------
 Center     Atomic      Atomic             Coordinates (Angstroms)
 Number     Number       Type             X           Y           Z
 ---------------------------------------------------------------------
      1          6           0        0.003244    0.540977    0.000000
      2          6           0        1.489509    0.723038    0.000000
      3          8           0       -0.832006    1.373194    0.000000
      4         17           0       -0.462566   -1.224373    0.000000
      5          1           0        1.722207    1.784749    0.000000
      6          1           0        1.916017    0.239450    0.877842
      7          1           0        1.916017    0.239450   -0.877842
 ---------------------------------------------------------------------
                    Distance matrix (angstroms):
                    1          2          3          4          5
     1  C    0.000000
     2  C    1.497375   0.000000
     3  O    1.179079   2.410837   0.000000
     4  Cl   1.825770   2.757355   2.623707   0.000000
     5  H    2.121745   1.086912   2.587157   3.718608   0.000000
     6  H    2.126083   1.089208   3.099615   2.927634   1.787769
     7  H    2.126083   1.089208   3.099615   2.927634   1.787769
                    6          7
     6  H    0.000000
     7  H    1.755683   0.000000
 Stoichiometry    C2H3ClO
 Framework group  CS[SG(C2HClO),X(H2)]
 Deg. of freedom    10
 Full point group                 CS      NOp   2
 Largest Abelian subgroup         CS      NOp   2
 Largest concise Abelian subgroup CS      NOp   2
                         Standard orientation:                         
 ---------------------------------------------------------------------
 Center     Atomic      Atomic             Coordinates (Angstroms)
 Number     Number       Type             X           Y           Z
 ---------------------------------------------------------------------
      1          6           0        0.000000    0.540514    0.000000
      2          6           0        1.485067    0.732104    0.000000
      3          8           0       -0.840570    1.367357    0.000000
      4         17           0       -0.454478   -1.227787    0.000000
      5          1           0        1.710951    1.795285    0.000000
      6          1           0        1.914668    0.251261    0.877842
      7          1           0        1.914668    0.251261   -0.877842
 ---------------------------------------------------------------------
 Rotational constants (GHZ):          10.1782357           4.8543496           3.3545484
 Basis read from rwf:  (5D, 7F)
 There are   125 symmetry adapted cartesian basis functions of A'  symmetry.
 There are    64 symmetry adapted cartesian basis functions of A"  symmetry.
 There are   107 symmetry adapted basis functions of A'  symmetry.
 There are    59 symmetry adapted basis functions of A"  symmetry.
   166 basis functions,   277 primitive gaussians,   189 cartesian basis functions
    20 alpha electrons       20 beta electrons
       nuclear repulsion energy       148.4303592073 Hartrees.
 NAtoms=    7 NActive=    7 NUniq=    6 SFac= 1.36D+00 NAtFMM=   60 NAOKFM=F Big=F
 Integral buffers will be    131072 words long.
 Raffenetti 2 integral format.
 Two-electron integral symmetry is turned on.
 One-electron integrals computed using PRISM.
 NBasis=   166 RedAO= T EigKep=  7.15D-04  NBF=   107    59
 NBsUse=   166 1.00D-06 EigRej= -1.00D+00 NBFU=   107    59
 Initial guess from the checkpoint file:  "/wrk/irikura/Gau-18927.chk"
 B after Tr=     0.000000   -0.000000    0.000000
         Rot=    1.000000   -0.000000   -0.000000   -0.000012 Ang=  -0.00 deg.
 Initial guess orbital symmetries:
       Occupied  (A') (A') (A') (A') (A') (A') (A") (A') (A') (A')
                 (A') (A') (A') (A") (A') (A') (A") (A") (A') (A')
       Virtual   (A") (A') (A') (A") (A') (A') (A') (A') (A") (A')
                 (A") (A') (A') (A') (A") (A') (A') (A') (A") (A')
                 (A') (A") (A') (A') (A") (A") (A') (A") (A') (A')
                 (A') (A') (A") (A') (A") (A') (A") (A') (A") (A')
                 (A") (A') (A') (A') (A") (A') (A') (A") (A') (A")
                 (A') (A') (A") (A') (A') (A") (A') (A') (A') (A")
                 (A') (A') (A") (A') (A') (A") (A") (A') (A') (A')
                 (A") (A') (A") (A') (A") (A') (A') (A') (A") (A')
                 (A') (A") (A") (A') (A") (A') (A') (A") (A') (A")
                 (A') (A") (A') (A") (A") (A") (A') (A') (A') (A')
                 (A") (A') (A") (A') (A") (A") (A') (A') (A") (A')
                 (A') (A') (A") (A") (A") (A') (A') (A") (A') (A')
                 (A') (A') (A") (A') (A') (A') (A") (A") (A') (A')
                 (A") (A') (A") (A") (A') (A') (A') (A") (A") (A')
                 (A') (A') (A") (A') (A') (A')
 Keep R1 ints in memory in symmetry-blocked form, NReq=144521857.
 Requested convergence on RMS density matrix=1.00D-08 within 128 cycles.
 Requested convergence on MAX density matrix=1.00D-06.
 Requested convergence on             energy=1.00D-06.
 No special actions if energy rises.
 SCF Done:  E(RB3LYP) =  -613.554462325     A.U. after    8 cycles
            NFock=  8  Conv=0.45D-08     -V/T= 2.0015
 Calling FoFJK, ICntrl=      2127 FMM=F ISym2X=1 I1Cent= 0 IOpClX= 0 NMat=1 NMatS=1 NMatT=0.
 ***** Axes restored to original set *****
 -------------------------------------------------------------------
 Center     Atomic                   Forces (Hartrees/Bohr)
 Number     Number              X              Y              Z
 -------------------------------------------------------------------
      1        6           0.000014211   -0.000146184   -0.000000000
      2        6           0.000078767    0.000002284   -0.000000000
      3        8          -0.000101059    0.000120455   -0.000000000
      4       17           0.000023111    0.000020435   -0.000000000
      5        1           0.000001243    0.000032177   -0.000000000
      6        1          -0.000008136   -0.000014584    0.000023314
      7        1          -0.000008136   -0.000014584   -0.000023314
 -------------------------------------------------------------------
 Cartesian Forces:  Max     0.000146184 RMS     0.000051703

 GradGradGradGradGradGradGradGradGradGradGradGradGradGradGradGradGradGrad
 Berny optimization.
 Using GEDIIS/GDIIS optimizer.
 FormGI is forming the generalized inverse of G from B-inverse, IUseBI=4.
 Internal  Forces:  Max     0.000156485 RMS     0.000040634
 Search for a local minimum.
 Step number   4 out of a maximum of   31
 All quantities printed in internal units (Hartrees-Bohrs-Radians)
 Mixed Optimization -- En-DIIS/RFO-DIIS
 Swapping is turned off.
 Update second derivatives using D2CorX and points    1    2    3    4
 DE= -1.34D-06 DEPred=-1.26D-06 R= 1.06D+00
 TightC=F SS=  1.41D+00  RLast= 4.78D-03 DXNew= 5.0454D-01 1.4329D-02
 Trust test= 1.06D+00 RLast= 4.78D-03 DXMaxT set to 3.00D-01
 ITU=  1  1  1  0
     Eigenvalues ---    0.00751   0.00751   0.07460   0.07588   0.09917
     Eigenvalues ---    0.16000   0.16015   0.17313   0.24755   0.25681
     Eigenvalues ---    0.32509   0.34465   0.34745   0.35091   1.09572
 En-DIIS/RFO-DIIS/Sim-DIIS IScMMF=       -3 using points:     4    3    2
 RFO step:  Lambda=-5.73759709D-08.
 DIIS inversion failure, remove point   3.
 RFO-DIIS uses    2 points instead of    3
 DidBck=F Rises=F RFO-DIIS coefs:    1.05380   -0.05380    0.00000
 Iteration  1 RMS(Cart)=  0.00009004 RMS(Int)=  0.00000001
 Iteration  2 RMS(Cart)=  0.00000001 RMS(Int)=  0.00000001
 ClnCor:  largest displacement from symmetrization is 6.24D-11 for atom     5.
 Variable       Old X    -DE/DX   Delta X   Delta X   Delta X     New X
                                 (Linear)    (Quad)   (Total)
    R1        2.82963   0.00006   0.00001   0.00020   0.00020   2.82983
    R2        2.22814   0.00016   0.00004   0.00012   0.00017   2.22830
    R3        3.45021  -0.00003  -0.00020  -0.00009  -0.00029   3.44992
    R4        2.05397   0.00003   0.00001   0.00008   0.00008   2.05405
    R5        2.05830   0.00002   0.00001   0.00006   0.00007   2.05837
    R6        2.05830   0.00002   0.00001   0.00006   0.00007   2.05837
    A1        2.23612  -0.00000  -0.00011   0.00002  -0.00009   2.23604
    A2        1.95067  -0.00003   0.00008  -0.00013  -0.00005   1.95062
    A3        2.09639   0.00003   0.00002   0.00011   0.00013   2.09653
    A4        1.90845   0.00000  -0.00002   0.00001  -0.00001   1.90843
    A5        1.91207  -0.00002   0.00004  -0.00014  -0.00010   1.91197
    A6        1.91207  -0.00002   0.00004  -0.00014  -0.00010   1.91197
    A7        1.92821   0.00001  -0.00001   0.00009   0.00007   1.92828
    A8        1.92821   0.00001  -0.00001   0.00009   0.00007   1.92828
    A9        1.87454   0.00002  -0.00002   0.00010   0.00007   1.87461
    D1        0.00000  -0.00000   0.00000   0.00000   0.00000   0.00000
    D2        2.11552   0.00000  -0.00001   0.00002   0.00002   2.11554
    D3       -2.11552  -0.00000   0.00001  -0.00002  -0.00002  -2.11554
    D4        3.14159  -0.00000   0.00000  -0.00000   0.00000   3.14159
    D5       -1.02607   0.00000  -0.00001   0.00002   0.00002  -1.02606
    D6        1.02607  -0.00000   0.00001  -0.00002  -0.00002   1.02606
         Item               Value     Threshold  Converged?
 Maximum Force            0.000156     0.000450     YES
 RMS     Force            0.000041     0.000300     YES
 Maximum Displacement     0.000208     0.001800     YES
 RMS     Displacement     0.000090     0.001200     YES
 Predicted change in Energy=-3.274758D-08
 Optimization completed.
    -- Stationary point found.
                           ----------------------------
                           !   Optimized Parameters   !
                           ! (Angstroms and Degrees)  !
 --------------------------                            --------------------------
 ! Name  Definition              Value          Derivative Info.                !
 --------------------------------------------------------------------------------
 ! R1    R(1,2)                  1.4974         -DE/DX =    0.0001              !
 ! R2    R(1,3)                  1.1791         -DE/DX =    0.0002              !
 ! R3    R(1,4)                  1.8258         -DE/DX =    0.0                 !
 ! R4    R(2,5)                  1.0869         -DE/DX =    0.0                 !
 ! R5    R(2,6)                  1.0892         -DE/DX =    0.0                 !
 ! R6    R(2,7)                  1.0892         -DE/DX =    0.0                 !
 ! A1    A(2,1,3)              128.1205         -DE/DX =    0.0                 !
 ! A2    A(2,1,4)              111.765          -DE/DX =    0.0                 !
 ! A3    A(3,1,4)              120.1145         -DE/DX =    0.0                 !
 ! A4    A(1,2,5)              109.3459         -DE/DX =    0.0                 !
 ! A5    A(1,2,6)              109.5536         -DE/DX =    0.0                 !
 ! A6    A(1,2,7)              109.5536         -DE/DX =    0.0                 !
 ! A7    A(5,2,6)              110.4784         -DE/DX =    0.0                 !
 ! A8    A(5,2,7)              110.4784         -DE/DX =    0.0                 !
 ! A9    A(6,2,7)              107.4032         -DE/DX =    0.0                 !
 ! D1    D(3,1,2,5)              0.0            -DE/DX =    0.0                 !
 ! D2    D(3,1,2,6)            121.2105         -DE/DX =    0.0                 !
 ! D3    D(3,1,2,7)           -121.2105         -DE/DX =    0.0                 !
 ! D4    D(4,1,2,5)            180.0            -DE/DX =    0.0                 !
 ! D5    D(4,1,2,6)            -58.7895         -DE/DX =    0.0                 !
 ! D6    D(4,1,2,7)             58.7895         -DE/DX =    0.0                 !
 --------------------------------------------------------------------------------
 GradGradGradGradGradGradGradGradGradGradGradGradGradGradGradGradGradGrad

                          Input orientation:                          
 ---------------------------------------------------------------------
 Center     Atomic      Atomic             Coordinates (Angstroms)
 Number     Number       Type             X           Y           Z
 ---------------------------------------------------------------------
      1          6           0        0.003244    0.540977    0.000000
      2          6           0        1.489509    0.723038    0.000000
      3          8           0       -0.832006    1.373194    0.000000
      4         17           0       -0.462566   -1.224373    0.000000
      5          1           0        1.722207    1.784749    0.000000
      6          1           0        1.916017    0.239450    0.877842
      7          1           0        1.916017    0.239450   -0.877842
 ---------------------------------------------------------------------
                    Distance matrix (angstroms):
                    1          2          3          4          5
     1  C    0.000000
     2  C    1.497375   0.000000
     3  O    1.179079   2.410837   0.000000
     4  Cl   1.825770   2.757355   2.623707   0.000000
     5  H    2.121745   1.086912   2.587157   3.718608   0.000000
     6  H    2.126083   1.089208   3.099615   2.927634   1.787769
     7  H    2.126083   1.089208   3.099615   2.927634   1.787769
                    6          7
     6  H    0.000000
     7  H    1.755683   0.000000
 Stoichiometry    C2H3ClO
 Framework group  CS[SG(C2HClO),X(H2)]
 Deg. of freedom    10
 Full point group                 CS      NOp   2
 Largest Abelian subgroup         CS      NOp   2
 Largest concise Abelian subgroup CS      NOp   2
                         Standard orientation:                         
 ---------------------------------------------------------------------
 Center     Atomic      Atomic             Coordinates (Angstroms)
 Number     Number       Type             X           Y           Z
 ---------------------------------------------------------------------
      1          6           0        0.000000    0.540514    0.000000
      2          6           0        1.485067    0.732104    0.000000
      3          8           0       -0.840570    1.367357    0.000000
      4         17           0       -0.454478   -1.227787    0.000000
      5          1           0        1.710951    1.795285    0.000000
      6          1           0        1.914668    0.251261    0.877842
      7          1           0        1.914668    0.251261   -0.877842
 ---------------------------------------------------------------------
 Rotational constants (GHZ):          10.1782357           4.8543496           3.3545484

 **********************************************************************

            Population analysis using the SCF Density.

 **********************************************************************

 Orbital symmetries:
       Occupied  (A') (A') (A') (A') (A') (A') (A") (A') (A') (A')
                 (A') (A') (A') (A") (A') (A') (A") (A") (A') (A')
       Virtual   (A") (A') (A') (A") (A') (A') (A') (A') (A") (A')
                 (A") (A') (A') (A') (A") (A') (A') (A') (A") (A')
                 (A') (A") (A') (A') (A") (A") (A') (A") (A') (A')
                 (A') (A') (A") (A') (A") (A') (A") (A') (A") (A')
                 (A") (A') (A') (A') (A") (A') (A') (A") (A') (A")
                 (A') (A') (A") (A') (A') (A") (A') (A') (A') (A")
                 (A') (A') (A") (A') (A') (A") (A") (A') (A') (A')
                 (A") (A') (A") (A') (A") (A') (A') (A') (A") (A')
                 (A') (A") (A") (A') (A") (A') (A') (A") (A') (A")
                 (A') (A") (A') (A") (A") (A") (A') (A') (A') (A')
                 (A") (A') (A") (A') (A") (A") (A') (A') (A") (A')
                 (A') (A') (A") (A") (A") (A') (A') (A") (A') (A')
                 (A') (A') (A") (A') (A') (A') (A") (A") (A') (A')
                 (A") (A') (A") (A") (A') (A') (A') (A") (A") (A')
                 (A') (A') (A") (A') (A') (A')
 The electronic state is 1-A'.
 Alpha  occ. eigenvalues -- -101.51610 -19.16544 -10.33541 -10.21301  -9.46175
 Alpha  occ. eigenvalues --   -7.22234  -7.21552  -7.21432  -1.11008  -0.85517
 Alpha  occ. eigenvalues --   -0.77517  -0.57237  -0.50523  -0.48938  -0.48779
 Alpha  occ. eigenvalues --   -0.43171  -0.41407  -0.33298  -0.32922  -0.30941
 Alpha virt. eigenvalues --   -0.05112   0.00033   0.01273   0.06519   0.06532
 Alpha virt. eigenvalues --    0.08936   0.13890   0.15389   0.15641   0.17600
 Alpha virt. eigenvalues --    0.19542   0.27112   0.29361   0.30358   0.31166
 Alpha virt. eigenvalues --    0.32439   0.33663   0.34604   0.35847   0.36552
 Alpha virt. eigenvalues --    0.43161   0.44145   0.47947   0.50759   0.53846
 Alpha virt. eigenvalues --    0.56123   0.60592   0.67284   0.68139   0.71778
 Alpha virt. eigenvalues --    0.75277   0.77849   0.89814   0.92752   0.93916
 Alpha virt. eigenvalues --    0.95991   0.98185   1.00835   1.03573   1.04082
 Alpha virt. eigenvalues --    1.13164   1.15697   1.17713   1.19032   1.22649
 Alpha virt. eigenvalues --    1.27802   1.35059   1.38883   1.43011   1.54810
 Alpha virt. eigenvalues --    1.58337   1.59788   1.62494   1.70836   1.74196
 Alpha virt. eigenvalues --    1.81015   1.81024   1.86343   1.91709   1.94635
 Alpha virt. eigenvalues --    2.06711   2.10919   2.11516   2.13822   2.15181
 Alpha virt. eigenvalues --    2.15992   2.18340   2.21286   2.24698   2.25353
 Alpha virt. eigenvalues --    2.27442   2.42032   2.43624   2.48677   2.61343
 Alpha virt. eigenvalues --    2.65987   2.78963   2.98596   3.08411   3.09066
 Alpha virt. eigenvalues --    3.20725   3.24046   3.24951   3.29181   3.35912
 Alpha virt. eigenvalues --    3.38440   3.46385   3.47653   3.52682   3.55674
 Alpha virt. eigenvalues --    3.59581   3.70384   3.72371   3.80043   3.80604
 Alpha virt. eigenvalues --    3.83454   3.83979   3.93041   3.96191   4.00554
 Alpha virt. eigenvalues --    4.00884   4.04121   4.06692   4.20161   4.20862
 Alpha virt. eigenvalues --    4.23300   4.23624   4.30962   4.32040   4.34402
 Alpha virt. eigenvalues --    4.45798   4.48463   4.52104   4.56322   4.57535
 Alpha virt. eigenvalues --    4.57731   4.65042   4.70047   4.72129   4.73093
 Alpha virt. eigenvalues --    4.85035   4.94778   4.97062   5.09559   5.14910
 Alpha virt. eigenvalues --    5.22534   5.25087   5.45001   5.45939   5.70170
 Alpha virt. eigenvalues --    5.73377   5.77122   5.80326   5.86251   5.86806
 Alpha virt. eigenvalues --    5.96783   6.02419   6.05686   6.10762   6.12630
 Alpha virt. eigenvalues --    6.17407   6.29534   6.41703   6.63172   7.33346
 Alpha virt. eigenvalues --   32.75146
          Condensed to atoms (all electrons):
               1          2          3          4          5          6
     1  C    4.610238   0.292007   0.585086   0.293021  -0.045149  -0.017347
     2  C    0.292007   4.665206  -0.055245  -0.085598   0.418281   0.405462
     3  O    0.585086  -0.055245   7.850991  -0.095168   0.005451   0.000238
     4  Cl   0.293021  -0.085598  -0.095168  17.034854   0.008016  -0.000393
     5  H   -0.045149   0.418281   0.005451   0.008016   0.583247  -0.017751
     6  H   -0.017347   0.405462   0.000238  -0.000393  -0.017751   0.586786
     7  H   -0.017347   0.405462   0.000238  -0.000393  -0.017751  -0.020171
               7
     1  C   -0.017347
     2  C    0.405462
     3  O    0.000238
     4  Cl  -0.000393
     5  H   -0.017751
     6  H   -0.020171
     7  H    0.586786
 Mulliken charges:
               1
     1  C    0.299492
     2  C   -0.045574
     3  O   -0.291590
[...]
     1   6     0.00   0.00  -0.17    -0.14  -0.17  -0.00     0.02   0.02  -0.00
     2   6    -0.00  -0.00   0.16     0.05   0.17   0.00    -0.14  -0.01  -0.00
     3   8     0.00  -0.00   0.03     0.03   0.03   0.00    -0.00  -0.00   0.00
     4  17    -0.00  -0.00   0.01     0.00   0.00   0.00    -0.00  -0.00   0.00
     5   1    -0.00  -0.00  -0.37     0.82   0.00  -0.00     0.45  -0.13   0.00
     6   1     0.62   0.02  -0.15    -0.18  -0.28  -0.12     0.55   0.09  -0.27
     7   1    -0.62  -0.02  -0.15    -0.18  -0.28   0.12     0.55   0.09   0.27
                     10                     11                     12
                     A'                     A"                     A'
 Frequencies --   1464.8832              1467.6721              1882.8413
 Red. masses --      1.0495                 1.0446                12.1167
 Frc consts  --      1.3269                 1.3257                25.3082
 IR Inten    --     12.4878                12.6565               346.6920
  Atom  AN      X      Y      Z        X      Y      Z        X      Y      Z
     1   6    -0.01  -0.00  -0.00     0.00   0.00  -0.02     0.62  -0.48   0.00
     2   6    -0.02  -0.05  -0.00     0.00   0.00  -0.05    -0.06   0.01   0.00
     3   8     0.02  -0.01   0.00    -0.00   0.00   0.00    -0.39   0.37  -0.00
     4  17    -0.00   0.00   0.00     0.00  -0.00   0.00    -0.01  -0.01  -0.00
     5   1     0.47  -0.14   0.00    -0.00   0.00   0.72     0.15  -0.06   0.00
     6   1    -0.15   0.48   0.35     0.26   0.41   0.06    -0.16   0.04   0.09
     7   1    -0.15   0.48  -0.35    -0.26  -0.41   0.06    -0.16   0.04  -0.09
                     13                     14                     15
                     A'                     A"                     A'
 Frequencies --   3056.3159              3124.5250              3151.9568
 Red. masses --      1.0332                 1.1000                 1.1058
 Frc consts  --      5.6863                 6.3271                 6.4727
 IR Inten    --      0.4256                 0.1861                 5.1517
  Atom  AN      X      Y      Z        X      Y      Z        X      Y      Z
     1   6    -0.00   0.00   0.00     0.00  -0.00  -0.00     0.00  -0.00  -0.00
     2   6    -0.05   0.00  -0.00     0.00  -0.00  -0.09     0.01  -0.09   0.00
     3   8     0.00  -0.00  -0.00    -0.00   0.00  -0.00    -0.00   0.00   0.00
     4  17     0.00  -0.00  -0.00    -0.00  -0.00   0.00     0.00   0.00   0.00
     5   1     0.10   0.52  -0.00    -0.00  -0.00  -0.02     0.18   0.83   0.00
     6   1     0.23  -0.26   0.49     0.28  -0.32   0.56    -0.14   0.15  -0.30
     7   1     0.23  -0.26  -0.49    -0.28   0.32   0.56    -0.14   0.15   0.30

 -------------------
 - Thermochemistry -
 -------------------
 Temperature   298.150 Kelvin.  Pressure   1.00000 Atm.
 Atom     1 has atomic number  6 and mass  12.00000
 Atom     2 has atomic number  6 and mass  12.00000
 Atom     3 has atomic number  8 and mass  15.99491
 Atom     4 has atomic number 17 and mass  34.96885
 Atom     5 has atomic number  1 and mass   1.00783
 Atom     6 has atomic number  1 and mass   1.00783
 Atom     7 has atomic number  1 and mass   1.00783
 Molecular mass:    77.98724 amu.
 Principal axes and moments of inertia in atomic units:
                           1         2         3
     Eigenvalues --   177.31376 371.77817 537.99826
           X            0.35280   0.93570   0.00000
           Y            0.93570  -0.35280   0.00000
           Z           -0.00000  -0.00000   1.00000
 This molecule is an asymmetric top.
 Rotational symmetry number  1.
 Rotational temperatures (Kelvin)      0.48848     0.23297     0.16099
 Rotational constants (GHZ):          10.17824     4.85435     3.35455
 Zero-point vibrational energy     123679.1 (Joules/Mol)
                                   29.56001 (Kcal/Mol)
 Warning -- explicit consideration of   5 degrees of freedom as
           vibrations may cause significant error
 Vibrational temperatures:    187.02   492.59   616.77   748.87   859.98
          (Kelvin)           1374.68  1507.29  1602.95  2004.10  2107.64
                             2111.65  2708.99  4397.36  4495.49  4534.96
 
 Zero-point correction=                           0.047107 (Hartree/Particle)
 Thermal correction to Energy=                    0.051759
 Thermal correction to Enthalpy=                  0.052703
 Thermal correction to Gibbs Free Energy=         0.019244
 Sum of electronic and zero-point Energies=           -613.507355
 Sum of electronic and thermal Energies=              -613.502703
 Sum of electronic and thermal Enthalpies=            -613.501759
 Sum of electronic and thermal Free Energies=         -613.535219
 
                     E (Thermal)             CV                S
                      KCal/Mol        Cal/Mol-Kelvin    Cal/Mol-Kelvin
 Total                   32.479             14.445             70.421
 Electronic               0.000              0.000              0.000
 Translational            0.889              2.981             38.977
 Rotational               0.889              2.981             25.076
 Vibrational             30.702              8.484              6.369
 Vibration     1          0.612              1.923              2.946
 Vibration     2          0.722              1.591              1.201
 Vibration     3          0.790              1.408              0.863
 Vibration     4          0.875              1.205              0.609
 Vibration     5          0.956              1.037              0.454
                       Q            Log10(Q)             Ln(Q)
 Total Bot       0.140760D-08         -8.851520        -20.381378
 Total V=0       0.654819D+13         12.816122         29.510210
 Vib (Bot)       0.771333D-21        -21.112758        -48.613923
 Vib (Bot)    1  0.156841D+01          0.195461          0.450065
 Vib (Bot)    2  0.541536D+00         -0.266373         -0.613346
 Vib (Bot)    3  0.406872D+00         -0.390542         -0.899256
 Vib (Bot)    4  0.309978D+00         -0.508669         -1.171254
 Vib (Bot)    5  0.250401D+00         -0.601363         -1.384690
 Vib (V=0)       0.358825D+01          0.554883          1.277666
 Vib (V=0)    1  0.214618D+01          0.331667          0.763691
 Vib (V=0)    2  0.123706D+01          0.092392          0.212740
 Vib (V=0)    3  0.114463D+01          0.058664          0.135079
 Vib (V=0)    4  0.108829D+01          0.036745          0.084609
 Vib (V=0)    5  0.105920D+01          0.024977          0.057511
 Electronic      0.100000D+01          0.000000          0.000000
 Translational   0.270701D+08          7.432489         17.113939
 Rotational      0.674139D+05          4.828749         11.118606
 ***** Axes restored to original set *****
 -------------------------------------------------------------------
 Center     Atomic                   Forces (Hartrees/Bohr)
 Number     Number              X              Y              Z
 -------------------------------------------------------------------
      1        6           0.000014218   -0.000146157    0.000000000
      2        6           0.000078788    0.000002276    0.000000000
      3        8          -0.000101052    0.000120437    0.000000000
      4       17           0.000023106    0.000020427   -0.000000000
      5        1           0.000001239    0.000032159   -0.000000000
      6        1          -0.000008149   -0.000014571    0.000023288
      7        1          -0.000008149   -0.000014571   -0.000023288
 -------------------------------------------------------------------
 Cartesian Forces:  Max     0.000146157 RMS     0.000051696
 FormGI is forming the generalized inverse of G from B-inverse, IUseBI=4.

 GradGradGradGradGradGradGradGradGradGradGradGradGradGradGradGradGradGrad
 Berny optimization.
 Internal  Forces:  Max     0.000156468 RMS     0.000040627
 Search for a local minimum.
 Step number   1 out of a maximum of    2
 All quantities printed in internal units (Hartrees-Bohrs-Radians)
 Second derivative matrix not updated -- analytic derivatives used.
 ITU=  0
     Eigenvalues ---    0.00116   0.05005   0.05503   0.05569   0.09840
     Eigenvalues ---    0.12388   0.13864   0.14163   0.21812   0.24373
     Eigenvalues ---    0.30283   0.34016   0.34503   0.34935   0.94763
 Angle between quadratic step and forces=  46.20 degrees.
 Linear search not attempted -- first point.
 Iteration  1 RMS(Cart)=  0.00012922 RMS(Int)=  0.00000001
 Iteration  2 RMS(Cart)=  0.00000001 RMS(Int)=  0.00000001
 ClnCor:  largest displacement from symmetrization is 3.40D-12 for atom     7.
 Variable       Old X    -DE/DX   Delta X   Delta X   Delta X     New X
                                 (Linear)    (Quad)   (Total)
    R1        2.82963   0.00006   0.00000   0.00029   0.00029   2.82992
    R2        2.22814   0.00016   0.00000   0.00018   0.00018   2.22832
    R3        3.45021  -0.00003   0.00000  -0.00034  -0.00034   3.44987
    R4        2.05397   0.00003   0.00000   0.00008   0.00008   2.05404
    R5        2.05830   0.00002   0.00000   0.00006   0.00006   2.05836
    R6        2.05830   0.00002   0.00000   0.00006   0.00006   2.05836
    A1        2.23612  -0.00000   0.00000  -0.00009  -0.00009   2.23604
    A2        1.95067  -0.00003   0.00000  -0.00008  -0.00008   1.95059
    A3        2.09639   0.00003   0.00000   0.00017   0.00017   2.09656
    A4        1.90845   0.00000   0.00000  -0.00001  -0.00001   1.90844
    A5        1.91207  -0.00002   0.00000  -0.00019  -0.00019   1.91188
    A6        1.91207  -0.00002   0.00000  -0.00019  -0.00019   1.91188
    A7        1.92821   0.00001   0.00000   0.00012   0.00012   1.92833
    A8        1.92821   0.00001   0.00000   0.00012   0.00012   1.92833
    A9        1.87454   0.00002   0.00000   0.00015   0.00015   1.87469
    D1        0.00000  -0.00000   0.00000  -0.00000   0.00000   0.00000
    D2        2.11552   0.00000   0.00000   0.00002   0.00002   2.11554
    D3       -2.11552  -0.00000   0.00000  -0.00002  -0.00002  -2.11554
    D4        3.14159  -0.00000   0.00000  -0.00000   0.00000   3.14159
    D5       -1.02607   0.00000   0.00000   0.00002   0.00002  -1.02605
    D6        1.02607  -0.00000   0.00000  -0.00002  -0.00002   1.02605
         Item               Value     Threshold  Converged?
 Maximum Force            0.000156     0.000450     YES
 RMS     Force            0.000041     0.000300     YES
 Maximum Displacement     0.000327     0.001800     YES
 RMS     Displacement     0.000129     0.001200     YES
 Predicted change in Energy=-4.116549D-08
 Optimization completed.
    -- Stationary point found.
                           ----------------------------
                           !   Optimized Parameters   !
                           ! (Angstroms and Degrees)  !
 --------------------------                            --------------------------
 ! Name  Definition              Value          Derivative Info.                !
 --------------------------------------------------------------------------------
 ! R1    R(1,2)                  1.4974         -DE/DX =    0.0001              !
 ! R2    R(1,3)                  1.1791         -DE/DX =    0.0002              !
 ! R3    R(1,4)                  1.8258         -DE/DX =    0.0                 !
 ! R4    R(2,5)                  1.0869         -DE/DX =    0.0                 !
 ! R5    R(2,6)                  1.0892         -DE/DX =    0.0                 !
 ! R6    R(2,7)                  1.0892         -DE/DX =    0.0                 !
 ! A1    A(2,1,3)              128.1205         -DE/DX =    0.0                 !
 ! A2    A(2,1,4)              111.765          -DE/DX =    0.0                 !
 ! A3    A(3,1,4)              120.1145         -DE/DX =    0.0                 !
 ! A4    A(1,2,5)              109.3459         -DE/DX =    0.0                 !
 ! A5    A(1,2,6)              109.5536         -DE/DX =    0.0                 !
 ! A6    A(1,2,7)              109.5536         -DE/DX =    0.0                 !
 ! A7    A(5,2,6)              110.4784         -DE/DX =    0.0                 !
 ! A8    A(5,2,7)              110.4784         -DE/DX =    0.0                 !
 ! A9    A(6,2,7)              107.4032         -DE/DX =    0.0                 !
 ! D1    D(3,1,2,5)              0.0            -DE/DX =    0.0                 !
 ! D2    D(3,1,2,6)            121.2105         -DE/DX =    0.0                 !
 ! D3    D(3,1,2,7)           -121.2105         -DE/DX =    0.0                 !
 ! D4    D(4,1,2,5)            180.0            -DE/DX =    0.0                 !
 ! D5    D(4,1,2,6)            -58.7895         -DE/DX =    0.0                 !
 ! D6    D(4,1,2,7)             58.7895         -DE/DX =    0.0                 !
 --------------------------------------------------------------------------------
 GradGradGradGradGradGradGradGradGradGradGradGradGradGradGradGradGradGrad


 ----------------------------------------------------------------------

 Electric dipole moment (input orientation):
 (Debye = 10**-18 statcoulomb cm , SI units = C m)
                  (au)            (Debye)         (10**-30 SI)
   Tot        0.114974D+01      0.292234D+01      0.974787D+01
   x          0.114573D+01      0.291216D+01      0.971392D+01
   y          0.958772D-01      0.243696D+00      0.812881D+00
   z          0.000000D+00      0.000000D+00      0.000000D+00

 Dipole polarizability, Alpha (input orientation).
 (esu units = cm**3 , SI units = C**2 m**2 J**-1)
 Alpha(0;0):
               (au)            (10**-24 esu)      (10**-40 SI)
   iso        0.397055D+02      0.588375D+01      0.654656D+01
   aniso      0.208375D+02      0.308780D+01      0.343564D+01
   xx         0.401336D+02      0.594718D+01      0.661713D+01
   yx         0.288334D+01      0.427266D+00      0.475398D+00
   yy         0.511655D+02      0.758195D+01      0.843606D+01
   zx         0.000000D+00      0.000000D+00      0.000000D+00
   zy         0.000000D+00      0.000000D+00      0.000000D+00
   zz         0.278175D+02      0.412213D+01      0.458649D+01

 ----------------------------------------------------------------------

 Dipole orientation:
     6         -0.08491046          1.01467926          0.09135834
     6         -0.09396959          1.12293578          2.91889994
     8         -0.22657515          2.70757103         -1.35039175
    17          0.18619255         -2.22499931         -1.06402194
     1         -0.25763894          3.07878301          3.52441363
     1         -1.66552578          0.01012821          3.64587082
     1          1.64067836          0.28679823          3.64587082

 Electric dipole moment (dipole orientation):
 (Debye = 10**-18 statcoulomb cm , SI units = C m)
                  (au)            (Debye)         (10**-30 SI)
   Tot        0.114974D+01      0.292234D+01      0.974787D+01
   x          0.000000D+00      0.000000D+00      0.000000D+00
   y          0.000000D+00      0.000000D+00      0.000000D+00
   z          0.114974D+01      0.292234D+01      0.974787D+01

 Dipole polarizability, Alpha (dipole orientation).
 (esu units = cm**3 , SI units = C**2 m**2 J**-1)
 Alpha(0;0):
               (au)            (10**-24 esu)      (10**-40 SI)
   iso        0.397055D+02      0.588375D+01      0.654656D+01
   aniso      0.208375D+02      0.308780D+01      0.343564D+01
   xx         0.279760D+02      0.414561D+01      0.461262D+01
   yx        -0.189403D+01     -0.280666D+00     -0.312283D+00
   yy         0.504511D+02      0.747608D+01      0.831826D+01
   zx        -0.313548D+00     -0.464630D-01     -0.516971D-01
   zy         0.374689D+01      0.555232D+00      0.617779D+00
   zz         0.406895D+02      0.602956D+01      0.670879D+01

 ----------------------------------------------------------------------
 1\1\GINC-GAMBA\Freq\RB3LYP\Gen\C2H3Cl1O1\IRIKURA\16-Jun-2022\0\\#N Geo
 m=AllCheck Guess=TCheck SCRF=Check GenChk RB3LYP/ChkBas Freq\\acetyl c
 hloride, B3LYP/pcseg-2\\0,1\C,0.0032436799,0.5409766388,0.\C,1.4895087
 733,0.723038427,0.\O,-0.8320059663,1.3731942508,0.\Cl,-0.4625661494,-1
 .2243725243,0.\H,1.7222066714,1.7847485645,0.\H,1.9160174955,0.2394498
 216,0.8778415206\H,1.9160174955,0.2394498216,-0.8778415206\\Version=ES
 64L-G16RevB.01\State=1-A'\HF=-613.5544623\RMSD=9.618e-10\RMSF=5.170e-0
 5\ZeroPoint=0.0471069\Thermal=0.051759\Dipole=1.1457321,0.0958772,0.\D
 ipoleDeriv=1.1527738,-0.1855445,0.,0.2469957,2.3153867,0.,0.,0.,0.1894
 341,-0.3024189,0.0096504,0.,-0.0376865,-0.067188,0.,0.,0.,0.0453917,-0
 .715153,0.5511055,0.,0.1515745,-1.1903921,0.,0.,0.,-0.2495826,-0.28168
 47,-0.2966618,0.,-0.2694716,-1.1179511,0.,0.,0.,-0.136281,0.0170054,-0
 .0475485,0.,-0.0537661,-0.053794,0.,0.,0.,0.1014405,0.0647387,-0.01550
 06,0.0013369,-0.018823,0.0569693,0.0578774,-0.0319175,0.0474196,0.0247
 987,0.0647387,-0.0155006,-0.0013369,-0.018823,0.0569693,-0.0578774,0.0
 319175,-0.0474196,0.0247987\Polar=40.1335811,2.8833351,51.1655282,0.,0
 .,27.8174937\Quadrupole=0.7914063,-1.637238,0.8458317,2.0037502,0.,0.\
 PG=CS [SG(C2H1Cl1O1),X(H2)]\NImag=0\\0.77697023,-0.32363497,0.54945845
 ,0.,0.,0.18305207,-0.18660992,-0.02343588,0.,0.46010289,-0.03097006,-0
 .07695789,0.,-0.01393242,0.60073345,0.,0.,-0.08478936,0.,0.,0.53326892
 ,-0.49640470,0.35244733,0.,-0.03906668,0.03772200,0.,0.52000098,0.3971
 4272,-0.43397271,0.,0.01365589,0.00370728,0.,-0.42232542,0.50543554,0.
 ,0.,-0.06446553,0.,0.,0.02794480,0.,0.,0.02543221,-0.05647156,-0.01039
 997,0.,-0.00650210,-0.02790617,0.,0.02073621,0.01344548,0.,0.04634701,
 -0.04633122,-0.03282882,0.,-0.00591527,-0.02014783,0.,0.03126495,-0.08
 062789,0.,0.02819486,0.13519888,0.,0.,-0.03505253,0.,0.,0.00920199,0.,
 0.,0.01405283,0.,0.,0.00873066,-0.00822528,-0.03379632,0.,-0.06031060,
 -0.05098878,0.,0.00327499,0.00191138,0.,-0.00487392,-0.00395219,0.,0.0
 6432869,-0.00012890,-0.00621868,0.,-0.05640471,-0.30948942,0.,0.001099
 99,0.00247953,0.,-0.00105200,0.00091166,0.,0.06142796,0.33287355,0.,0.
 ,-0.00153984,0.,0.,-0.04893460,0.,0.,-0.00066771,0.,0.,0.00186364,0.,0
 .,0.04552675,-0.01462938,0.01940991,-0.03026762,-0.08380679,0.04303772
 ,-0.08795603,-0.00427039,-0.00191503,0.00464378,0.00038218,-0.00163057
 ,0.00193966,0.00290306,-0.00247117,0.00706025,0.09336749,0.00196121,0.
 00025983,-0.00571116,0.04301620,-0.09892279,0.09962620,-0.00010442,0.0
 0148913,0.00078067,-0.00114110,-0.00125300,-0.00004242,0.01269897,-0.0
 1027832,0.02435157,-0.05004563,0.10278128,0.00047302,0.00046044,0.0013
 9759,-0.08721448,0.09820282,-0.21834588,0.00156933,-0.00111859,-0.0011
 4830,0.00037678,-0.00071195,0.00060171,0.00197973,-0.00124044,0.001875
 88,0.09369779,-0.10729857,0.23672001,-0.01462938,0.01940991,0.03026762
 ,-0.08380679,0.04303772,0.08795603,-0.00427039,-0.00191503,-0.00464378
 ,0.00038218,-0.00163057,-0.00193966,0.00290306,-0.00247117,-0.00706025
 ,0.00605384,-0.00638524,-0.01088217,0.09336749,0.00196121,0.00025983,0
 .00571116,0.04301620,-0.09892279,-0.09962620,-0.00010442,0.00148913,-0
 .00078067,-0.00114110,-0.00125300,0.00004242,0.01269897,-0.01027832,-0
 .02435157,-0.00638524,0.00592387,0.01170628,-0.05004563,0.10278128,-0.
 00047302,-0.00046044,0.00139759,0.08721448,-0.09820282,-0.21834588,-0.
 00156933,0.00111859,-0.00114830,-0.00037678,0.00071195,0.00060171,-0.0
 0197973,0.00124044,0.00187588,0.01088217,-0.01170628,-0.02110101,-0.09
 369779,0.10729857,0.23672001\\-0.00001422,0.00014616,0.,-0.00007879,-0
 .00000228,0.,0.00010105,-0.00012044,0.,-0.00002311,-0.00002043,0.,-0.0
 0000124,-0.00003216,0.,0.00000815,0.00001457,-0.00002329,0.00000815,0.
 00001457,0.00002329\\\@


 SI MONUMENTUM REQUIRIS, CIRCUMSPICE
     -- FROM SIR CHRISTOPHER WREN'S TOMBSTONE
 Job cpu time:       0 days  0 hours  7 minutes 33.5 seconds.
 Elapsed time:       0 days  0 hours  0 minutes 37.9 seconds.
 File lengths (MBytes):  RWF=     24 Int=      0 D2E=      0 Chk=      3 Scr=      1
 Normal termination of Gaussian 16 at Thu Jun 16 09:05:14 2022.
