 Entering Gaussian System, Link 0=g16
 AtFile(1): pcseg2.gbs
            -H     0
            S   4   1.00
                  0.754732D+02           0.427821D-02
                  0.113575D+02           0.328672D-01
                  0.260081D+01           0.159578D+00
                  0.735503D+00           0.500000D+00
            S   1   1.00
                  0.231761D+00           1.0000000
            S   1   1.00
                  0.741675D-01           1.0000000
            P   1   1.00
                  0.160000D+01           1.0000000
            P   1   1.00
                  0.450000D+00           1.0000000
            D   1   1.00
                  0.125000D+01           1.0000000
            ****
            -C     0
            S   7   1.00
                  0.731999D+04           0.695369D-03
                  0.109818D+04           0.537138D-02
                  0.250014D+03           0.274734D-01
                  0.707586D+02           0.105078D+00
                  0.228595D+02           0.291262D+00
                  0.803936D+01           0.500000D+00
                  0.289309D+01           0.362224D+00
            S   2   1.00
                  0.521640D+01          -0.957844D-01
                  0.556124D+00           0.500000D+00
            S   1   1.00
                  0.228813D+00           1.0000000
            S   1   1.00
                  0.936338D-01           1.0000000
            P   4   1.00
                  0.339855D+02           0.818395D-02
                  0.772957D+01           0.586921D-01
                  0.224954D+01           0.222514D+00
                  0.767681D+00           0.500000D+00
            P   1   1.00
                  0.263283D+00           1.0000000
            P   1   1.00
                  0.848744D-01           1.0000000
            D   1   1.00
                  0.140000D+01           1.0000000
            D   1   1.00
                  0.450000D+00           1.0000000
            F   1   1.00
                  0.950000D+00           1.0000000
            ****
            -O     0
            S   7   1.00
                  0.135887D+05           0.665492D-03
                  0.203847D+04           0.514222D-02
                  0.464041D+03           0.263472D-01
                  0.131339D+03           0.101500D+00
                  0.425340D+02           0.285877D+00
                  0.150429D+02           0.500000D+00
                  0.546616D+01           0.368211D+00
            S   2   1.00
                  0.100915D+02          -0.100084D+00
                  0.110429D+01           0.500000D+00
            S   1   1.00
                  0.448082D+00           1.0000000
            S   1   1.00
                  0.175325D+00           1.0000000
            P   4   1.00
                  0.608220D+02           0.908253D-02
                  0.140332D+02           0.645878D-01
                  0.418244D+01           0.241502D+00
                  0.142490D+01           0.500000D+00
            P   1   1.00
                  0.478741D+00           1.0000000
            P   1   1.00
                  0.146257D+00           1.0000000
            D   1   1.00
                  0.220000D+01           1.0000000
            D   1   1.00
                  0.650000D+00           1.0000000
            F   1   1.00
                  0.110000D+01           1.0000000
            ****
            -N     0
            S   7   1.00
                  0.101643D+05           0.682757D-03
                  0.152481D+04           0.527488D-02
                  0.347119D+03           0.270037D-01
                  0.982389D+02           0.103673D+00
                  0.317799D+02           0.289575D+00
                  0.112240D+02           0.500000D+00
                  0.406611D+01           0.364621D+00
            S   2   1.00
                  0.747898D+01          -0.975681D-01
                  0.805040D+00           0.500000D+00
            S   1   1.00
                  0.324626D+00           1.0000000
            S   1   1.00
                  0.128132D+00           1.0000000
            P   4   1.00
                  0.482704D+02           0.829547D-02
                  0.110815D+02           0.596223D-01
                  0.326643D+01           0.227889D+00
                  0.111680D+01           0.500000D+00
            P   1   1.00
                  0.382049D+00           1.0000000
            P   1   1.00
                  0.121222D+00           1.0000000
            D   1   1.00
                  0.180000D+01           1.0000000
            D   1   1.00
                  0.550000D+00           1.0000000
            F   1   1.00
                  0.102000D+01           1.0000000
            ****
            -F     0
            S   7   1.00
                  0.174507D+05           0.655972D-03
                  0.261768D+04           0.506944D-02
                  0.595857D+03           0.259899D-01
                  0.168651D+03           0.100353D+00
                  0.546654D+02           0.284095D+00
                  0.193717D+02           0.500000D+00
                  0.706202D+01           0.370721D+00
            S   2   1.00
                  0.131197D+02          -0.101997D+00
                  0.145046D+01           0.500000D+00
            S   1   1.00
                  0.588255D+00           1.0000000
            S   1   1.00
                  0.227960D+00           1.0000000
            P   4   1.00
                  0.779407D+02           0.931135D-02
                  0.180425D+02           0.663964D-01
                  0.542342D+01           0.246386D+00
                  0.184876D+01           0.500000D+00
            P   1   1.00
                  0.617455D+00           1.0000000
            P   1   1.00
                  0.185496D+00           1.0000000
            D   1   1.00
                  0.280000D+01           1.0000000
            D   1   1.00
                  0.800000D+00           1.0000000
            F   1   1.00
                  0.120000D+01           1.0000000
            ****
            -Cl     0
            S   8   1.00
                  0.154272D+06           0.222473D-03
                  0.231232D+05           0.172590D-02
                  0.526257D+04           0.899286D-02
                  0.148995D+04           0.367724D-01
                  0.485417D+03           0.121446D+00
                  0.174634D+03           0.304148D+00
                  0.672393D+02           0.500000D+00
                  0.265780D+02           0.360252D+00
            S   3   1.00
                  0.131826D+03          -0.531330D-01
                  0.400703D+02          -0.233346D+00
                  0.789448D+01           0.500000D+00
            S   2   1.00
                  0.427711D+01           0.500000D+00
                  0.196233D+01           0.370517D+00
            S   1   1.00
                  0.520793D+00           1.0000000
            S   1   1.00
                  0.181633D+00           1.0000000
            P   7   1.00
                  0.124440D+04           0.988206D-03
                  0.295109D+03           0.829674D-02
                  0.947224D+02           0.430906D-01
                  0.352588D+02           0.148443D+00
                  0.144211D+02           0.344744D+00
                  0.610371D+01           0.500000D+00
                  0.258886D+01           0.348278D+00
            P   2   1.00
                  0.109447D+02          -0.196768D-01
                  0.104413D+01           0.500000D+00
            P   1   1.00
                  0.376184D+00           1.0000000
            P   1   1.00
                  0.120613D+00           1.0000000
            D   1   1.00
                  0.231000D+01           1.0000000
            D   1   1.00
                  0.520000D+00           1.0000000
            F   1   1.00
                  0.720000D+00           1.0000000
            ****
            -S     0
            S   8   1.00
                  0.134700D+06           0.226231D-03
                  0.201904D+05           0.175488D-02
                  0.459528D+04           0.914190D-02
                  0.130109D+04           0.373551D-01
                  0.423902D+03           0.123121D+00
                  0.152485D+03           0.306801D+00
                  0.586925D+02           0.500000D+00
                  0.231461D+02           0.354358D+00
            S   3   1.00
                  0.116327D+03          -0.491772D-01
                  0.352841D+02          -0.215962D+00
                  0.677831D+01           0.500000D+00
            S   2   1.00
                  0.360404D+01           0.500000D+00
                  0.164871D+01           0.366278D+00
            S   1   1.00
                  0.421821D+00           1.0000000
            S   1   1.00
                  0.147554D+00           1.0000000
            P   7   1.00
                  0.104863D+04           0.105273D-02
                  0.248717D+03           0.879338D-02
                  0.797887D+02           0.453358D-01
                  0.296023D+02           0.154476D+00
                  0.120627D+02           0.352366D+00
                  0.507628D+01           0.500000D+00
                  0.213375D+01           0.346429D+00
            P   2   1.00
                  0.928958D+01          -0.185932D-01
                  0.837819D+00           0.500000D+00
            P   1   1.00
                  0.301495D+00           1.0000000
            P   1   1.00
                  0.974740D-01           1.0000000
            D   1   1.00
                  0.210000D+01           1.0000000
            D   1   1.00
                  0.480000D+00           1.0000000
            F   1   1.00
                  0.660000D+00           1.0000000
            ****
            -Br     0
            S    10   1.00
                  0.233625D+07           0.532336D-04
                  0.349961D+06           0.413715D-03
                  0.796444D+05           0.217123D-02
                  0.225555D+05           0.910109D-02
                  0.735546D+04           0.323789D-01
                  0.265352D+04           0.988755D-01
                  0.103517D+04           0.248138D+00
                  0.422205D+03           0.474328D+00
                  0.180035D+03           0.500000D+00
                  0.793308D+02           0.187769D+00
            S    4   1.00
                  0.620834D+03          -0.226511D-01
                  0.190829D+03          -0.109497D+00
                  0.312505D+02           0.500000D+00
                  0.135270D+02           0.492812D+00
            S    2   1.00
                  0.216097D+02          -0.165418D+00
                  0.372566D+01           0.500000D+00
            S    1   1.00
                  0.169770D+01           1.0000000
            S    1   1.00
                  0.489332D+00           1.0000000
            S    1   1.00
                  0.175712D+00           1.0000000
            P    8   1.00
                  0.960829D+04           0.478974D-03
                  0.227618D+04           0.417853D-02
                  0.736723D+03           0.229315D-01
                  0.281579D+03           0.892653D-01
                  0.118395D+03           0.255288D+00
                  0.527481D+02           0.479074D+00
                  0.245098D+02           0.500000D+00
                  0.112009D+02           0.200944D+00
            P    4   1.00
                  0.587849D+02          -0.189674D-01
                  0.918962D+01           0.264104D+00
                  0.413895D+01           0.500000D+00
                  0.184225D+01           0.319316D+00
            P    1   1.00
                  0.713862D+00           1.0000000
            P    1   1.00
                  0.274232D+00           1.0000000
            P    1   1.00
                  0.944411D-01           1.0000000
            D    7   1.00
                  0.398470D+03           0.204066D-02
                  0.118967D+03           0.175171D-01
                  0.450197D+02           0.829708D-01
                  0.190320D+02           0.236284D+00
                  0.855686D+01           0.428468D+00
                  0.382950D+01           0.500000D+00
                  0.166291D+01           0.349360D+00
            D    1   1.00
                  0.672953D+00           1.0000000
            D    1   1.00
                  0.252000D+00           1.0000000
            F    1   1.00
                  0.530000D+00           1.0000000
            ****
            -Si     0
            S    8   1.00
                  0.996133D+05           0.235546D-03
                  0.149311D+05           0.182707D-02
                  0.339820D+04           0.951425D-02
                  0.962140D+03           0.388172D-01
                  0.313430D+03           0.127328D+00
                  0.112683D+03           0.313522D+00
                  0.433372D+02           0.500000D+00
                  0.170029D+02           0.340347D+00
            S    3   1.00
                  0.884208D+02          -0.404451D-01
                  0.266756D+02          -0.178059D+00
                  0.479640D+01           0.500000D+00
            S    2   1.00
                  0.239385D+01           0.500000D+00
                  0.108333D+01           0.338016D+00
            S    1   1.00
                  0.252420D+00           1.0000000
            S    1   1.00
                  0.891210D-01           1.0000000
            P    7   1.00
                  0.709901D+03           0.123028D-02
                  0.168426D+03           0.101366D-01
                  0.539946D+02           0.511840D-01
                  0.198646D+02           0.169967D+00
                  0.801369D+01           0.370717D+00
                  0.331870D+01           0.500000D+00
                  0.136112D+01           0.344128D+00
            P    2   1.00
                  0.622158D+01          -0.166609D-01
                  0.503049D+00           0.500000D+00
            P    1   1.00
                  0.179848D+00           1.0000000
            P    1   1.00
                  0.591912D-01           1.0000000
            D    1   1.00
                  0.168000D+01           1.0000000
            D    1   1.00
                  0.380000D+00           1.0000000
            F    1   1.00
                  0.540000D+00           1.0000000
            ****
            -P     0
            S    8   1.00
                  0.116416D+06           0.230715D-03
                  0.174500D+05           0.178960D-02
                  0.397149D+04           0.932116D-02
                  0.112447D+04           0.380591D-01
                  0.366347D+03           0.125148D+00
                  0.131757D+03           0.310022D+00
                  0.506988D+02           0.500000D+00
                  0.199436D+02           0.347528D+00
            S    3   1.00
                  0.101878D+03          -0.446755D-01
                  0.308249D+02          -0.196376D+00
                  0.573688D+01           0.500000D+00
            S    2   1.00
                  0.296868D+01           0.500000D+00
                  0.135315D+01           0.355098D+00
            S    1   1.00
                  0.332196D+00           1.0000000
            S    1   1.00
                  0.116229D+00           1.0000000
            P    7   1.00
                  0.873928D+03           0.112375D-02
                  0.207298D+03           0.933330D-02
                  0.664628D+02           0.477213D-01
                  0.245665D+02           0.160733D+00
                  0.996820D+01           0.359760D+00
                  0.416536D+01           0.500000D+00
                  0.173022D+01           0.346593D+00
            P    2   1.00
                  0.772530D+01          -0.175718D-01
                  0.657252D+00           0.500000D+00
            P    1   1.00
                  0.239903D+00           1.0000000
            P    1   1.00
                  0.800988D-01           1.0000000
            D    1   1.00
                  0.189000D+01           1.0000000
            D    1   1.00
                  0.430000D+00           1.0000000
            F    1   1.00
                  0.600000D+00           1.0000000
            ****
            
 Initial command:
 /usr/local/apps/g16_b01_avx/g16/l1.exe "/wrk/irikura/Gau-169457.inp" -scrdir="/wrk/irikura/"
 Entering Link 1 = /usr/local/apps/g16_b01_avx/g16/l1.exe PID=    169459.
  
 Copyright (c) 1988-2017, Gaussian, Inc.  All Rights Reserved.
  
 This is part of the Gaussian(R) 16 program.  It is based on
 the Gaussian(R) 09 system (copyright 2009, Gaussian, Inc.),
 the Gaussian(R) 03 system (copyright 2003, Gaussian, Inc.),
 the Gaussian(R) 98 system (copyright 1998, Gaussian, Inc.),
 the Gaussian(R) 94 system (copyright 1995, Gaussian, Inc.),
 the Gaussian 92(TM) system (copyright 1992, Gaussian, Inc.),
 the Gaussian 90(TM) system (copyright 1990, Gaussian, Inc.),
 the Gaussian 88(TM) system (copyright 1988, Gaussian, Inc.),
 the Gaussian 86(TM) system (copyright 1986, Carnegie Mellon
 University), and the Gaussian 82(TM) system (copyright 1983,
 Carnegie Mellon University). Gaussian is a federally registered
 trademark of Gaussian, Inc.
  
 This software contains proprietary and confidential information,
 including trade secrets, belonging to Gaussian, Inc.
  
 This software is provided under written license and may be
 used, copied, transmitted, or stored only in accord with that
 written license.
  
 The following legend is applicable only to US Government
 contracts under FAR:
  
                    RESTRICTED RIGHTS LEGEND
  
 Use, reproduction and disclosure by the US Government is
 subject to restrictions as set forth in subparagraphs (a)
 and (c) of the Commercial Computer Software - Restricted
 Rights clause in FAR 52.227-19.
  
 Gaussian, Inc.
 340 Quinnipiac St., Bldg. 40, Wallingford CT 06492
  
  
 ---------------------------------------------------------------
 Warning -- This program may not be used in any manner that
 competes with the business of Gaussian, Inc. or will provide
 assistance to any competitor of Gaussian, Inc.  The licensee
 of this program is prohibited from giving any competitor of
 Gaussian, Inc. access to this program.  By using this program,
 the user acknowledges that Gaussian, Inc. is engaged in the
 business of creating and licensing software in the field of
 computational chemistry and represents and warrants to the
 licensee that it is not a competitor of Gaussian, Inc. and that
 it will not use this program in any manner prohibited above.
 ---------------------------------------------------------------
  

 Cite this work as:
 Gaussian 16, Revision B.01,
 M. J. Frisch, G. W. Trucks, H. B. Schlegel, G. E. Scuseria, 
 M. A. Robb, J. R. Cheeseman, G. Scalmani, V. Barone, 
 G. A. Petersson, H. Nakatsuji, X. Li, M. Caricato, A. V. Marenich, 
 J. Bloino, B. G. Janesko, R. Gomperts, B. Mennucci, H. P. Hratchian, 
 J. V. Ortiz, A. F. Izmaylov, J. L. Sonnenberg, D. Williams-Young, 
 F. Ding, F. Lipparini, F. Egidi, J. Goings, B. Peng, A. Petrone, 
 T. Henderson, D. Ranasinghe, V. G. Zakrzewski, J. Gao, N. Rega, 
 G. Zheng, W. Liang, M. Hada, M. Ehara, K. Toyota, R. Fukuda, 
 J. Hasegawa, M. Ishida, T. Nakajima, Y. Honda, O. Kitao, H. Nakai, 
 T. Vreven, K. Throssell, J. A. Montgomery, Jr., J. E. Peralta, 
 F. Ogliaro, M. J. Bearpark, J. J. Heyd, E. N. Brothers, K. N. Kudin, 
 V. N. Staroverov, T. A. Keith, R. Kobayashi, J. Normand, 
 K. Raghavachari, A. P. Rendell, J. C. Burant, S. S. Iyengar, 
 J. Tomasi, M. Cossi, J. M. Millam, M. Klene, C. Adamo, R. Cammi, 
 J. W. Ochterski, R. L. Martin, K. Morokuma, O. Farkas, 
 J. B. Foresman, and D. J. Fox, Gaussian, Inc., Wallingford CT, 2016.
 
 ******************************************
 Gaussian 16:  ES64L-G16RevB.01 20-Dec-2017
                28-Sep-2023 
 ******************************************
 %chk=acetone.chk
 %mem=500mw
 %nprocs=4
 Will use up to    4 processors via shared memory.
 ---------------------------------------
 # b3lyp/gen opt freq CPHF(Grid=OneStep)
 ---------------------------------------
 1/18=20,19=15,26=3,38=1/1,3;
 2/9=110,12=2,17=6,18=5,40=1/2;
 3/5=7,11=2,25=1,30=1,71=1,74=-5/1,2,3;
 4//1;
 5/5=2,38=5/2;
 6/7=2,8=2,9=2,10=2,28=1/1;
 7//1,2,3,16;
 1/18=20,19=15,26=3/3(2);
 2/9=110/2;
 99//99;
 2/9=110/2;
 3/5=7,6=1,11=2,25=1,30=1,71=1,74=-5,82=7/1,2,3;
 4/5=5,16=3,69=1/1;
 5/5=2,38=5/2;
 7//1,2,3,16;
 1/18=20,19=15,26=3/3(-5);
 2/9=110/2;
 6/7=2,8=2,9=2,10=2,19=2,28=1/1;
 99/9=1/99;
 ----------------------
 acetone, B3LYP/pcseg-2
 ----------------------
 Symbolic Z-matrix:
 Charge =  0 Multiplicity = 1
 C                     0.        0.        0.18507 
 O                     0.        0.        1.39418 
 C                     0.        1.28773  -0.61146 
 C                     0.       -1.28773  -0.61146 
 H                     0.        2.1424    0.05932 
 H                     0.       -2.1424    0.05932 
 H                    -0.87677   1.32945  -1.26125 
 H                     0.87677   1.32945  -1.26125 
 H                     0.87677  -1.32945  -1.26125 
 H                    -0.87677  -1.32945  -1.26125 
 

 GradGradGradGradGradGradGradGradGradGradGradGradGradGradGradGradGradGrad
 Berny optimization.
 Initialization pass.
                           ----------------------------
                           !    Initial Parameters    !
                           ! (Angstroms and Degrees)  !
 --------------------------                            --------------------------
 ! Name  Definition              Value          Derivative Info.                !
 --------------------------------------------------------------------------------
 ! R1    R(1,2)                  1.2091         estimate D2E/DX2                !
 ! R2    R(1,3)                  1.5142         estimate D2E/DX2                !
 ! R3    R(1,4)                  1.5142         estimate D2E/DX2                !
 ! R4    R(3,5)                  1.0865         estimate D2E/DX2                !
 ! R5    R(3,7)                  1.0921         estimate D2E/DX2                !
 ! R6    R(3,8)                  1.0921         estimate D2E/DX2                !
 ! R7    R(4,6)                  1.0865         estimate D2E/DX2                !
 ! R8    R(4,9)                  1.0921         estimate D2E/DX2                !
 ! R9    R(4,10)                 1.0921         estimate D2E/DX2                !
 ! A1    A(2,1,3)              121.7387         estimate D2E/DX2                !
 ! A2    A(2,1,4)              121.7387         estimate D2E/DX2                !
 ! A3    A(3,1,4)              116.5225         estimate D2E/DX2                !
 ! A4    A(1,3,5)              110.1352         estimate D2E/DX2                !
 ! A5    A(1,3,7)              110.2113         estimate D2E/DX2                !
 ! A6    A(1,3,8)              110.2113         estimate D2E/DX2                !
 ! A7    A(5,3,7)              109.7121         estimate D2E/DX2                !
 ! A8    A(5,3,8)              109.7121         estimate D2E/DX2                !
 ! A9    A(7,3,8)              106.8008         estimate D2E/DX2                !
 ! A10   A(1,4,6)              110.1352         estimate D2E/DX2                !
 ! A11   A(1,4,9)              110.2113         estimate D2E/DX2                !
 ! A12   A(1,4,10)             110.2113         estimate D2E/DX2                !
 ! A13   A(6,4,9)              109.7121         estimate D2E/DX2                !
 ! A14   A(6,4,10)             109.7121         estimate D2E/DX2                !
 ! A15   A(9,4,10)             106.8008         estimate D2E/DX2                !
 ! D1    D(2,1,3,5)              0.0            estimate D2E/DX2                !
 ! D2    D(2,1,3,7)           -121.1851         estimate D2E/DX2                !
 ! D3    D(2,1,3,8)            121.1851         estimate D2E/DX2                !
 ! D4    D(4,1,3,5)            180.0            estimate D2E/DX2                !
 ! D5    D(4,1,3,7)             58.8149         estimate D2E/DX2                !
 ! D6    D(4,1,3,8)            -58.8149         estimate D2E/DX2                !
 ! D7    D(2,1,4,6)              0.0            estimate D2E/DX2                !
 ! D8    D(2,1,4,9)           -121.1851         estimate D2E/DX2                !
 ! D9    D(2,1,4,10)           121.1851         estimate D2E/DX2                !
 ! D10   D(3,1,4,6)            180.0            estimate D2E/DX2                !
 ! D11   D(3,1,4,9)             58.8149         estimate D2E/DX2                !
 ! D12   D(3,1,4,10)           -58.8149         estimate D2E/DX2                !
 --------------------------------------------------------------------------------
 Trust Radius=3.00D-01 FncErr=1.00D-07 GrdErr=1.00D-06 EigMax=2.50D+02 EigMin=1.00D-04
 Number of steps in this run=     46 maximum allowed number of steps=    100.
 GradGradGradGradGradGradGradGradGradGradGradGradGradGradGradGradGradGrad

                          Input orientation:                          
 ---------------------------------------------------------------------
 Center     Atomic      Atomic             Coordinates (Angstroms)
 Number     Number       Type             X           Y           Z
 ---------------------------------------------------------------------
      1          6           0        0.000000    0.000000    0.185066
      2          8           0        0.000000    0.000000    1.394180
      3          6           0        0.000000    1.287729   -0.611455
      4          6           0        0.000000   -1.287729   -0.611455
      5          1           0        0.000000    2.142400    0.059320
      6          1           0        0.000000   -2.142400    0.059320
      7          1           0       -0.876769    1.329449   -1.261254
      8          1           0        0.876769    1.329449   -1.261254
      9          1           0        0.876769   -1.329449   -1.261254
     10          1           0       -0.876769   -1.329449   -1.261254
 ---------------------------------------------------------------------
                    Distance matrix (angstroms):
                    1          2          3          4          5
     1  C    0.000000
     2  O    1.209114   0.000000
     3  C    1.514164   2.383447   0.000000
     4  C    1.514164   2.383447   2.575458   0.000000
     5  H    2.146087   2.524228   1.086463   3.495100   0.000000
     6  H    2.146087   2.524228   3.495100   1.086463   4.284800
     7  H    2.151279   3.096367   1.092110   2.835592   1.781440
     8  H    2.151279   3.096367   1.092110   2.835592   1.781440
     9  H    2.151279   3.096367   2.835592   1.092110   3.816592
    10  H    2.151279   3.096367   2.835592   1.092110   3.816592
                    6          7          8          9         10
     6  H    0.000000
     7  H    3.816592   0.000000
     8  H    3.816592   1.753538   0.000000
     9  H    1.781440   3.185064   2.658898   0.000000
    10  H    1.781440   2.658898   3.185064   1.753538   0.000000
 Stoichiometry    C3H6O
 Framework group  C2V[C2(CO),SGV(C2H2),X(H4)]
 Deg. of freedom     8
 Full point group                 C2V     NOp   4
 Largest Abelian subgroup         C2V     NOp   4
 Largest concise Abelian subgroup C2V     NOp   4
                         Standard orientation:                         
 ---------------------------------------------------------------------
 Center     Atomic      Atomic             Coordinates (Angstroms)
 Number     Number       Type             X           Y           Z
 ---------------------------------------------------------------------
      1          6           0       -0.000000   -0.000000    0.185066
      2          8           0       -0.000000   -0.000000    1.394180
      3          6           0        0.000000    1.287729   -0.611455
      4          6           0       -0.000000   -1.287729   -0.611455
      5          1           0        0.000000    2.142400    0.059320
      6          1           0       -0.000000   -2.142400    0.059320
      7          1           0       -0.876769    1.329449   -1.261254
      8          1           0        0.876769    1.329449   -1.261254
      9          1           0        0.876769   -1.329449   -1.261254
     10          1           0       -0.876769   -1.329449   -1.261254
 ---------------------------------------------------------------------
 Rotational constants (GHZ):          10.1927027           8.5262208           4.9229371
 General basis read from cards:  (5D, 7F)
 There are    82 symmetry adapted cartesian basis functions of A1  symmetry.
 There are    36 symmetry adapted cartesian basis functions of A2  symmetry.
 There are    46 symmetry adapted cartesian basis functions of B1  symmetry.
 There are    66 symmetry adapted cartesian basis functions of B2  symmetry.
 There are    70 symmetry adapted basis functions of A1  symmetry.
 There are    34 symmetry adapted basis functions of A2  symmetry.
 There are    42 symmetry adapted basis functions of B1  symmetry.
 There are    58 symmetry adapted basis functions of B2  symmetry.
   204 basis functions,   312 primitive gaussians,   230 cartesian basis functions
    16 alpha electrons       16 beta electrons
       nuclear repulsion energy       119.5368579350 Hartrees.
 NAtoms=   10 NActive=   10 NUniq=    5 SFac= 4.00D+00 NAtFMM=   60 NAOKFM=F Big=F
 Integral buffers will be    131072 words long.
 Raffenetti 2 integral format.
 Two-electron integral symmetry is turned on.
 One-electron integrals computed using PRISM.
 NBasis=   204 RedAO= T EigKep=  3.95D-04  NBF=    70    34    42    58
 NBsUse=   204 1.00D-06 EigRej= -1.00D+00 NBFU=    70    34    42    58
 ExpMin= 7.42D-02 ExpMax= 1.36D+04 ExpMxC= 4.64D+02 IAcc=3 IRadAn=         5 AccDes= 0.00D+00
 Harris functional with IExCor=  402 and IRadAn=       5 diagonalized for initial guess.
 HarFok:  IExCor=  402 AccDes= 0.00D+00 IRadAn=         5 IDoV= 1 UseB2=F ITyADJ=14
 ICtDFT=  3500011 ScaDFX=  1.000000  1.000000  1.000000  1.000000
 FoFCou: FMM=F IPFlag=           0 FMFlag=      100000 FMFlg1=           0
         NFxFlg=           0 DoJE=T BraDBF=F KetDBF=T FulRan=T
         wScrn=  0.000000 ICntrl=       500 IOpCl=  0 I1Cent=   200000004 NGrid=           0
         NMat0=    1 NMatS0=      1 NMatT0=    0 NMatD0=    1 NMtDS0=    0 NMtDT0=    0
 Petite list used in FoFCou.
 Initial guess orbital symmetries:
       Occupied  (A1) (B2) (A1) (A1) (A1) (A1) (B2) (A1) (B2) (A1)
                 (B1) (A1) (A2) (B2) (B1) (B2)
       Virtual   (B1) (A1) (B2) (A1) (B1) (B2) (A1) (A2) (A1) (B2)
                 (A2) (A1) (B1) (A1) (B2) (B1) (B2) (A1) (B1) (B2)
                 (A1) (A2) (B2) (B2) (A1) (A1) (A1) (B1) (A1) (B2)
                 (A2) (B2) (B1) (A1) (B2) (A1) (A2) (B1) (B2) (B2)
                 (A1) (B1) (A1) (A2) (A2) (A1) (B1) (B2) (A2) (B1)
                 (A1) (B2) (A1) (B1) (A1) (A1) (B2) (B1) (B2) (A2)
                 (A1) (B2) (A2) (B1) (A1) (B2) (A1) (B2) (A2) (A1)
                 (B1) (B2) (A1) (B2) (A2) (A1) (B1) (A1) (B2) (A1)
                 (A1) (B2) (B1) (B2) (A2) (A1) (B1) (B2) (A1) (B2)
                 (B1) (A2) (A1) (B2) (B1) (A2) (A1) (B1) (A2) (B2)
                 (A1) (B2) (B1) (A1) (B2) (A2) (A1) (A2) (B1) (B2)
                 (A1) (B1) (B1) (A2) (A1) (B2) (B1) (B2) (A2) (A1)
                 (A1) (B2) (B1) (A2) (A1) (A2) (B1) (B2) (A1) (B1)
                 (B2) (B2) (A1) (A2) (A1) (A2) (B1) (B2) (A1) (B1)
                 (A2) (A1) (B2) (A1) (B1) (B2) (A2) (A1) (B1) (B2)
                 (B2) (A1) (A1) (A2) (B2) (B1) (B2) (A1) (A1) (A2)
                 (B1) (B2) (A1) (B2) (A2) (B1) (B1) (A1) (A2) (A1)
                 (B2) (B2) (A2) (B1) (A1) (B2) (A1) (A2) (B1) (A2)
                 (A1) (A1) (B2) (B2) (B1) (A1) (B2) (A1)
 The electronic state of the initial guess is 1-A1.
 Keep R1 ints in memory in symmetry-blocked form, NReq=273614721.
 Requested convergence on RMS density matrix=1.00D-08 within 128 cycles.
 Requested convergence on MAX density matrix=1.00D-06.
 Requested convergence on             energy=1.00D-06.
 No special actions if energy rises.
 Integral accuracy reduced to 1.0D-05 until final iterations.
 Initial convergence to 1.0D-05 achieved.  Increase integral accuracy.
 SCF Done:  E(RB3LYP) =  -193.240258498     A.U. after   12 cycles
            NFock= 12  Conv=0.76D-08     -V/T= 2.0038

 **********************************************************************

            Population analysis using the SCF Density.

 **********************************************************************

 Orbital symmetries:
       Occupied  (A1) (A1) (B2) (A1) (A1) (A1) (B2) (A1) (B2) (B1)
                 (A1) (A2) (A1) (B2) (B1) (B2)
       Virtual   (B1) (A1) (B2) (B1) (A1) (B2) (A1) (A2) (A1) (B2)
                 (A1) (A2) (B1) (B2) (B1) (A1) (B2) (A1) (B2) (B1)
                 (A1) (B2) (A2) (A1) (A1) (B2) (B1) (A1) (B2) (A1)
                 (B2) (B1) (A2) (A1) (B2) (A1) (A2) (B1) (B2) (B1)
                 (B2) (A2) (A1) (A1) (A2) (B1) (B2) (A1) (A2) (B1)
                 (A1) (B2) (A1) (B1) (A1) (A1) (B2) (B1) (B2) (A2)
                 (A1) (A2) (B2) (B1) (B2) (A1) (A1) (A2) (B2) (A1)
                 (B1) (B2) (A1) (B2) (A2) (A1) (B1) (A1) (B2) (A1)
                 (A1) (B2) (B1) (B2) (A2) (A1) (B1) (B2) (A1) (B2)
                 (B1) (A2) (A1) (B2) (B1) (A2) (A1) (B1) (A2) (A1)
                 (B2) (B2) (B1) (A1) (B2) (A2) (A1) (A2) (B1) (B2)
                 (A1) (B1) (A2) (B1) (A1) (B2) (B1) (B2) (A2) (A1)
                 (B1) (A1) (B2) (A2) (A1) (B1) (B2) (A1) (A2) (B2)
                 (B1) (B2) (A1) (A2) (A1) (B1) (A2) (A1) (B2) (B1)
                 (A2) (B2) (A1) (A1) (B1) (A2) (B2) (A1) (B1) (B2)
                 (B2) (A1) (A1) (A2) (B2) (B1) (B2) (A1) (A1) (A2)
                 (B1) (B2) (A1) (B2) (A2) (B1) (B1) (A1) (A2) (A1)
                 (B2) (B2) (B1) (A2) (A1) (B2) (A2) (A1) (B1) (A1)
                 (A2) (B2) (A1) (B2) (B1) (A1) (B2) (A1)
 The electronic state is 1-A1.
 Alpha  occ. eigenvalues --  -19.11524 -10.26771 -10.17993 -10.17992  -1.04908
 Alpha  occ. eigenvalues --   -0.77660  -0.71818  -0.53952  -0.46933  -0.46869
 Alpha  occ. eigenvalues --   -0.45946  -0.41150  -0.40462  -0.38805  -0.36049
 Alpha  occ. eigenvalues --   -0.25831
 Alpha virt. eigenvalues --   -0.02567   0.00358   0.04676   0.06064   0.06837
 Alpha virt. eigenvalues --    0.09104   0.10072   0.10100   0.12907   0.16344
 Alpha virt. eigenvalues --    0.17112   0.17234   0.18002   0.24270   0.24337
 Alpha virt. eigenvalues --    0.27179   0.30814   0.31029   0.33314   0.33522
 Alpha virt. eigenvalues --    0.35044   0.35054   0.35094   0.36990   0.38621
 Alpha virt. eigenvalues --    0.41032   0.46645   0.49820   0.53205   0.53277
 Alpha virt. eigenvalues --    0.64943   0.66134   0.67528   0.76218   0.77361
 Alpha virt. eigenvalues --    0.82931   0.91182   0.92280   0.93833   0.95763
 Alpha virt. eigenvalues --    0.95878   0.96600   0.97732   0.99735   1.01773
 Alpha virt. eigenvalues --    1.05830   1.06700   1.06802   1.11870   1.14269
 Alpha virt. eigenvalues --    1.18429   1.21586   1.21842   1.23053   1.23859
 Alpha virt. eigenvalues --    1.28956   1.35632   1.35915   1.43886   1.48674
 Alpha virt. eigenvalues --    1.48794   1.52679   1.53113   1.62675   1.63251
 Alpha virt. eigenvalues --    1.64119   1.64910   1.73357   1.75008   1.79183
 Alpha virt. eigenvalues --    1.80139   1.86785   1.87618   1.93511   1.94603
 Alpha virt. eigenvalues --    1.97425   2.05045   2.06577   2.21992   2.23721
 Alpha virt. eigenvalues --    2.27778   2.31742   2.44364   2.47720   2.49916
 Alpha virt. eigenvalues --    2.60093   2.66162   2.69894   2.98775   3.00430
 Alpha virt. eigenvalues --    3.09241   3.11476   3.14311   3.19052   3.26554
 Alpha virt. eigenvalues --    3.27294   3.30837   3.36763   3.36914   3.37611
 Alpha virt. eigenvalues --    3.38550   3.41225   3.55639   3.58788   3.67113
 Alpha virt. eigenvalues --    3.68576   3.78616   3.80085   3.80568   3.81982
 Alpha virt. eigenvalues --    3.82595   3.82868   3.83431   3.84100   3.94562
 Alpha virt. eigenvalues --    3.96577   4.00810   4.02872   4.09343   4.11880
 Alpha virt. eigenvalues --    4.15461   4.16625   4.19064   4.19940   4.25562
 Alpha virt. eigenvalues --    4.29003   4.29504   4.30383   4.31671   4.38117
 Alpha virt. eigenvalues --    4.40066   4.48518   4.50501   4.51165   4.53266
 Alpha virt. eigenvalues --    4.54118   4.54341   4.59303   4.59771   4.61284
 Alpha virt. eigenvalues --    4.61953   4.66431   4.66818   4.71217   4.71675
 Alpha virt. eigenvalues --    4.78841   4.79131   4.81303   4.83540   4.87076
 Alpha virt. eigenvalues --    4.91398   4.95192   5.03774   5.04208   5.09680
 Alpha virt. eigenvalues --    5.15954   5.18878   5.33685   5.34751   5.35193
 Alpha virt. eigenvalues --    5.42267   5.49490   5.60270   5.66407   5.70107
 Alpha virt. eigenvalues --    5.76358   5.81636   5.82634   5.82965   5.83941
 Alpha virt. eigenvalues --    5.84097   5.88292   5.89021   5.89469   5.91810
 Alpha virt. eigenvalues --    5.93347   6.09883   6.10170   6.12963   6.14981
 Alpha virt. eigenvalues --    6.15796   6.18606   6.21355   6.26518   6.49320
 Alpha virt. eigenvalues --    6.62605   6.80839   7.32991
          Condensed to atoms (all electrons):
               1          2          3          4          5          6
     1  C    4.659424   0.614495   0.305830   0.305830  -0.037301  -0.037301
     2  O    0.614495   7.968532  -0.107919  -0.107919   0.010284   0.010284
     3  C    0.305830  -0.107919   4.769177  -0.135515   0.415378   0.011589
     4  C    0.305830  -0.107919  -0.135515   4.769177   0.011589   0.415378
     5  H   -0.037301   0.010284   0.415378   0.011589   0.568605  -0.000757
     6  H   -0.037301   0.010284   0.011589   0.415378  -0.000757   0.568605
     7  H   -0.017312   0.001227   0.396264   0.003440  -0.015252  -0.000311
     8  H   -0.017312   0.001227   0.396264   0.003440  -0.015252  -0.000311
     9  H   -0.017312   0.001227   0.003440   0.396264  -0.000311  -0.015252
    10  H   -0.017312   0.001227   0.003440   0.396264  -0.000311  -0.015252
               7          8          9         10
     1  C   -0.017312  -0.017312  -0.017312  -0.017312
     2  O    0.001227   0.001227   0.001227   0.001227
     3  C    0.396264   0.396264   0.003440   0.003440
     4  C    0.003440   0.003440   0.396264   0.396264
     5  H   -0.015252  -0.015252  -0.000311  -0.000311
     6  H   -0.000311  -0.000311  -0.015252  -0.015252
     7  H    0.631975  -0.031304  -0.000651   0.001016
     8  H   -0.031304   0.631975   0.001016  -0.000651
     9  H   -0.000651   0.001016   0.631975  -0.031304
    10  H    0.001016  -0.000651  -0.031304   0.631975
 Mulliken charges:
               1
     1  C    0.258272
     2  O   -0.392665
     3  C   -0.057948
     4  C   -0.057948
     5  H    0.063328
     6  H    0.063328
     7  H    0.030908
     8  H    0.030908
     9  H    0.030908
    10  H    0.030908
 Sum of Mulliken charges =  -0.00000
 Mulliken charges with hydrogens summed into heavy atoms:
               1
     1  C    0.258272
     2  O   -0.392665
     3  C    0.067196
     4  C    0.067196
 Electronic spatial extent (au):  <R**2>=            292.8492
 Charge=              0.0000 electrons
 Dipole moment (field-independent basis, Debye):
    X=             -0.0000    Y=              0.0000    Z=             -3.0812  Tot=              3.0812
 Quadrupole moment (field-independent basis, Debye-Ang):
   XX=            -24.3972   YY=            -23.8926   ZZ=            -29.3818
   XY=             -0.0000   XZ=              0.0000   YZ=             -0.0000
 Traceless Quadrupole moment (field-independent basis, Debye-Ang):
   XX=              1.4933   YY=              1.9979   ZZ=             -3.4913
   XY=             -0.0000   XZ=              0.0000   YZ=             -0.0000
 Octapole moment (field-independent basis, Debye-Ang**2):
  XXX=              0.0000  YYY=             -0.0000  ZZZ=             -3.2501  XYY=              0.0000
  XXY=              0.0000  XXZ=             -0.1608  XZZ=              0.0000  YZZ=             -0.0000
  YYZ=              1.8984  XYZ=              0.0000
 Hexadecapole moment (field-independent basis, Debye-Ang**3):
 XXXX=            -38.2038 YYYY=           -200.1449 ZZZZ=           -158.0293 XXXY=             -0.0000
 XXXZ=             -0.0000 YYYX=             -0.0000 YYYZ=             -0.0000 ZZZX=             -0.0000
 ZZZY=              0.0000 XXYY=            -40.8599 XXZZ=            -28.2434 YYZZ=            -59.5879
 XXYZ=             -0.0000 YYXZ=             -0.0000 ZZXY=             -0.0000
 N-N= 1.195368579350D+02 E-N=-6.902024519943D+02  KE= 1.925171620386D+02
 Symmetry A1   KE= 1.404660819217D+02
 Symmetry A2   KE= 2.061214845425D+00
 Symmetry B1   KE= 5.673846312696D+00
 Symmetry B2   KE= 4.431601895880D+01
 Calling FoFJK, ICntrl=      2127 FMM=F ISym2X=1 I1Cent= 0 IOpClX= 0 NMat=1 NMatS=1 NMatT=0.
 ***** Axes restored to original set *****
 -------------------------------------------------------------------
 Center     Atomic                   Forces (Hartrees/Bohr)
 Number     Number              X              Y              Z
 -------------------------------------------------------------------
      1        6          -0.000000000    0.000000000    0.000021588
      2        8          -0.000000000   -0.000000000   -0.000013760
      3        6           0.000000000   -0.000005311   -0.000018769
      4        6           0.000000000    0.000005311   -0.000018769
      5        1           0.000000000    0.000007479    0.000006669
      6        1           0.000000000   -0.000007479    0.000006669
      7        1          -0.000008217   -0.000001393    0.000004093
      8        1           0.000008217   -0.000001393    0.000004093
      9        1           0.000008217    0.000001393    0.000004093
     10        1          -0.000008217    0.000001393    0.000004093
 -------------------------------------------------------------------
 Cartesian Forces:  Max     0.000021588 RMS     0.000008087

 GradGradGradGradGradGradGradGradGradGradGradGradGradGradGradGradGradGrad
 Berny optimization.
 FormGI is forming the generalized inverse of G from B-inverse, IUseBI=4.
 Internal  Forces:  Max     0.000013760 RMS     0.000005051
 Search for a local minimum.
 Step number   1 out of a maximum of   46
 All quantities printed in internal units (Hartrees-Bohrs-Radians)
 Mixed Optimization -- En-DIIS/RFO-DIIS
 Second derivative matrix not updated -- first step.
 ITU=  0
     Eigenvalues ---    0.00579   0.00579   0.00579   0.07218   0.07218
     Eigenvalues ---    0.07360   0.07360   0.16000   0.16000   0.16000
     Eigenvalues ---    0.16000   0.16000   0.16000   0.25000   0.25000
     Eigenvalues ---    0.30936   0.30936   0.34570   0.34570   0.34570
     Eigenvalues ---    0.34570   0.35225   0.35225   1.00374
 RFO step:  Lambda= 0.00000000D+00 EMin= 5.78589057D-03
 Linear search not attempted -- first point.
 Iteration  1 RMS(Cart)=  0.00003114 RMS(Int)=  0.00000000
 Iteration  2 RMS(Cart)=  0.00000000 RMS(Int)=  0.00000000
 ClnCor:  largest displacement from symmetrization is 4.64D-12 for atom     5.
 Variable       Old X    -DE/DX   Delta X   Delta X   Delta X     New X
                                 (Linear)    (Quad)   (Total)
    R1        2.28489  -0.00001   0.00000  -0.00001  -0.00001   2.28488
    R2        2.86135   0.00000   0.00000   0.00000   0.00000   2.86136
    R3        2.86135   0.00000   0.00000   0.00000   0.00000   2.86136
    R4        2.05312   0.00001   0.00000   0.00003   0.00003   2.05315
    R5        2.06379   0.00000   0.00000   0.00001   0.00001   2.06380
    R6        2.06379   0.00000   0.00000   0.00001   0.00001   2.06380
    R7        2.05312   0.00001   0.00000   0.00003   0.00003   2.05315
    R8        2.06379   0.00000   0.00000   0.00001   0.00001   2.06380
    R9        2.06379   0.00000   0.00000   0.00001   0.00001   2.06380
    A1        2.12474   0.00000   0.00000   0.00002   0.00002   2.12476
    A2        2.12474   0.00000   0.00000   0.00002   0.00002   2.12476
    A3        2.03370  -0.00001   0.00000  -0.00003  -0.00003   2.03367
    A4        1.92222  -0.00000   0.00000  -0.00002  -0.00002   1.92221
    A5        1.92355  -0.00001   0.00000  -0.00003  -0.00003   1.92352
    A6        1.92355  -0.00001   0.00000  -0.00003  -0.00003   1.92352
    A7        1.91484   0.00000   0.00000  -0.00001  -0.00001   1.91483
    A8        1.91484   0.00000   0.00000  -0.00001  -0.00001   1.91483
    A9        1.86403   0.00001   0.00000   0.00009   0.00009   1.86411
   A10        1.92222  -0.00000   0.00000  -0.00002  -0.00002   1.92221
   A11        1.92355  -0.00001   0.00000  -0.00003  -0.00003   1.92352
   A12        1.92355  -0.00001   0.00000  -0.00003  -0.00003   1.92352
   A13        1.91484   0.00000   0.00000  -0.00001  -0.00001   1.91483
   A14        1.91484   0.00000   0.00000  -0.00001  -0.00001   1.91483
   A15        1.86403   0.00001   0.00000   0.00009   0.00009   1.86411
    D1        0.00000  -0.00000   0.00000   0.00000  -0.00000   0.00000
    D2       -2.11508   0.00000   0.00000   0.00004   0.00004  -2.11504
    D3        2.11508  -0.00000   0.00000  -0.00004  -0.00004   2.11504
    D4        3.14159  -0.00000   0.00000   0.00000   0.00000   3.14159
    D5        1.02651   0.00000   0.00000   0.00004   0.00004   1.02655
    D6       -1.02651  -0.00000   0.00000  -0.00004  -0.00004  -1.02655
    D7        0.00000  -0.00000   0.00000  -0.00000   0.00000   0.00000
    D8       -2.11508   0.00000   0.00000   0.00004   0.00004  -2.11504
    D9        2.11508  -0.00000   0.00000  -0.00004  -0.00004   2.11504
   D10        3.14159  -0.00000   0.00000  -0.00000   0.00000   3.14159
   D11        1.02651   0.00000   0.00000   0.00004   0.00004   1.02655
   D12       -1.02651  -0.00000   0.00000  -0.00004  -0.00004  -1.02655
         Item               Value     Threshold  Converged?
 Maximum Force            0.000014     0.000450     YES
 RMS     Force            0.000005     0.000300     YES
 Maximum Displacement     0.000063     0.001800     YES
 RMS     Displacement     0.000031     0.001200     YES
 Predicted change in Energy=-2.202859D-09
 Optimization completed.
    -- Stationary point found.
                           ----------------------------
                           !   Optimized Parameters   !
                           ! (Angstroms and Degrees)  !
 --------------------------                            --------------------------
 ! Name  Definition              Value          Derivative Info.                !
 --------------------------------------------------------------------------------
 ! R1    R(1,2)                  1.2091         -DE/DX =    0.0                 !
 ! R2    R(1,3)                  1.5142         -DE/DX =    0.0                 !
 ! R3    R(1,4)                  1.5142         -DE/DX =    0.0                 !
 ! R4    R(3,5)                  1.0865         -DE/DX =    0.0                 !
 ! R5    R(3,7)                  1.0921         -DE/DX =    0.0                 !
 ! R6    R(3,8)                  1.0921         -DE/DX =    0.0                 !
 ! R7    R(4,6)                  1.0865         -DE/DX =    0.0                 !
 ! R8    R(4,9)                  1.0921         -DE/DX =    0.0                 !
 ! R9    R(4,10)                 1.0921         -DE/DX =    0.0                 !
 ! A1    A(2,1,3)              121.7387         -DE/DX =    0.0                 !
 ! A2    A(2,1,4)              121.7387         -DE/DX =    0.0                 !
 ! A3    A(3,1,4)              116.5225         -DE/DX =    0.0                 !
 ! A4    A(1,3,5)              110.1352         -DE/DX =    0.0                 !
 ! A5    A(1,3,7)              110.2113         -DE/DX =    0.0                 !
 ! A6    A(1,3,8)              110.2113         -DE/DX =    0.0                 !
 ! A7    A(5,3,7)              109.7121         -DE/DX =    0.0                 !
 ! A8    A(5,3,8)              109.7121         -DE/DX =    0.0                 !
 ! A9    A(7,3,8)              106.8008         -DE/DX =    0.0                 !
 ! A10   A(1,4,6)              110.1352         -DE/DX =    0.0                 !
 ! A11   A(1,4,9)              110.2113         -DE/DX =    0.0                 !
 ! A12   A(1,4,10)             110.2113         -DE/DX =    0.0                 !
 ! A13   A(6,4,9)              109.7121         -DE/DX =    0.0                 !
 ! A14   A(6,4,10)             109.7121         -DE/DX =    0.0                 !
 ! A15   A(9,4,10)             106.8008         -DE/DX =    0.0                 !
 ! D1    D(2,1,3,5)              0.0            -DE/DX =    0.0                 !
 ! D2    D(2,1,3,7)           -121.1851         -DE/DX =    0.0                 !
 ! D3    D(2,1,3,8)            121.1851         -DE/DX =    0.0                 !
 ! D4    D(4,1,3,5)            180.0            -DE/DX =    0.0                 !
 ! D5    D(4,1,3,7)             58.8149         -DE/DX =    0.0                 !
 ! D6    D(4,1,3,8)            -58.8149         -DE/DX =    0.0                 !
 ! D7    D(2,1,4,6)              0.0            -DE/DX =    0.0                 !
 ! D8    D(2,1,4,9)           -121.1851         -DE/DX =    0.0                 !
 ! D9    D(2,1,4,10)           121.1851         -DE/DX =    0.0                 !
 ! D10   D(3,1,4,6)            180.0            -DE/DX =    0.0                 !
 ! D11   D(3,1,4,9)             58.8149         -DE/DX =    0.0                 !
 ! D12   D(3,1,4,10)           -58.8149         -DE/DX =    0.0                 !
 --------------------------------------------------------------------------------
 GradGradGradGradGradGradGradGradGradGradGradGradGradGradGradGradGradGrad

                          Input orientation:                          
 ---------------------------------------------------------------------
 Center     Atomic      Atomic             Coordinates (Angstroms)
 Number     Number       Type             X           Y           Z
 ---------------------------------------------------------------------
      1          6           0       -0.000000   -0.000000    0.185066
      2          8           0       -0.000000   -0.000000    1.394180
      3          6           0        0.000000    1.287729   -0.611455
      4          6           0       -0.000000   -1.287729   -0.611455
      5          1           0        0.000000    2.142400    0.059320
      6          1           0       -0.000000   -2.142400    0.059320
      7          1           0       -0.876769    1.329449   -1.261254
      8          1           0        0.876769    1.329449   -1.261254
      9          1           0        0.876769   -1.329449   -1.261254
     10          1           0       -0.876769   -1.329449   -1.261254
 ---------------------------------------------------------------------
                    Distance matrix (angstroms):
                    1          2          3          4          5
     1  C    0.000000
     2  O    1.209114   0.000000
     3  C    1.514164   2.383447   0.000000
     4  C    1.514164   2.383447   2.575458   0.000000
     5  H    2.146087   2.524228   1.086463   3.495100   0.000000
     6  H    2.146087   2.524228   3.495100   1.086463   4.284800
     7  H    2.151279   3.096367   1.092110   2.835592   1.781440
     8  H    2.151279   3.096367   1.092110   2.835592   1.781440
     9  H    2.151279   3.096367   2.835592   1.092110   3.816592
    10  H    2.151279   3.096367   2.835592   1.092110   3.816592
                    6          7          8          9         10
     6  H    0.000000
     7  H    3.816592   0.000000
     8  H    3.816592   1.753538   0.000000
     9  H    1.781440   3.185064   2.658898   0.000000
    10  H    1.781440   2.658898   3.185064   1.753538   0.000000
 Stoichiometry    C3H6O
 Framework group  C2V[C2(CO),SGV(C2H2),X(H4)]
 Deg. of freedom     8
 Full point group                 C2V     NOp   4
 Largest Abelian subgroup         C2V     NOp   4
 Largest concise Abelian subgroup C2V     NOp   4
                         Standard orientation:                         
 ---------------------------------------------------------------------
 Center     Atomic      Atomic             Coordinates (Angstroms)
 Number     Number       Type             X           Y           Z
 ---------------------------------------------------------------------
      1          6           0       -0.000000   -0.000000    0.185066
      2          8           0       -0.000000   -0.000000    1.394180
      3          6           0        0.000000    1.287729   -0.611455
      4          6           0       -0.000000   -1.287729   -0.611455
      5          1           0       -0.000000    2.142400    0.059320
      6          1           0       -0.000000   -2.142400    0.059320
      7          1           0       -0.876769    1.329449   -1.261254
      8          1           0        0.876769    1.329449   -1.261254
      9          1           0        0.876769   -1.329449   -1.261254
     10          1           0       -0.876769   -1.329449   -1.261254
 ---------------------------------------------------------------------
 Rotational constants (GHZ):          10.1927027           8.5262208           4.9229371
 1\1\GINC-GAMBA\FOpt\RB3LYP\Gen\C3H6O1\IRIKURA\28-Sep-2023\0\\# b3lyp/g
 en opt freq CPHF(Grid=OneStep)\\acetone, B3LYP/pcseg-2\\0,1\C,0.,0.,0.
 185066\O,0.,0.,1.39418\C,0.,1.287729,-0.611455\C,0.,-1.287729,-0.61145
 5\H,0.,2.1424,0.05932\H,0.,-2.1424,0.05932\H,-0.876769,1.329449,-1.261
 254\H,0.876769,1.329449,-1.261254\H,0.876769,-1.329449,-1.261254\H,-0.
 876769,-1.329449,-1.261254\\Version=ES64L-G16RevB.01\State=1-A1\HF=-19
 3.2402585\RMSD=7.599e-09\RMSF=8.087e-06\Dipole=0.,0.,-1.2122345\Quadru
 pole=1.1102631,1.4854246,-2.5956877,0.,0.,0.\PG=C02V [C2(C1O1),SGV(C2H
 2),X(H4)]\\@


 A SCIENTIST IS SOMEONE WHOSE CURIOSITY SURVIVES
 EDUCATION'S ASSAULTS ON IT.
                          - SIR HERMANN BONDI
 Job cpu time:       0 days  0 hours  0 minutes 55.2 seconds.
 Elapsed time:       0 days  0 hours  0 minutes 14.1 seconds.
 File lengths (MBytes):  RWF=     23 Int=      0 D2E=      0 Chk=      4 Scr=      1
 Normal termination of Gaussian 16 at Thu Sep 28 15:35:44 2023.
 Link1:  Proceeding to internal job step number  2.
 ------------------------------------------------------------------
 #N Geom=AllCheck Guess=TCheck SCRF=Check GenChk RB3LYP/ChkBas Freq
 ------------------------------------------------------------------
 1/10=4,29=7,30=1,38=1,40=1/1,3;
 2/12=2,40=1/2;
 3/5=7,6=2,11=2,14=-4,25=1,30=1,67=1,70=2,71=2,74=-5,82=7,116=1,140=1/1,2,3;
 4/5=101/1;
 5/5=2,38=6,98=1/2;
 8/6=4,10=90,11=11/1;
 11/6=1,8=1,9=11,15=111,16=1/1,2,10;
 10/6=1,60=-420/2;
 6/7=2,8=2,9=2,10=2,28=1/1;
 7/8=1,10=1,25=1/1,2,3,16;
 1/10=4,30=1/3;
 99//99;
 Structure from the checkpoint file:  "acetone.chk"
 ----------------------
 acetone, B3LYP/pcseg-2
 ----------------------
 Charge =  0 Multiplicity = 1
 Redundant internal coordinates found in file.  (old form).
 C,0,0.,0.,0.185066
 O,0,0.,0.,1.39418
 C,0,0.,1.287729,-0.611455
 C,0,0.,-1.287729,-0.611455
 H,0,0.,2.1424,0.05932
 H,0,0.,-2.1424,0.05932
 H,0,-0.876769,1.329449,-1.261254
 H,0,0.876769,1.329449,-1.261254
 H,0,0.876769,-1.329449,-1.261254
 H,0,-0.876769,-1.329449,-1.261254
 Recover connectivity data from disk.

 GradGradGradGradGradGradGradGradGradGradGradGradGradGradGradGradGradGrad
 Berny optimization.
 Initialization pass.
                           ----------------------------
                           !    Initial Parameters    !
                           ! (Angstroms and Degrees)  !
 --------------------------                            --------------------------
 ! Name  Definition              Value          Derivative Info.                !
 --------------------------------------------------------------------------------
 ! R1    R(1,2)                  1.2091         calculate D2E/DX2 analytically  !
 ! R2    R(1,3)                  1.5142         calculate D2E/DX2 analytically  !
 ! R3    R(1,4)                  1.5142         calculate D2E/DX2 analytically  !
 ! R4    R(3,5)                  1.0865         calculate D2E/DX2 analytically  !
 ! R5    R(3,7)                  1.0921         calculate D2E/DX2 analytically  !
 ! R6    R(3,8)                  1.0921         calculate D2E/DX2 analytically  !
 ! R7    R(4,6)                  1.0865         calculate D2E/DX2 analytically  !
 ! R8    R(4,9)                  1.0921         calculate D2E/DX2 analytically  !
 ! R9    R(4,10)                 1.0921         calculate D2E/DX2 analytically  !
 ! A1    A(2,1,3)              121.7387         calculate D2E/DX2 analytically  !
 ! A2    A(2,1,4)              121.7387         calculate D2E/DX2 analytically  !
 ! A3    A(3,1,4)              116.5225         calculate D2E/DX2 analytically  !
 ! A4    A(1,3,5)              110.1352         calculate D2E/DX2 analytically  !
 ! A5    A(1,3,7)              110.2113         calculate D2E/DX2 analytically  !
 ! A6    A(1,3,8)              110.2113         calculate D2E/DX2 analytically  !
 ! A7    A(5,3,7)              109.7121         calculate D2E/DX2 analytically  !
 ! A8    A(5,3,8)              109.7121         calculate D2E/DX2 analytically  !
 ! A9    A(7,3,8)              106.8008         calculate D2E/DX2 analytically  !
 ! A10   A(1,4,6)              110.1352         calculate D2E/DX2 analytically  !
 ! A11   A(1,4,9)              110.2113         calculate D2E/DX2 analytically  !
 ! A12   A(1,4,10)             110.2113         calculate D2E/DX2 analytically  !
 ! A13   A(6,4,9)              109.7121         calculate D2E/DX2 analytically  !
 ! A14   A(6,4,10)             109.7121         calculate D2E/DX2 analytically  !
 ! A15   A(9,4,10)             106.8008         calculate D2E/DX2 analytically  !
 ! D1    D(2,1,3,5)              0.0            calculate D2E/DX2 analytically  !
 ! D2    D(2,1,3,7)           -121.1851         calculate D2E/DX2 analytically  !
 ! D3    D(2,1,3,8)            121.1851         calculate D2E/DX2 analytically  !
 ! D4    D(4,1,3,5)            180.0            calculate D2E/DX2 analytically  !
 ! D5    D(4,1,3,7)             58.8149         calculate D2E/DX2 analytically  !
 ! D6    D(4,1,3,8)            -58.8149         calculate D2E/DX2 analytically  !
 ! D7    D(2,1,4,6)              0.0            calculate D2E/DX2 analytically  !
 ! D8    D(2,1,4,9)           -121.1851         calculate D2E/DX2 analytically  !
 ! D9    D(2,1,4,10)           121.1851         calculate D2E/DX2 analytically  !
 ! D10   D(3,1,4,6)            180.0            calculate D2E/DX2 analytically  !
 ! D11   D(3,1,4,9)             58.8149         calculate D2E/DX2 analytically  !
 ! D12   D(3,1,4,10)           -58.8149         calculate D2E/DX2 analytically  !
 --------------------------------------------------------------------------------
 Trust Radius=3.00D-01 FncErr=1.00D-07 GrdErr=1.00D-07 EigMax=2.50D+02 EigMin=1.00D-04
 Number of steps in this run=      2 maximum allowed number of steps=      2.
 GradGradGradGradGradGradGradGradGradGradGradGradGradGradGradGradGradGrad

                          Input orientation:                          
 ---------------------------------------------------------------------
 Center     Atomic      Atomic             Coordinates (Angstroms)
 Number     Number       Type             X           Y           Z
 ---------------------------------------------------------------------
      1          6           0       -0.000000   -0.000000    0.185066
      2          8           0       -0.000000    0.000000    1.394180
      3          6           0        0.000000    1.287729   -0.611455
      4          6           0       -0.000000   -1.287729   -0.611455
      5          1           0        0.000000    2.142400    0.059320
      6          1           0       -0.000000   -2.142400    0.059320
      7          1           0       -0.876769    1.329449   -1.261254
      8          1           0        0.876769    1.329449   -1.261254
      9          1           0        0.876769   -1.329449   -1.261254
     10          1           0       -0.876769   -1.329449   -1.261254
 ---------------------------------------------------------------------
                    Distance matrix (angstroms):
                    1          2          3          4          5
     1  C    0.000000
     2  O    1.209114   0.000000
     3  C    1.514164   2.383447   0.000000
     4  C    1.514164   2.383447   2.575458   0.000000
     5  H    2.146087   2.524228   1.086463   3.495100   0.000000
     6  H    2.146087   2.524228   3.495100   1.086463   4.284800
     7  H    2.151279   3.096367   1.092110   2.835592   1.781440
     8  H    2.151279   3.096367   1.092110   2.835592   1.781440
     9  H    2.151279   3.096367   2.835592   1.092110   3.816592
    10  H    2.151279   3.096367   2.835592   1.092110   3.816592
                    6          7          8          9         10
     6  H    0.000000
     7  H    3.816592   0.000000
     8  H    3.816592   1.753538   0.000000
     9  H    1.781440   3.185064   2.658898   0.000000
    10  H    1.781440   2.658898   3.185064   1.753538   0.000000
 Stoichiometry    C3H6O
 Framework group  C2V[C2(CO),SGV(C2H2),X(H4)]
 Deg. of freedom     8
 Full point group                 C2V     NOp   4
 Largest Abelian subgroup         C2V     NOp   4
 Largest concise Abelian subgroup C2V     NOp   4
                         Standard orientation:                         
 ---------------------------------------------------------------------
 Center     Atomic      Atomic             Coordinates (Angstroms)
 Number     Number       Type             X           Y           Z
 ---------------------------------------------------------------------
      1          6           0        0.000000   -0.000000    0.185066
      2          8           0        0.000000   -0.000000    1.394180
      3          6           0        0.000000    1.287729   -0.611455
      4          6           0       -0.000000   -1.287729   -0.611455
      5          1           0        0.000000    2.142400    0.059320
      6          1           0       -0.000000   -2.142400    0.059320
      7          1           0       -0.876769    1.329449   -1.261254
      8          1           0        0.876769    1.329449   -1.261254
      9          1           0        0.876769   -1.329449   -1.261254
     10          1           0       -0.876769   -1.329449   -1.261254
 ---------------------------------------------------------------------
 Rotational constants (GHZ):          10.1927027           8.5262208           4.9229371
 Basis read from chk: "acetone.chk" (5D, 7F)
 There are    82 symmetry adapted cartesian basis functions of A1  symmetry.
 There are    36 symmetry adapted cartesian basis functions of A2  symmetry.
 There are    46 symmetry adapted cartesian basis functions of B1  symmetry.
 There are    66 symmetry adapted cartesian basis functions of B2  symmetry.
 There are    70 symmetry adapted basis functions of A1  symmetry.
 There are    34 symmetry adapted basis functions of A2  symmetry.
 There are    42 symmetry adapted basis functions of B1  symmetry.
 There are    58 symmetry adapted basis functions of B2  symmetry.
   204 basis functions,   312 primitive gaussians,   230 cartesian basis functions
    16 alpha electrons       16 beta electrons
       nuclear repulsion energy       119.5368579350 Hartrees.
 NAtoms=   10 NActive=   10 NUniq=    5 SFac= 4.00D+00 NAtFMM=   60 NAOKFM=F Big=F
 Integral buffers will be    131072 words long.
 Raffenetti 2 integral format.
 Two-electron integral symmetry is turned on.
 One-electron integrals computed using PRISM.
 NBasis=   204 RedAO= T EigKep=  3.95D-04  NBF=    70    34    42    58
 NBsUse=   204 1.00D-06 EigRej= -1.00D+00 NBFU=    70    34    42    58
 Initial guess from the checkpoint file:  "acetone.chk"
 B after Tr=     0.000000    0.000000    0.000000
         Rot=    1.000000    0.000000    0.000000    0.000000 Ang=   0.00 deg.
 Initial guess orbital symmetries:
       Occupied  (A1) (A1) (B2) (A1) (A1) (A1) (B2) (A1) (B2) (B1)
                 (A1) (A2) (A1) (B2) (B1) (B2)
       Virtual   (B1) (A1) (B2) (B1) (A1) (B2) (A1) (A2) (A1) (B2)
                 (A1) (A2) (B1) (B2) (B1) (A1) (B2) (A1) (B2) (B1)
                 (A1) (B2) (A2) (A1) (A1) (B2) (B1) (A1) (B2) (A1)
                 (B2) (B1) (A2) (A1) (B2) (A1) (A2) (B1) (B2) (B1)
                 (B2) (A2) (A1) (A1) (A2) (B1) (B2) (A1) (A2) (B1)
                 (A1) (B2) (A1) (B1) (A1) (A1) (B2) (B1) (B2) (A2)
                 (A1) (A2) (B2) (B1) (B2) (A1) (A1) (A2) (B2) (A1)
                 (B1) (B2) (A1) (B2) (A2) (A1) (B1) (A1) (B2) (A1)
                 (A1) (B2) (B1) (B2) (A2) (A1) (B1) (B2) (A1) (B2)
                 (B1) (A2) (A1) (B2) (B1) (A2) (A1) (B1) (A2) (A1)
                 (B2) (B2) (B1) (A1) (B2) (A2) (A1) (A2) (B1) (B2)
                 (A1) (B1) (A2) (B1) (A1) (B2) (B1) (B2) (A2) (A1)
                 (B1) (A1) (B2) (A2) (A1) (B1) (B2) (A1) (A2) (B2)
                 (B1) (B2) (A1) (A2) (A1) (B1) (A2) (A1) (B2) (B1)
                 (A2) (B2) (A1) (A1) (B1) (A2) (B2) (A1) (B1) (B2)
                 (B2) (A1) (A1) (A2) (B2) (B1) (B2) (A1) (A1) (A2)
                 (B1) (B2) (A1) (B2) (A2) (B1) (B1) (A1) (A2) (A1)
                 (B2) (B2) (B1) (A2) (A1) (B2) (A2) (A1) (B1) (A1)
                 (A2) (B2) (A1) (B2) (B1) (A1) (B2) (A1)
 Keep R1 ints in memory in symmetry-blocked form, NReq=273614721.
 Requested convergence on RMS density matrix=1.00D-08 within 128 cycles.
 Requested convergence on MAX density matrix=1.00D-06.
 Requested convergence on             energy=1.00D-06.
 No special actions if energy rises.
 SCF Done:  E(RB3LYP) =  -193.240258498     A.U. after    1 cycles
            NFock=  1  Conv=0.27D-08     -V/T= 2.0038
 DoSCS=F DFT=T ScalE2(SS,OS)=  1.000000  1.000000
 Range of M.O.s used for correlation:     1   204
 NBasis=   204 NAE=    16 NBE=    16 NFC=     0 NFV=     0
 NROrb=    204 NOA=    16 NOB=    16 NVA=   188 NVB=   188

 **** Warning!!: The largest alpha MO coefficient is  0.18086861D+02

 Symmetrizing basis deriv contribution to polar:
 IMax=3 JMax=2 DiffMx= 0.00D+00
 G2DrvN: will do    11 centers at a time, making    1 passes.
 Calling FoFCou, ICntrl=  3107 FMM=F I1Cent=   0 AccDes= 0.00D+00.
 End of G2Drv F.D. properties file   721 does not exist.
 End of G2Drv F.D. properties file   722 does not exist.
 End of G2Drv F.D. properties file   788 does not exist.
          IDoAtm=1111111111
          Differentiating once with respect to electric field.
                with respect to dipole field.
          Differentiating once with respect to nuclear coordinates.
 Keep R1 ints in memory in symmetry-blocked form, NReq=273620900.
          There are    18 degrees of freedom in the 1st order CPHF.  IDoFFX=4 NUNeed=    18.
     18 vectors produced by pass  0 Test12= 1.67D-14 5.56D-09 XBig12= 3.68D+01 4.13D+00.
 AX will form    18 AO Fock derivatives at one time.
     18 vectors produced by pass  1 Test12= 1.67D-14 5.56D-09 XBig12= 1.23D+01 1.09D+00.
     18 vectors produced by pass  2 Test12= 1.67D-14 5.56D-09 XBig12= 1.09D-01 6.61D-02.
     18 vectors produced by pass  3 Test12= 1.67D-14 5.56D-09 XBig12= 9.65D-04 6.09D-03.
     18 vectors produced by pass  4 Test12= 1.67D-14 5.56D-09 XBig12= 3.02D-06 3.30D-04.
     17 vectors produced by pass  5 Test12= 1.67D-14 5.56D-09 XBig12= 5.27D-09 1.19D-05.
      6 vectors produced by pass  6 Test12= 1.67D-14 5.56D-09 XBig12= 1.18D-11 5.20D-07.
      3 vectors produced by pass  7 Test12= 1.67D-14 5.56D-09 XBig12= 1.76D-14 1.59D-08.
 InvSVY:  IOpt=1 It=  1 EMax= 6.22D-15
 Solved reduced A of dimension   116 with    18 vectors.
 Isotropic polarizability for W=    0.000000       40.59 Bohr**3.
 End of Minotr F.D. properties file   721 does not exist.
 End of Minotr F.D. properties file   722 does not exist.
 End of Minotr F.D. properties file   788 does not exist.

 **********************************************************************

            Population analysis using the SCF Density.

 **********************************************************************

 Orbital symmetries:
       Occupied  (A1) (A1) (B2) (A1) (A1) (A1) (B2) (A1) (B2) (B1)
                 (A1) (A2) (A1) (B2) (B1) (B2)
       Virtual   (B1) (A1) (B2) (B1) (A1) (B2) (A1) (A2) (A1) (B2)
                 (A1) (A2) (B1) (B2) (B1) (A1) (B2) (A1) (B2) (B1)
                 (A1) (B2) (A2) (A1) (A1) (B2) (B1) (A1) (B2) (A1)
                 (B2) (B1) (A2) (A1) (B2) (A1) (A2) (B1) (B2) (B1)
                 (B2) (A2) (A1) (A1) (A2) (B1) (B2) (A1) (A2) (B1)
                 (A1) (B2) (A1) (B1) (A1) (A1) (B2) (B1) (B2) (A2)
                 (A1) (A2) (B2) (B1) (B2) (A1) (A1) (A2) (B2) (A1)
                 (B1) (B2) (A1) (B2) (A2) (A1) (B1) (A1) (B2) (A1)
                 (A1) (B2) (B1) (B2) (A2) (A1) (B1) (B2) (A1) (B2)
                 (B1) (A2) (A1) (B2) (B1) (A2) (A1) (B1) (A2) (A1)
                 (B2) (B2) (B1) (A1) (B2) (A2) (A1) (A2) (B1) (B2)
                 (A1) (B1) (A2) (B1) (A1) (B2) (B1) (B2) (A2) (A1)
                 (B1) (A1) (B2) (A2) (A1) (B1) (B2) (A1) (A2) (B2)
                 (B1) (B2) (A1) (A2) (A1) (B1) (A2) (A1) (B2) (B1)
                 (A2) (B2) (A1) (A1) (B1) (A2) (B2) (A1) (B1) (B2)
                 (B2) (A1) (A1) (A2) (B2) (B1) (B2) (A1) (A1) (A2)
                 (B1) (B2) (A1) (B2) (A2) (B1) (B1) (A1) (A2) (A1)
                 (B2) (B2) (B1) (A2) (A1) (B2) (A2) (A1) (B1) (A1)
                 (A2) (B2) (A1) (B2) (B1) (A1) (B2) (A1)
 The electronic state is 1-A1.
 Alpha  occ. eigenvalues --  -19.11524 -10.26771 -10.17993 -10.17992  -1.04908
 Alpha  occ. eigenvalues --   -0.77660  -0.71818  -0.53952  -0.46933  -0.46869
 Alpha  occ. eigenvalues --   -0.45946  -0.41150  -0.40462  -0.38805  -0.36049
 Alpha  occ. eigenvalues --   -0.25831
 Alpha virt. eigenvalues --   -0.02567   0.00359   0.04676   0.06064   0.06837
 Alpha virt. eigenvalues --    0.09104   0.10072   0.10100   0.12907   0.16344
 Alpha virt. eigenvalues --    0.17112   0.17234   0.18002   0.24270   0.24337
 Alpha virt. eigenvalues --    0.27179   0.30814   0.31029   0.33314   0.33522
 Alpha virt. eigenvalues --    0.35044   0.35054   0.35094   0.36990   0.38621
 Alpha virt. eigenvalues --    0.41032   0.46645   0.49820   0.53205   0.53277
 Alpha virt. eigenvalues --    0.64943   0.66134   0.67528   0.76218   0.77361
 Alpha virt. eigenvalues --    0.82931   0.91182   0.92280   0.93833   0.95763
 Alpha virt. eigenvalues --    0.95878   0.96600   0.97732   0.99735   1.01773
 Alpha virt. eigenvalues --    1.05830   1.06700   1.06802   1.11870   1.14269
 Alpha virt. eigenvalues --    1.18429   1.21586   1.21842   1.23053   1.23859
 Alpha virt. eigenvalues --    1.28956   1.35632   1.35915   1.43886   1.48674
 Alpha virt. eigenvalues --    1.48794   1.52679   1.53113   1.62675   1.63251
 Alpha virt. eigenvalues --    1.64119   1.64910   1.73357   1.75008   1.79183
 Alpha virt. eigenvalues --    1.80139   1.86785   1.87618   1.93511   1.94603
 Alpha virt. eigenvalues --    1.97425   2.05045   2.06577   2.21992   2.23721
 Alpha virt. eigenvalues --    2.27778   2.31742   2.44364   2.47720   2.49916
 Alpha virt. eigenvalues --    2.60093   2.66162   2.69894   2.98775   3.00430
 Alpha virt. eigenvalues --    3.09241   3.11476   3.14311   3.19052   3.26554
 Alpha virt. eigenvalues --    3.27294   3.30837   3.36763   3.36914   3.37611
 Alpha virt. eigenvalues --    3.38550   3.41225   3.55639   3.58788   3.67113
 Alpha virt. eigenvalues --    3.68576   3.78616   3.80085   3.80568   3.81982
 Alpha virt. eigenvalues --    3.82595   3.82868   3.83431   3.84100   3.94562
 Alpha virt. eigenvalues --    3.96577   4.00810   4.02872   4.09343   4.11880
 Alpha virt. eigenvalues --    4.15461   4.16625   4.19064   4.19940   4.25562
 Alpha virt. eigenvalues --    4.29003   4.29504   4.30383   4.31672   4.38117
 Alpha virt. eigenvalues --    4.40066   4.48518   4.50501   4.51165   4.53266
 Alpha virt. eigenvalues --    4.54118   4.54341   4.59303   4.59771   4.61284
 Alpha virt. eigenvalues --    4.61953   4.66431   4.66818   4.71217   4.71675
 Alpha virt. eigenvalues --    4.78841   4.79131   4.81303   4.83540   4.87076
 Alpha virt. eigenvalues --    4.91398   4.95192   5.03774   5.04208   5.09680
 Alpha virt. eigenvalues --    5.15954   5.18878   5.33685   5.34751   5.35193
 Alpha virt. eigenvalues --    5.42267   5.49490   5.60270   5.66407   5.70107
 Alpha virt. eigenvalues --    5.76358   5.81636   5.82634   5.82965   5.83941
 Alpha virt. eigenvalues --    5.84097   5.88292   5.89021   5.89469   5.91810
 Alpha virt. eigenvalues --    5.93347   6.09883   6.10170   6.12963   6.14981
 Alpha virt. eigenvalues --    6.15796   6.18607   6.21355   6.26518   6.49320
 Alpha virt. eigenvalues --    6.62605   6.80839   7.32991
          Condensed to atoms (all electrons):
               1          2          3          4          5          6
     1  C    4.659423   0.614495   0.305830   0.305830  -0.037301  -0.037301
     2  O    0.614495   7.968533  -0.107919  -0.107919   0.010284   0.010284
     3  C    0.305830  -0.107919   4.769177  -0.135515   0.415378   0.011589
     4  C    0.305830  -0.107919  -0.135515   4.769177   0.011589   0.415378
     5  H   -0.037301   0.010284   0.415378   0.011589   0.568605  -0.000757
     6  H   -0.037301   0.010284   0.011589   0.415378  -0.000757   0.568605
     7  H   -0.017312   0.001227   0.396264   0.003440  -0.015252  -0.000311
     8  H   -0.017312   0.001227   0.396264   0.003440  -0.015252  -0.000311
     9  H   -0.017312   0.001227   0.003440   0.396264  -0.000311  -0.015252
    10  H   -0.017312   0.001227   0.003440   0.396264  -0.000311  -0.015252
               7          8          9         10
     1  C   -0.017312  -0.017312  -0.017312  -0.017312
     2  O    0.001227   0.001227   0.001227   0.001227
     3  C    0.396264   0.396264   0.003440   0.003440
     4  C    0.003440   0.003440   0.396264   0.396264
     5  H   -0.015252  -0.015252  -0.000311  -0.000311
     6  H   -0.000311  -0.000311  -0.015252  -0.015252
     7  H    0.631975  -0.031303  -0.000651   0.001016
     8  H   -0.031303   0.631975   0.001016  -0.000651
     9  H   -0.000651   0.001016   0.631975  -0.031303
    10  H    0.001016  -0.000651  -0.031303   0.631975
 Mulliken charges:
               1
     1  C    0.258273
     2  O   -0.392665
     3  C   -0.057948
     4  C   -0.057948
     5  H    0.063328
     6  H    0.063328
     7  H    0.030908
     8  H    0.030908
     9  H    0.030908
    10  H    0.030908
 Sum of Mulliken charges =  -0.00000
 Mulliken charges with hydrogens summed into heavy atoms:
               1
     1  C    0.258273
     2  O   -0.392665
     3  C    0.067196
     4  C    0.067196
 APT charges:
               1
     1  C    0.828363
     2  O   -0.696203
     3  C   -0.113368
     4  C   -0.113368
     5  H    0.012656
     6  H    0.012656
     7  H    0.017316
     8  H    0.017316
     9  H    0.017316
    10  H    0.017316
 Sum of APT charges =  -0.00000
 APT charges with hydrogens summed into heavy atoms:
               1
     1  C    0.828363
     2  O   -0.696203
     3  C   -0.066080
     4  C   -0.066080
 Electronic spatial extent (au):  <R**2>=            292.8492
 Charge=              0.0000 electrons
 Dipole moment (field-independent basis, Debye):
    X=              0.0000    Y=             -0.0000    Z=             -3.0812  Tot=              3.0812
 Quadrupole moment (field-independent basis, Debye-Ang):
   XX=            -24.3972   YY=            -23.8926   ZZ=            -29.3818
   XY=             -0.0000   XZ=              0.0000   YZ=             -0.0000
 Traceless Quadrupole moment (field-independent basis, Debye-Ang):
   XX=              1.4933   YY=              1.9979   ZZ=             -3.4913
   XY=             -0.0000   XZ=              0.0000   YZ=             -0.0000
 Octapole moment (field-independent basis, Debye-Ang**2):
  XXX=              0.0000  YYY=             -0.0000  ZZZ=             -3.2501  XYY=              0.0000
  XXY=              0.0000  XXZ=             -0.1608  XZZ=              0.0000  YZZ=             -0.0000
  YYZ=              1.8984  XYZ=             -0.0000
 Hexadecapole moment (field-independent basis, Debye-Ang**3):
 XXXX=            -38.2038 YYYY=           -200.1449 ZZZZ=           -158.0293 XXXY=             -0.0000
 XXXZ=             -0.0000 YYYX=             -0.0000 YYYZ=             -0.0000 ZZZX=             -0.0000
 ZZZY=             -0.0000 XXYY=            -40.8599 XXZZ=            -28.2434 YYZZ=            -59.5879
 XXYZ=             -0.0000 YYXZ=             -0.0000 ZZXY=              0.0000
 N-N= 1.195368579350D+02 E-N=-6.902024520893D+02  KE= 1.925171627849D+02
 Symmetry A1   KE= 1.404660821011D+02
 Symmetry A2   KE= 2.061214833941D+00
 Symmetry B1   KE= 5.673846653173D+00
 Symmetry B2   KE= 4.431601919671D+01
  Exact polarizability:  32.389   0.000  44.045  -0.000  -0.000  45.349
 Approx polarizability:  46.408   0.000  52.403  -0.000  -0.000  68.345
 Calling FoFJK, ICntrl=    100127 FMM=F ISym2X=1 I1Cent= 0 IOpClX= 0 NMat=1 NMatS=1 NMatT=0.
 Full mass-weighted force constant matrix:
 Low frequencies ---   -5.6693   -3.9126   -2.1364   -0.0010    0.0008    0.0029
 Low frequencies ---   24.5891  130.0418  380.6960
 Diagonal vibrational polarizability:
        0.5238290       3.8479248       2.7275673
 Harmonic frequencies (cm**-1), IR intensities (KM/Mole), Raman scattering
 activities (A**4/AMU), depolarization ratios for plane and unpolarized
 incident light, reduced masses (AMU), force constants (mDyne/A),
 and normal coordinates:
                      1                      2                      3
                     A2                     B1                     A1
 Frequencies --     24.5041               130.0418               380.6960
 Red. masses --      1.0171                 1.1265                 2.1911
 Frc consts  --      0.0004                 0.0112                 0.1871
 IR Inten    --      0.0000                 0.0544                 1.5400
  Atom  AN      X      Y      Z        X      Y      Z        X      Y      Z
     1   6    -0.00  -0.00   0.00     0.02  -0.00   0.00    -0.00  -0.00  -0.13
     2   8     0.00   0.00  -0.00    -0.07   0.00   0.00    -0.00   0.00  -0.13
     3   6    -0.02   0.00  -0.00     0.04  -0.00  -0.00    -0.00   0.16   0.10
     4   6     0.02  -0.00  -0.00     0.04   0.00  -0.00     0.00  -0.16   0.10
     5   1     0.34  -0.00   0.00     0.41   0.00  -0.00     0.00  -0.06   0.38
     6   1    -0.34   0.00   0.00     0.41  -0.00  -0.00     0.00   0.06   0.38
     7   1    -0.26   0.15   0.32    -0.19   0.16   0.32    -0.01   0.37   0.12
     8   1    -0.26  -0.15  -0.32    -0.19  -0.16  -0.32     0.01   0.37   0.12
     9   1     0.26  -0.15   0.32    -0.19   0.16  -0.32     0.01  -0.37   0.12
    10   1     0.26   0.15  -0.32    -0.19  -0.16   0.32    -0.01  -0.37   0.12
                      4                      5                      6
                     B1                     B2                     A1
 Frequencies --    489.9785               536.3057               782.8480
 Red. masses --      1.9792                 3.5990                 3.6661
 Frc consts  --      0.2800                 0.6099                 1.3237
 IR Inten    --      0.6733                14.3453                 1.8540
  Atom  AN      X      Y      Z        X      Y      Z        X      Y      Z
[...]
 No special actions if energy rises.
 SCF Done:  E(ROHF) =  -192.047479651     A.U. after   11 cycles
            NFock= 11  Conv=0.38D-08     -V/T= 2.0010
 <Sx>= 0.0000 <Sy>= 0.0000 <Sz>= 0.0000 <S**2>=-0.0000 S=-0.0000
 <L.S>=  0.00000000000    
 Annihilation of the first spin contaminant:
 S**2 before annihilation    -0.0000,   after     0.0000

 **********************************************************************

            Population analysis using the SCF Density.

 **********************************************************************

 Orbital symmetries:
       Occupied  (A1) (A1) (B2) (A1) (A1) (A1) (B2) (A1) (B2) (A1)
                 (B1) (A1) (A2) (B2) (B1) (B2)
       Virtual   (A1) (B2) (B1) (A1) (A1) (B2) (A2) (B1) (A1) (B2)
                 (B1) (A1) (B2) (B1) (A1) (A1) (A2) (B2) (A1) (B1)
                 (A1) (B2) (B2) (B2) (A1) (B1) (A2) (A1) (B2) (B1)
                 (A1) (A1) (A2) (B1) (B2) (A1) (B2) (A1) (A2) (B1)
                 (B2) (A1) (B1) (B2) (A1) (A2) (B2) (A1) (A1) (A2)
                 (B2) (A1) (B1) (B2) (B1) (A1) (B2) (A1) (B2) (A2)
                 (B1) (A1) (B2) (A1) (B1) (A2) (A1) (B2) (B2) (A1)
                 (B1) (A2) (B2) (A1) (A2) (B1) (A1) (B2) (A1) (B2)
                 (A1) (B1) (A1) (B2) (B1) (A2) (A2) (A2) (B1) (A1)
                 (A1) (B1) (B2) (A1) (B2) (A2) (A1) (B2) (B1) (B1)
                 (A2) (B2) (A1) (A1) (B2) (A2) (B1) (B2) (A1) (A1)
                 (A2) (A1) (B1) (B2) (B1) (A1) (B2) (A1) (B1) (B2)
                 (A1) (B2) (A2) (A2) (B1) (B2) (A2) (A1) (B2) (B1)
                 (B2) (A1) (B1) (B1) (A1) (B2) (B2) (A1) (A2) (A1)
                 (B1) (B2) (A2) (B1) (A2) (A1) (B2) (A1) (A2) (B1)
                 (B2) (A2) (A1) (B2) (B1) (A1) (A1) (B2) (A2) (B1)
                 (B1) (B2) (A1) (A1) (A2) (B2) (B1) (A2) (B1) (A1)
                 (B2) (B2) (A1) (A1) (A2) (B2) (B2) (B1) (A2) (A1)
                 (A1) (B1) (A1) (B2) (B2) (A1) (A2) (A1) (B2) (B1)
                 (A1) (A2) (A2) (A1) (B2) (B1) (B2) (A1) (A1) (B1)
                 (B2) (A1) (B2) (B1) (A1) (A2) (B2) (B1) (A2) (B2)
                 (A1) (B1) (A2) (B2) (B1) (A1) (A1) (B2) (A1) (B1)
                 (A2) (B2) (B1) (B2) (A1) (A1) (B1) (A1) (A2) (A1)
                 (B2) (A2) (B1) (B1) (B2) (A1) (B2) (B1) (A2) (B2)
                 (A1) (B2) (A2) (A1) (B2) (A1) (B1) (B2) (B2) (A1)
                 (B1) (A2) (A1) (B2) (A2) (A1) (B1) (B2) (A2) (B1)
                 (A1) (A1) (A2) (B2) (B1) (A1) (B1) (A1) (B2) (A2)
                 (B2) (A1) (A1) (B2) (A1) (B1) (A2) (B2) (A1) (B2)
                 (B1) (B2) (A1) (A2) (A1) (B1) (B2) (A1) (B1) (B2)
                 (B1) (A2) (A1) (B2) (A1) (B2) (A1) (A1) (B2) (A1)
                 (B1) (B2) (A1) (A1)
 The electronic state is 1-A1.
 Alpha  occ. eigenvalues --  -20.54299 -11.33143 -11.23432 -11.23430  -1.38751
 Alpha  occ. eigenvalues --   -1.04195  -0.96817  -0.74238  -0.64643  -0.63758
 Alpha  occ. eigenvalues --   -0.62393  -0.56327  -0.56039  -0.53883  -0.49026
 Alpha  occ. eigenvalues --   -0.41411
 Alpha virt. eigenvalues --    0.04362   0.04937   0.06589   0.07162   0.08396
 Alpha virt. eigenvalues --    0.08932   0.09409   0.10520   0.10607   0.12240
 Alpha virt. eigenvalues --    0.15043   0.16923   0.17314   0.20603   0.21924
 Alpha virt. eigenvalues --    0.22679   0.23079   0.23115   0.24551   0.24901
 Alpha virt. eigenvalues --    0.28188   0.28218   0.30753   0.32092   0.32989
 Alpha virt. eigenvalues --    0.35486   0.35809   0.35991   0.42796   0.43504
 Alpha virt. eigenvalues --    0.44388   0.47428   0.47880   0.49027   0.50181
 Alpha virt. eigenvalues --    0.51055   0.52164   0.53566   0.54424   0.55699
 Alpha virt. eigenvalues --    0.57368   0.58471   0.61499   0.63355   0.63905
 Alpha virt. eigenvalues --    0.66556   0.67151   0.68722   0.72206   0.74372
 Alpha virt. eigenvalues --    0.74677   0.75399   0.77504   0.77515   0.79407
 Alpha virt. eigenvalues --    0.83058   0.83518   0.86531   0.87811   0.87960
 Alpha virt. eigenvalues --    0.88636   0.92715   0.96552   0.98523   0.99273
 Alpha virt. eigenvalues --    0.99412   1.02227   1.03358   1.04550   1.05482
 Alpha virt. eigenvalues --    1.05560   1.05603   1.09600   1.12817   1.16213
 Alpha virt. eigenvalues --    1.17597   1.18846   1.20606   1.28760   1.37602
 Alpha virt. eigenvalues --    1.38633   1.39106   1.43369   1.44525   1.45966
 Alpha virt. eigenvalues --    1.49367   1.50371   1.53254   1.56012   1.57634
 Alpha virt. eigenvalues --    1.60731   1.61352   1.63984   1.64739   1.75220
 Alpha virt. eigenvalues --    1.75932   1.76256   1.76474   1.77979   1.80114
 Alpha virt. eigenvalues --    1.81051   1.81778   1.82420   1.84975   1.85154
 Alpha virt. eigenvalues --    1.88358   1.88956   1.89684   1.90329   1.91320
 Alpha virt. eigenvalues --    1.93697   1.95089   1.95231   1.96630   1.98296
 Alpha virt. eigenvalues --    1.99577   1.99710   2.02623   2.05228   2.05332
 Alpha virt. eigenvalues --    2.06758   2.08085   2.08098   2.11194   2.13606
 Alpha virt. eigenvalues --    2.17960   2.19485   2.19742   2.21756   2.23552
 Alpha virt. eigenvalues --    2.27712   2.27827   2.29306   2.31994   2.33361
 Alpha virt. eigenvalues --    2.34942   2.38290   2.40906   2.40915   2.45186
 Alpha virt. eigenvalues --    2.45556   2.50863   2.52118   2.53381   2.55592
 Alpha virt. eigenvalues --    2.56212   2.58101   2.58822   2.60729   2.63381
 Alpha virt. eigenvalues --    2.64860   2.73815   2.73959   2.75827   2.78233
 Alpha virt. eigenvalues --    2.82288   2.84750   2.85973   2.86774   2.87777
 Alpha virt. eigenvalues --    2.91141   2.96204   3.00404   3.02024   3.06435
 Alpha virt. eigenvalues --    3.07019   3.08487   3.09250   3.12001   3.15213
 Alpha virt. eigenvalues --    3.18511   3.22199   3.28519   3.31768   3.34482
 Alpha virt. eigenvalues --    3.34810   3.38482   3.40955   3.42004   3.48967
 Alpha virt. eigenvalues --    3.49787   3.51499   3.56670   3.58532   3.63733
 Alpha virt. eigenvalues --    3.66969   3.72259   3.72916   3.73859   3.80337
 Alpha virt. eigenvalues --    3.84393   3.95644   4.00777   4.06161   4.10152
 Alpha virt. eigenvalues --    4.11980   4.13617   4.16442   4.18764   4.21062
 Alpha virt. eigenvalues --    4.34487   4.41629   4.59918   4.67642   4.69805
 Alpha virt. eigenvalues --    4.78046   4.87980   4.92341   4.96577   4.97704
 Alpha virt. eigenvalues --    5.00010   5.00557   5.03884   5.10436   5.14552
 Alpha virt. eigenvalues --    5.22993   5.23928   5.35222   5.38275   5.54415
 Alpha virt. eigenvalues --    5.59579   5.63176   5.79305   5.83867   5.84828
 Alpha virt. eigenvalues --    5.92700   5.97757   5.99719   5.99938   6.10444
 Alpha virt. eigenvalues --    6.12021   6.13729   6.17156   6.18826   6.20910
 Alpha virt. eigenvalues --    6.26853   6.31680   6.32115   6.33560   6.36123
 Alpha virt. eigenvalues --    6.36362   6.43456   6.54491   6.70237   6.78971
 Alpha virt. eigenvalues --    6.92312   6.96733   7.01839   7.11276   7.14818
 Alpha virt. eigenvalues --    7.15775   7.16919   7.19660   7.27745   7.35062
 Alpha virt. eigenvalues --    7.41208   7.45867   7.74864   8.07949   8.24784
 Alpha virt. eigenvalues --    8.26502   8.40687   8.49885   8.56076   8.56843
 Alpha virt. eigenvalues --    8.64363   8.64998   8.71884   8.76699   8.85918
 Alpha virt. eigenvalues --    9.11534   9.12584   9.38449   9.51358   9.58436
 Alpha virt. eigenvalues --    9.59386   9.60189   9.67142   9.78612   9.78927
 Alpha virt. eigenvalues --   10.29559  10.70784  11.01630  11.29142  11.35329
 Alpha virt. eigenvalues --   11.67189  11.94233  12.56940  20.90492  21.34617
 Alpha virt. eigenvalues --   21.58053  21.60051  21.62399  21.64480  21.75948
 Alpha virt. eigenvalues --   22.05455  22.30290  23.21064  23.29791  24.52290
 Alpha virt. eigenvalues --   37.83181  38.16638  38.36740  43.56116
          Condensed to atoms (all electrons):
               1          2          3          4          5          6
     1  C    4.497422   0.465988   0.323825   0.323825  -0.041916  -0.041916
     2  O    0.465988   8.321769  -0.075077  -0.075077  -0.007989  -0.007989
     3  C    0.323825  -0.075077   4.982657  -0.099417   0.419007   0.010090
     4  C    0.323825  -0.075077  -0.099417   4.982657   0.010090   0.419007
     5  H   -0.041916  -0.007989   0.419007   0.010090   0.527526  -0.000332
     6  H   -0.041916  -0.007989   0.010090   0.419007  -0.000332   0.527526
     7  H   -0.038895   0.004000   0.395480  -0.004331  -0.025962  -0.000237
     8  H   -0.038895   0.004000   0.395480  -0.004331  -0.025962  -0.000237
     9  H   -0.038895   0.004000  -0.004331   0.395480  -0.000237  -0.025962
    10  H   -0.038895   0.004000  -0.004331   0.395480  -0.000237  -0.025962
               7          8          9         10
     1  C   -0.038895  -0.038895  -0.038895  -0.038895
     2  O    0.004000   0.004000   0.004000   0.004000
     3  C    0.395480   0.395480  -0.004331  -0.004331
     4  C   -0.004331  -0.004331   0.395480   0.395480
     5  H   -0.025962  -0.025962  -0.000237  -0.000237
     6  H   -0.000237  -0.000237  -0.025962  -0.025962
     7  H    0.608394  -0.040806  -0.000083   0.001435
     8  H   -0.040806   0.608394   0.001435  -0.000083
     9  H   -0.000083   0.001435   0.608394  -0.040806
    10  H    0.001435  -0.000083  -0.040806   0.608394
          Atomic-Atomic Spin Densities.
               1          2          3          4          5          6
     1  C    0.000000   0.000000   0.000000   0.000000   0.000000   0.000000
     2  O    0.000000   0.000000   0.000000   0.000000   0.000000   0.000000
     3  C    0.000000   0.000000   0.000000   0.000000   0.000000   0.000000
     4  C    0.000000   0.000000   0.000000   0.000000   0.000000   0.000000
     5  H    0.000000   0.000000   0.000000   0.000000   0.000000   0.000000
     6  H    0.000000   0.000000   0.000000   0.000000   0.000000   0.000000
     7  H    0.000000   0.000000   0.000000   0.000000   0.000000   0.000000
     8  H    0.000000   0.000000   0.000000   0.000000   0.000000   0.000000
     9  H    0.000000   0.000000   0.000000   0.000000   0.000000   0.000000
    10  H    0.000000   0.000000   0.000000   0.000000   0.000000   0.000000
               7          8          9         10
     1  C    0.000000   0.000000   0.000000   0.000000
     2  O    0.000000   0.000000   0.000000   0.000000
     3  C    0.000000   0.000000   0.000000   0.000000
     4  C    0.000000   0.000000   0.000000   0.000000
     5  H    0.000000   0.000000   0.000000   0.000000
     6  H    0.000000   0.000000   0.000000   0.000000
     7  H    0.000000   0.000000   0.000000   0.000000
     8  H    0.000000   0.000000   0.000000   0.000000
     9  H    0.000000   0.000000   0.000000   0.000000
    10  H    0.000000   0.000000   0.000000   0.000000
 Mulliken charges and spin densities:
               1          2
     1  C    0.628350   0.000000
     2  O   -0.637625   0.000000
     3  C   -0.343383   0.000000
     4  C   -0.343383   0.000000
     5  H    0.146013   0.000000
     6  H    0.146013   0.000000
     7  H    0.101004   0.000000
     8  H    0.101004   0.000000
     9  H    0.101004   0.000000
    10  H    0.101004   0.000000
 Sum of Mulliken charges =  -0.00000   0.00000
 Mulliken charges and spin densities with hydrogens summed into heavy atoms:
               1          2
     1  C    0.628350   0.000000
     2  O   -0.637625   0.000000
     3  C    0.004638   0.000000
     4  C    0.004638   0.000000
 Electronic spatial extent (au):  <R**2>=            292.6462
 Charge=              0.0000 electrons
 Dipole moment (field-independent basis, Debye):
    X=             -0.0000    Y=              0.0000    Z=             -3.4011  Tot=              3.4011
 Quadrupole moment (field-independent basis, Debye-Ang):
   XX=            -24.3252   YY=            -23.4798   ZZ=            -29.5934
   XY=              0.0000   XZ=              0.0000   YZ=             -0.0000
 Traceless Quadrupole moment (field-independent basis, Debye-Ang):
   XX=              1.4743   YY=              2.3197   ZZ=             -3.7940
   XY=              0.0000   XZ=              0.0000   YZ=             -0.0000
 Octapole moment (field-independent basis, Debye-Ang**2):
  XXX=              0.0000  YYY=              0.0000  ZZZ=             -4.0842  XYY=              0.0000
  XXY=             -0.0000  XXZ=             -0.4263  XZZ=             -0.0000  YZZ=              0.0000
  YYZ=              1.6769  XYZ=              0.0000
 Hexadecapole moment (field-independent basis, Debye-Ang**3):
 XXXX=            -36.8790 YYYY=           -193.9909 ZZZZ=           -155.4042 XXXY=             -0.0000
 XXXZ=             -0.0000 YYYX=             -0.0000 YYYZ=              0.0000 ZZZX=             -0.0000
 ZZZY=             -0.0000 XXYY=            -39.9093 XXZZ=            -27.7541 YYZZ=            -57.9136
 XXYZ=             -0.0000 YYXZ=              0.0000 ZZXY=              0.0000
 N-N= 1.195368579350D+02 E-N=-6.891018163981D+02  KE= 1.918488723649D+02
 Symmetry A1   KE= 1.403317454925D+02
 Symmetry A2   KE= 1.999856594227D+00
 Symmetry B1   KE= 5.420240385927D+00
 Symmetry B2   KE= 4.409702989232D+01
 Symmetry A1   SP= 0.000000000000D+00
 Symmetry A2   SP= 0.000000000000D+00
 Symmetry B1   SP= 0.000000000000D+00
 Symmetry B2   SP= 0.000000000000D+00
                          Isotropic Fermi Contact Couplings
        Atom                 a.u.       MegaHertz       Gauss      10(-4) cm-1
     1  C(13)              0.00000       0.00000       0.00000       0.00000
     2  O(17)              0.00000      -0.00000      -0.00000      -0.00000
     3  C(13)              0.00000       0.00000       0.00000       0.00000
     4  C(13)              0.00000       0.00000       0.00000       0.00000
     5  H(1)               0.00000       0.00000       0.00000       0.00000
     6  H(1)               0.00000       0.00000       0.00000       0.00000
     7  H(1)               0.00000       0.00000       0.00000       0.00000
     8  H(1)               0.00000       0.00000       0.00000       0.00000
     9  H(1)               0.00000       0.00000       0.00000       0.00000
    10  H(1)               0.00000       0.00000       0.00000       0.00000
 --------------------------------------------------------
       Center         ----  Spin Dipole Couplings  ----
                      3XX-RR        3YY-RR        3ZZ-RR
 --------------------------------------------------------
     1   Atom        0.000000      0.000000      0.000000
     2   Atom        0.000000      0.000000      0.000000
     3   Atom        0.000000      0.000000      0.000000
     4   Atom        0.000000      0.000000      0.000000
     5   Atom        0.000000      0.000000      0.000000
     6   Atom        0.000000      0.000000      0.000000
     7   Atom        0.000000      0.000000      0.000000
     8   Atom        0.000000      0.000000      0.000000
     9   Atom        0.000000      0.000000      0.000000
    10   Atom        0.000000      0.000000      0.000000
 --------------------------------------------------------
                        XY            XZ            YZ
 --------------------------------------------------------
     1   Atom        0.000000      0.000000      0.000000
     2   Atom        0.000000      0.000000      0.000000
     3   Atom        0.000000      0.000000      0.000000
     4   Atom        0.000000      0.000000      0.000000
     5   Atom        0.000000      0.000000      0.000000
     6   Atom        0.000000      0.000000      0.000000
     7   Atom        0.000000      0.000000      0.000000
     8   Atom        0.000000      0.000000      0.000000
     9   Atom        0.000000      0.000000      0.000000
    10   Atom        0.000000      0.000000      0.000000
 --------------------------------------------------------


 ---------------------------------------------------------------------------------
              Anisotropic Spin Dipole Couplings in Principal Axis System
 ---------------------------------------------------------------------------------

       Atom             a.u.   MegaHertz   Gauss  10(-4) cm-1        Axes

              Baa     0.0000     0.000     0.000     0.000  1.0000  0.0000  0.0000
     1 C(13)  Bbb     0.0000     0.000     0.000     0.000 -0.0000  1.0000  0.0000
              Bcc     0.0000     0.000     0.000     0.000  0.0000  0.0000  1.0000
 
              Baa     0.0000    -0.000    -0.000    -0.000  1.0000  0.0000  0.0000
     2 O(17)  Bbb     0.0000    -0.000    -0.000    -0.000 -0.0000  1.0000  0.0000
              Bcc     0.0000    -0.000    -0.000    -0.000  0.0000  0.0000  1.0000
 
              Baa     0.0000     0.000     0.000     0.000  1.0000  0.0000  0.0000
     3 C(13)  Bbb     0.0000     0.000     0.000     0.000 -0.0000  1.0000  0.0000
              Bcc     0.0000     0.000     0.000     0.000  0.0000  0.0000  1.0000
 
              Baa     0.0000     0.000     0.000     0.000  1.0000  0.0000  0.0000
     4 C(13)  Bbb     0.0000     0.000     0.000     0.000 -0.0000  1.0000  0.0000
              Bcc     0.0000     0.000     0.000     0.000  0.0000  0.0000  1.0000
 
              Baa     0.0000     0.000     0.000     0.000  1.0000  0.0000  0.0000
     5 H(1)   Bbb     0.0000     0.000     0.000     0.000 -0.0000  1.0000  0.0000
              Bcc     0.0000     0.000     0.000     0.000  0.0000  0.0000  1.0000
 
              Baa     0.0000     0.000     0.000     0.000  1.0000  0.0000  0.0000
     6 H(1)   Bbb     0.0000     0.000     0.000     0.000 -0.0000  1.0000  0.0000
              Bcc     0.0000     0.000     0.000     0.000  0.0000  0.0000  1.0000
 
              Baa     0.0000     0.000     0.000     0.000  1.0000  0.0000  0.0000
     7 H(1)   Bbb     0.0000     0.000     0.000     0.000 -0.0000  1.0000  0.0000
              Bcc     0.0000     0.000     0.000     0.000  0.0000  0.0000  1.0000
 
              Baa     0.0000     0.000     0.000     0.000  1.0000  0.0000  0.0000
     8 H(1)   Bbb     0.0000     0.000     0.000     0.000 -0.0000  1.0000  0.0000
              Bcc     0.0000     0.000     0.000     0.000  0.0000  0.0000  1.0000
 
              Baa     0.0000     0.000     0.000     0.000  1.0000  0.0000  0.0000
     9 H(1)   Bbb     0.0000     0.000     0.000     0.000 -0.0000  1.0000  0.0000
              Bcc     0.0000     0.000     0.000     0.000  0.0000  0.0000  1.0000
 
              Baa     0.0000     0.000     0.000     0.000  1.0000  0.0000  0.0000
    10 H(1)   Bbb     0.0000     0.000     0.000     0.000 -0.0000  1.0000  0.0000
              Bcc     0.0000     0.000     0.000     0.000  0.0000  0.0000  1.0000
 

 ---------------------------------------------------------------------------------

 1\1\GINC-GAMBA\SP\ROHF\Gen\C3H6O1\IRIKURA\28-Sep-2023\0\\# rohf/gen ge
 om=check guess=check\\acetone, ROHF/cc-pVTZ-F12\\0,1\C,0,0.,0.,0.18506
 6\O,0,0.,0.,1.39418\C,0,0.,1.287729,-0.611455\C,0,0.,-1.287729,-0.6114
 55\H,0,0.,2.1424,0.05932\H,0,0.,-2.1424,0.05932\H,0,-0.876769,1.329449
 ,-1.261254\H,0,0.876769,1.329449,-1.261254\H,0,0.876769,-1.329449,-1.2
 61254\H,0,-0.876769,-1.329449,-1.261254\\Version=ES64L-G16RevB.01\Stat
 e=1-A1\HF=-192.0474797\RMSD=3.819e-09\Dipole=0.,0.,-1.3381061\Quadrupo
 le=1.0960785,1.7246314,-2.82071,0.,0.,0.\PG=C02V [C2(C1O1),SGV(C2H2),X
 (H4)]\\@


 IT IS THE GODS' CUSTOM TO BRING LOW ALL THINGS OF SURPASSING GREATNESS.
     -- HERODOTUS
 IT IS THE LOFTY PINE THAT BY THE STORM IS OFTENER TOSSED;
 TOWERS FALL WITH HEAVIER CRASH WHICH HIGHER SOAR.
     -- HORACE
 THE BIGGER THEY COME, THE HARDER THEY FALL.
     -- BOB FITZSIMONS HEAVYWEIGHT CHAMPION, 1897-1899
 Job cpu time:       0 days  0 hours  3 minutes  9.7 seconds.
 Elapsed time:       0 days  0 hours  0 minutes 47.5 seconds.
 File lengths (MBytes):  RWF=     76 Int=      0 D2E=      0 Chk=     10 Scr=      1
 Normal termination of Gaussian 16 at Thu Sep 28 15:39:19 2023.
