 Entering Gaussian System, Link 0=g16
 AtFile(1): pcseg2.gbs
            -H     0
            S   4   1.00
                  0.754732D+02           0.427821D-02
                  0.113575D+02           0.328672D-01
                  0.260081D+01           0.159578D+00
                  0.735503D+00           0.500000D+00
            S   1   1.00
                  0.231761D+00           1.0000000
            S   1   1.00
                  0.741675D-01           1.0000000
            P   1   1.00
                  0.160000D+01           1.0000000
            P   1   1.00
                  0.450000D+00           1.0000000
            D   1   1.00
                  0.125000D+01           1.0000000
            ****
            -C     0
            S   7   1.00
                  0.731999D+04           0.695369D-03
                  0.109818D+04           0.537138D-02
                  0.250014D+03           0.274734D-01
                  0.707586D+02           0.105078D+00
                  0.228595D+02           0.291262D+00
                  0.803936D+01           0.500000D+00
                  0.289309D+01           0.362224D+00
            S   2   1.00
                  0.521640D+01          -0.957844D-01
                  0.556124D+00           0.500000D+00
            S   1   1.00
                  0.228813D+00           1.0000000
            S   1   1.00
                  0.936338D-01           1.0000000
            P   4   1.00
                  0.339855D+02           0.818395D-02
                  0.772957D+01           0.586921D-01
                  0.224954D+01           0.222514D+00
                  0.767681D+00           0.500000D+00
            P   1   1.00
                  0.263283D+00           1.0000000
            P   1   1.00
                  0.848744D-01           1.0000000
            D   1   1.00
                  0.140000D+01           1.0000000
            D   1   1.00
                  0.450000D+00           1.0000000
            F   1   1.00
                  0.950000D+00           1.0000000
            ****
            -O     0
            S   7   1.00
                  0.135887D+05           0.665492D-03
                  0.203847D+04           0.514222D-02
                  0.464041D+03           0.263472D-01
                  0.131339D+03           0.101500D+00
                  0.425340D+02           0.285877D+00
                  0.150429D+02           0.500000D+00
                  0.546616D+01           0.368211D+00
            S   2   1.00
                  0.100915D+02          -0.100084D+00
                  0.110429D+01           0.500000D+00
            S   1   1.00
                  0.448082D+00           1.0000000
            S   1   1.00
                  0.175325D+00           1.0000000
            P   4   1.00
                  0.608220D+02           0.908253D-02
                  0.140332D+02           0.645878D-01
                  0.418244D+01           0.241502D+00
                  0.142490D+01           0.500000D+00
            P   1   1.00
                  0.478741D+00           1.0000000
            P   1   1.00
                  0.146257D+00           1.0000000
            D   1   1.00
                  0.220000D+01           1.0000000
            D   1   1.00
                  0.650000D+00           1.0000000
            F   1   1.00
                  0.110000D+01           1.0000000
            ****
            -N     0
            S   7   1.00
                  0.101643D+05           0.682757D-03
                  0.152481D+04           0.527488D-02
                  0.347119D+03           0.270037D-01
                  0.982389D+02           0.103673D+00
                  0.317799D+02           0.289575D+00
                  0.112240D+02           0.500000D+00
                  0.406611D+01           0.364621D+00
            S   2   1.00
                  0.747898D+01          -0.975681D-01
                  0.805040D+00           0.500000D+00
            S   1   1.00
                  0.324626D+00           1.0000000
            S   1   1.00
                  0.128132D+00           1.0000000
            P   4   1.00
                  0.482704D+02           0.829547D-02
                  0.110815D+02           0.596223D-01
                  0.326643D+01           0.227889D+00
                  0.111680D+01           0.500000D+00
            P   1   1.00
                  0.382049D+00           1.0000000
            P   1   1.00
                  0.121222D+00           1.0000000
            D   1   1.00
                  0.180000D+01           1.0000000
            D   1   1.00
                  0.550000D+00           1.0000000
            F   1   1.00
                  0.102000D+01           1.0000000
            ****
            -F     0
            S   7   1.00
                  0.174507D+05           0.655972D-03
                  0.261768D+04           0.506944D-02
                  0.595857D+03           0.259899D-01
                  0.168651D+03           0.100353D+00
                  0.546654D+02           0.284095D+00
                  0.193717D+02           0.500000D+00
                  0.706202D+01           0.370721D+00
            S   2   1.00
                  0.131197D+02          -0.101997D+00
                  0.145046D+01           0.500000D+00
            S   1   1.00
                  0.588255D+00           1.0000000
            S   1   1.00
                  0.227960D+00           1.0000000
            P   4   1.00
                  0.779407D+02           0.931135D-02
                  0.180425D+02           0.663964D-01
                  0.542342D+01           0.246386D+00
                  0.184876D+01           0.500000D+00
            P   1   1.00
                  0.617455D+00           1.0000000
            P   1   1.00
                  0.185496D+00           1.0000000
            D   1   1.00
                  0.280000D+01           1.0000000
            D   1   1.00
                  0.800000D+00           1.0000000
            F   1   1.00
                  0.120000D+01           1.0000000
            ****
            -Cl     0
            S   8   1.00
                  0.154272D+06           0.222473D-03
                  0.231232D+05           0.172590D-02
                  0.526257D+04           0.899286D-02
                  0.148995D+04           0.367724D-01
                  0.485417D+03           0.121446D+00
                  0.174634D+03           0.304148D+00
                  0.672393D+02           0.500000D+00
                  0.265780D+02           0.360252D+00
            S   3   1.00
                  0.131826D+03          -0.531330D-01
                  0.400703D+02          -0.233346D+00
                  0.789448D+01           0.500000D+00
            S   2   1.00
                  0.427711D+01           0.500000D+00
                  0.196233D+01           0.370517D+00
            S   1   1.00
                  0.520793D+00           1.0000000
            S   1   1.00
                  0.181633D+00           1.0000000
            P   7   1.00
                  0.124440D+04           0.988206D-03
                  0.295109D+03           0.829674D-02
                  0.947224D+02           0.430906D-01
                  0.352588D+02           0.148443D+00
                  0.144211D+02           0.344744D+00
                  0.610371D+01           0.500000D+00
                  0.258886D+01           0.348278D+00
            P   2   1.00
                  0.109447D+02          -0.196768D-01
                  0.104413D+01           0.500000D+00
            P   1   1.00
                  0.376184D+00           1.0000000
            P   1   1.00
                  0.120613D+00           1.0000000
            D   1   1.00
                  0.231000D+01           1.0000000
            D   1   1.00
                  0.520000D+00           1.0000000
            F   1   1.00
                  0.720000D+00           1.0000000
            ****
            -S     0
            S   8   1.00
                  0.134700D+06           0.226231D-03
                  0.201904D+05           0.175488D-02
                  0.459528D+04           0.914190D-02
                  0.130109D+04           0.373551D-01
                  0.423902D+03           0.123121D+00
                  0.152485D+03           0.306801D+00
                  0.586925D+02           0.500000D+00
                  0.231461D+02           0.354358D+00
            S   3   1.00
                  0.116327D+03          -0.491772D-01
                  0.352841D+02          -0.215962D+00
                  0.677831D+01           0.500000D+00
            S   2   1.00
                  0.360404D+01           0.500000D+00
                  0.164871D+01           0.366278D+00
            S   1   1.00
                  0.421821D+00           1.0000000
            S   1   1.00
                  0.147554D+00           1.0000000
            P   7   1.00
                  0.104863D+04           0.105273D-02
                  0.248717D+03           0.879338D-02
                  0.797887D+02           0.453358D-01
                  0.296023D+02           0.154476D+00
                  0.120627D+02           0.352366D+00
                  0.507628D+01           0.500000D+00
                  0.213375D+01           0.346429D+00
            P   2   1.00
                  0.928958D+01          -0.185932D-01
                  0.837819D+00           0.500000D+00
            P   1   1.00
                  0.301495D+00           1.0000000
            P   1   1.00
                  0.974740D-01           1.0000000
            D   1   1.00
                  0.210000D+01           1.0000000
            D   1   1.00
                  0.480000D+00           1.0000000
            F   1   1.00
                  0.660000D+00           1.0000000
            ****
            -Br     0
            S    10   1.00
                  0.233625D+07           0.532336D-04
                  0.349961D+06           0.413715D-03
                  0.796444D+05           0.217123D-02
                  0.225555D+05           0.910109D-02
                  0.735546D+04           0.323789D-01
                  0.265352D+04           0.988755D-01
                  0.103517D+04           0.248138D+00
                  0.422205D+03           0.474328D+00
                  0.180035D+03           0.500000D+00
                  0.793308D+02           0.187769D+00
            S    4   1.00
                  0.620834D+03          -0.226511D-01
                  0.190829D+03          -0.109497D+00
                  0.312505D+02           0.500000D+00
                  0.135270D+02           0.492812D+00
            S    2   1.00
                  0.216097D+02          -0.165418D+00
                  0.372566D+01           0.500000D+00
            S    1   1.00
                  0.169770D+01           1.0000000
            S    1   1.00
                  0.489332D+00           1.0000000
            S    1   1.00
                  0.175712D+00           1.0000000
            P    8   1.00
                  0.960829D+04           0.478974D-03
                  0.227618D+04           0.417853D-02
                  0.736723D+03           0.229315D-01
                  0.281579D+03           0.892653D-01
                  0.118395D+03           0.255288D+00
                  0.527481D+02           0.479074D+00
                  0.245098D+02           0.500000D+00
                  0.112009D+02           0.200944D+00
            P    4   1.00
                  0.587849D+02          -0.189674D-01
                  0.918962D+01           0.264104D+00
                  0.413895D+01           0.500000D+00
                  0.184225D+01           0.319316D+00
            P    1   1.00
                  0.713862D+00           1.0000000
            P    1   1.00
                  0.274232D+00           1.0000000
            P    1   1.00
                  0.944411D-01           1.0000000
            D    7   1.00
                  0.398470D+03           0.204066D-02
                  0.118967D+03           0.175171D-01
                  0.450197D+02           0.829708D-01
                  0.190320D+02           0.236284D+00
                  0.855686D+01           0.428468D+00
                  0.382950D+01           0.500000D+00
                  0.166291D+01           0.349360D+00
            D    1   1.00
                  0.672953D+00           1.0000000
            D    1   1.00
                  0.252000D+00           1.0000000
            F    1   1.00
                  0.530000D+00           1.0000000
            ****
            -Si     0
            S    8   1.00
                  0.996133D+05           0.235546D-03
                  0.149311D+05           0.182707D-02
                  0.339820D+04           0.951425D-02
                  0.962140D+03           0.388172D-01
                  0.313430D+03           0.127328D+00
                  0.112683D+03           0.313522D+00
                  0.433372D+02           0.500000D+00
                  0.170029D+02           0.340347D+00
            S    3   1.00
                  0.884208D+02          -0.404451D-01
                  0.266756D+02          -0.178059D+00
                  0.479640D+01           0.500000D+00
            S    2   1.00
                  0.239385D+01           0.500000D+00
                  0.108333D+01           0.338016D+00
            S    1   1.00
                  0.252420D+00           1.0000000
            S    1   1.00
                  0.891210D-01           1.0000000
            P    7   1.00
                  0.709901D+03           0.123028D-02
                  0.168426D+03           0.101366D-01
                  0.539946D+02           0.511840D-01
                  0.198646D+02           0.169967D+00
                  0.801369D+01           0.370717D+00
                  0.331870D+01           0.500000D+00
                  0.136112D+01           0.344128D+00
            P    2   1.00
                  0.622158D+01          -0.166609D-01
                  0.503049D+00           0.500000D+00
            P    1   1.00
                  0.179848D+00           1.0000000
            P    1   1.00
                  0.591912D-01           1.0000000
            D    1   1.00
                  0.168000D+01           1.0000000
            D    1   1.00
                  0.380000D+00           1.0000000
            F    1   1.00
                  0.540000D+00           1.0000000
            ****
            -P     0
            S    8   1.00
                  0.116416D+06           0.230715D-03
                  0.174500D+05           0.178960D-02
                  0.397149D+04           0.932116D-02
                  0.112447D+04           0.380591D-01
                  0.366347D+03           0.125148D+00
                  0.131757D+03           0.310022D+00
                  0.506988D+02           0.500000D+00
                  0.199436D+02           0.347528D+00
            S    3   1.00
                  0.101878D+03          -0.446755D-01
                  0.308249D+02          -0.196376D+00
                  0.573688D+01           0.500000D+00
            S    2   1.00
                  0.296868D+01           0.500000D+00
                  0.135315D+01           0.355098D+00
            S    1   1.00
                  0.332196D+00           1.0000000
            S    1   1.00
                  0.116229D+00           1.0000000
            P    7   1.00
                  0.873928D+03           0.112375D-02
                  0.207298D+03           0.933330D-02
                  0.664628D+02           0.477213D-01
                  0.245665D+02           0.160733D+00
                  0.996820D+01           0.359760D+00
                  0.416536D+01           0.500000D+00
                  0.173022D+01           0.346593D+00
            P    2   1.00
                  0.772530D+01          -0.175718D-01
                  0.657252D+00           0.500000D+00
            P    1   1.00
                  0.239903D+00           1.0000000
            P    1   1.00
                  0.800988D-01           1.0000000
            D    1   1.00
                  0.189000D+01           1.0000000
            D    1   1.00
                  0.430000D+00           1.0000000
            F    1   1.00
                  0.600000D+00           1.0000000
            ****
            
 Initial command:
 /usr/local/apps/g16_b01_avx/g16/l1.exe "/wrk/irikura/Gau-434622.inp" -scrdir="/wrk/irikura/"
 Entering Link 1 = /usr/local/apps/g16_b01_avx/g16/l1.exe PID=    434624.
  
 Copyright (c) 1988-2017, Gaussian, Inc.  All Rights Reserved.
  
 This is part of the Gaussian(R) 16 program.  It is based on
 the Gaussian(R) 09 system (copyright 2009, Gaussian, Inc.),
 the Gaussian(R) 03 system (copyright 2003, Gaussian, Inc.),
 the Gaussian(R) 98 system (copyright 1998, Gaussian, Inc.),
 the Gaussian(R) 94 system (copyright 1995, Gaussian, Inc.),
 the Gaussian 92(TM) system (copyright 1992, Gaussian, Inc.),
 the Gaussian 90(TM) system (copyright 1990, Gaussian, Inc.),
 the Gaussian 88(TM) system (copyright 1988, Gaussian, Inc.),
 the Gaussian 86(TM) system (copyright 1986, Carnegie Mellon
 University), and the Gaussian 82(TM) system (copyright 1983,
 Carnegie Mellon University). Gaussian is a federally registered
 trademark of Gaussian, Inc.
  
 This software contains proprietary and confidential information,
 including trade secrets, belonging to Gaussian, Inc.
  
 This software is provided under written license and may be
 used, copied, transmitted, or stored only in accord with that
 written license.
  
 The following legend is applicable only to US Government
 contracts under FAR:
  
                    RESTRICTED RIGHTS LEGEND
  
 Use, reproduction and disclosure by the US Government is
 subject to restrictions as set forth in subparagraphs (a)
 and (c) of the Commercial Computer Software - Restricted
 Rights clause in FAR 52.227-19.
  
 Gaussian, Inc.
 340 Quinnipiac St., Bldg. 40, Wallingford CT 06492
  
  
 ---------------------------------------------------------------
 Warning -- This program may not be used in any manner that
 competes with the business of Gaussian, Inc. or will provide
 assistance to any competitor of Gaussian, Inc.  The licensee
 of this program is prohibited from giving any competitor of
 Gaussian, Inc. access to this program.  By using this program,
 the user acknowledges that Gaussian, Inc. is engaged in the
 business of creating and licensing software in the field of
 computational chemistry and represents and warrants to the
 licensee that it is not a competitor of Gaussian, Inc. and that
 it will not use this program in any manner prohibited above.
 ---------------------------------------------------------------
  

 Cite this work as:
 Gaussian 16, Revision B.01,
 M. J. Frisch, G. W. Trucks, H. B. Schlegel, G. E. Scuseria, 
 M. A. Robb, J. R. Cheeseman, G. Scalmani, V. Barone, 
 G. A. Petersson, H. Nakatsuji, X. Li, M. Caricato, A. V. Marenich, 
 J. Bloino, B. G. Janesko, R. Gomperts, B. Mennucci, H. P. Hratchian, 
 J. V. Ortiz, A. F. Izmaylov, J. L. Sonnenberg, D. Williams-Young, 
 F. Ding, F. Lipparini, F. Egidi, J. Goings, B. Peng, A. Petrone, 
 T. Henderson, D. Ranasinghe, V. G. Zakrzewski, J. Gao, N. Rega, 
 G. Zheng, W. Liang, M. Hada, M. Ehara, K. Toyota, R. Fukuda, 
 J. Hasegawa, M. Ishida, T. Nakajima, Y. Honda, O. Kitao, H. Nakai, 
 T. Vreven, K. Throssell, J. A. Montgomery, Jr., J. E. Peralta, 
 F. Ogliaro, M. J. Bearpark, J. J. Heyd, E. N. Brothers, K. N. Kudin, 
 V. N. Staroverov, T. A. Keith, R. Kobayashi, J. Normand, 
 K. Raghavachari, A. P. Rendell, J. C. Burant, S. S. Iyengar, 
 J. Tomasi, M. Cossi, J. M. Millam, M. Klene, C. Adamo, R. Cammi, 
 J. W. Ochterski, R. L. Martin, K. Morokuma, O. Farkas, 
 J. B. Foresman, and D. J. Fox, Gaussian, Inc., Wallingford CT, 2016.
 
 ******************************************
 Gaussian 16:  ES64L-G16RevB.01 20-Dec-2017
                30-Sep-2023 
 ******************************************
 %chk=acetoxyl.chk
 %mem=500mw
 %nprocs=4
 Will use up to    4 processors via shared memory.
 ---------------------------------------
 # b3lyp/gen opt freq CPHF(Grid=OneStep)
 ---------------------------------------
 1/18=20,19=15,26=3,38=1/1,3;
 2/9=110,12=2,17=6,18=5,40=1/2;
 3/5=7,11=2,25=1,30=1,71=1,74=-5/1,2,3;
 4//1;
 5/5=2,38=5/2;
 6/7=2,8=2,9=2,10=2,28=1/1;
 7//1,2,3,16;
 1/18=20,19=15,26=3/3(2);
 2/9=110/2;
 99//99;
 2/9=110/2;
 3/5=7,6=1,11=2,25=1,30=1,71=1,74=-5,82=7/1,2,3;
 4/5=5,16=3,69=1/1;
 5/5=2,38=5/2;
 7//1,2,3,16;
 1/18=20,19=15,26=3/3(-5);
 2/9=110/2;
 6/7=2,8=2,9=2,10=2,19=2,28=1/1;
 99/9=1/99;
 ---------------------
 CH3COO, B3LYP/pcseg-2
 ---------------------
 Symbolic Z-matrix:
 Charge =  0 Multiplicity = 2
 C                    -1.38571   0.00004  -0.00314 
 C                     0.10331  -0.00013  -0.0075 
 O                     0.80943   1.03819   0.00147 
 H                    -1.76226   0.89517  -0.49473 
 H                    -1.76245  -0.89427  -0.4962 
 H                    -1.73231  -0.00102   1.03141 
 O                     0.80949  -1.0381    0.00145 
 

 GradGradGradGradGradGradGradGradGradGradGradGradGradGradGradGradGradGrad
 Berny optimization.
 Initialization pass.
                           ----------------------------
                           !    Initial Parameters    !
                           ! (Angstroms and Degrees)  !
 --------------------------                            --------------------------
 ! Name  Definition              Value          Derivative Info.                !
 --------------------------------------------------------------------------------
 ! R1    R(1,2)                  1.489          estimate D2E/DX2                !
 ! R2    R(1,4)                  1.0884         estimate D2E/DX2                !
 ! R3    R(1,5)                  1.0885         estimate D2E/DX2                !
 ! R4    R(1,6)                  1.0911         estimate D2E/DX2                !
 ! R5    R(2,3)                  1.2557         estimate D2E/DX2                !
 ! R6    R(2,7)                  1.2555         estimate D2E/DX2                !
 ! A1    A(2,1,4)              110.1648         estimate D2E/DX2                !
 ! A2    A(2,1,5)              110.1631         estimate D2E/DX2                !
 ! A3    A(2,1,6)              108.6902         estimate D2E/DX2                !
 ! A4    A(4,1,5)              110.5701         estimate D2E/DX2                !
 ! A5    A(4,1,6)              108.611          estimate D2E/DX2                !
 ! A6    A(5,1,6)              108.5883         estimate D2E/DX2                !
 ! A7    A(1,2,3)              124.2091         estimate D2E/DX2                !
 ! A8    A(1,2,7)              124.2334         estimate D2E/DX2                !
 ! A9    A(3,2,7)              111.548          estimate D2E/DX2                !
 ! D1    D(4,1,2,3)             29.4394         estimate D2E/DX2                !
 ! D2    D(4,1,2,7)           -151.7782         estimate D2E/DX2                !
 ! D3    D(5,1,2,3)            151.6869         estimate D2E/DX2                !
 ! D4    D(5,1,2,7)            -29.5307         estimate D2E/DX2                !
 ! D5    D(6,1,2,3)            -89.4512         estimate D2E/DX2                !
 ! D6    D(6,1,2,7)             89.3312         estimate D2E/DX2                !
 --------------------------------------------------------------------------------
 Trust Radius=3.00D-01 FncErr=1.00D-07 GrdErr=1.00D-06 EigMax=2.50D+02 EigMin=1.00D-04
 Number of steps in this run=     31 maximum allowed number of steps=    100.
 GradGradGradGradGradGradGradGradGradGradGradGradGradGradGradGradGradGrad

                          Input orientation:                          
 ---------------------------------------------------------------------
 Center     Atomic      Atomic             Coordinates (Angstroms)
 Number     Number       Type             X           Y           Z
 ---------------------------------------------------------------------
      1          6           0       -1.385706    0.000036   -0.003138
      2          6           0        0.103308   -0.000132   -0.007502
      3          8           0        0.809432    1.038189    0.001471
      4          1           0       -1.762259    0.895171   -0.494731
      5          1           0       -1.762452   -0.894269   -0.496198
      6          1           0       -1.732309   -0.001015    1.031409
      7          8           0        0.809494   -1.038103    0.001449
 ---------------------------------------------------------------------
                    Distance matrix (angstroms):
                    1          2          3          4          5
     1  C    0.000000
     2  C    1.489020   0.000000
     3  O    2.428253   1.255708   0.000000
     4  H    1.088450   2.125864   2.623026   0.000000
     5  H    1.088498   2.125880   3.255250   1.789441   0.000000
     6  H    1.091065   2.109224   2.932774   1.770071   1.769857
     7  O    2.428303   1.255453   2.076292   3.255404   2.623594
                    6          7
     6  H    0.000000
     7  O    2.932087   0.000000
 Stoichiometry    C2H3O2(2)
 Framework group  C1[X(C2H3O2)]
 Deg. of freedom    15
 Full point group                 C1      NOp   1
 Largest Abelian subgroup         C1      NOp   1
 Largest concise Abelian subgroup C1      NOp   1
                         Standard orientation:                         
 ---------------------------------------------------------------------
 Center     Atomic      Atomic             Coordinates (Angstroms)
 Number     Number       Type             X           Y           Z
 ---------------------------------------------------------------------
      1          6           0       -1.385706    0.000036   -0.003138
      2          6           0        0.103308   -0.000132   -0.007502
      3          8           0        0.809432    1.038189    0.001471
      4          1           0       -1.762259    0.895171   -0.494731
      5          1           0       -1.762452   -0.894269   -0.496198
      6          1           0       -1.732309   -0.001015    1.031409
      7          8           0        0.809494   -1.038103    0.001449
 ---------------------------------------------------------------------
 Rotational constants (GHZ):          13.4201358           9.2689354           5.6754354
 General basis read from cards:  (5D, 7F)
 There are   185 symmetry adapted cartesian basis functions of A   symmetry.
 There are   162 symmetry adapted basis functions of A   symmetry.
   162 basis functions,   258 primitive gaussians,   185 cartesian basis functions
    16 alpha electrons       15 beta electrons
       nuclear repulsion energy       113.3319902700 Hartrees.
 NAtoms=    7 NActive=    7 NUniq=    7 SFac= 1.00D+00 NAtFMM=   60 NAOKFM=F Big=F
 Integral buffers will be    131072 words long.
 Raffenetti 2 integral format.
 Two-electron integral symmetry is turned on.
 One-electron integrals computed using PRISM.
 NBasis=   162 RedAO= T EigKep=  6.12D-04  NBF=   162
 NBsUse=   162 1.00D-06 EigRej= -1.00D+00 NBFU=   162
 ExpMin= 7.42D-02 ExpMax= 1.36D+04 ExpMxC= 4.64D+02 IAcc=3 IRadAn=         5 AccDes= 0.00D+00
 Harris functional with IExCor=  402 and IRadAn=       5 diagonalized for initial guess.
 HarFok:  IExCor=  402 AccDes= 0.00D+00 IRadAn=         5 IDoV= 1 UseB2=F ITyADJ=14
 ICtDFT=  3500011 ScaDFX=  1.000000  1.000000  1.000000  1.000000
 FoFCou: FMM=F IPFlag=           0 FMFlag=      100000 FMFlg1=           0
         NFxFlg=           0 DoJE=T BraDBF=F KetDBF=T FulRan=T
         wScrn=  0.000000 ICntrl=       500 IOpCl=  0 I1Cent=   200000004 NGrid=           0
         NMat0=    1 NMatS0=      1 NMatT0=    0 NMatD0=    1 NMtDS0=    0 NMtDT0=    0
 Petite list used in FoFCou.
 Initial guess <Sx>= 0.0000 <Sy>= 0.0000 <Sz>= 0.5000 <S**2>= 0.7500 S= 0.5000
 Keep R1 and R2 ints in memory in canonical form, NReq=178387937.
 Requested convergence on RMS density matrix=1.00D-08 within 128 cycles.
 Requested convergence on MAX density matrix=1.00D-06.
 Requested convergence on             energy=1.00D-06.
 No special actions if energy rises.
 Integral accuracy reduced to 1.0D-05 until final iterations.
 Initial convergence to 1.0D-05 achieved.  Increase integral accuracy.
 SCF Done:  E(UB3LYP) =  -228.510879532     A.U. after   18 cycles
            NFock= 18  Conv=0.40D-08     -V/T= 2.0031
 <Sx>= 0.0000 <Sy>= 0.0000 <Sz>= 0.5000 <S**2>= 0.7569 S= 0.5034
 <L.S>=  0.00000000000    
 Annihilation of the first spin contaminant:
 S**2 before annihilation     0.7569,   after     0.7500

 **********************************************************************

            Population analysis using the SCF Density.

 **********************************************************************

 Orbital symmetries:
 Alpha Orbitals:
       Occupied  (A) (A) (A) (A) (A) (A) (A) (A) (A) (A) (A) (A)
                 (A) (A) (A) (A)
       Virtual   (A) (A) (A) (A) (A) (A) (A) (A) (A) (A) (A) (A)
                 (A) (A) (A) (A) (A) (A) (A) (A) (A) (A) (A) (A)
                 (A) (A) (A) (A) (A) (A) (A) (A) (A) (A) (A) (A)
                 (A) (A) (A) (A) (A) (A) (A) (A) (A) (A) (A) (A)
                 (A) (A) (A) (A) (A) (A) (A) (A) (A) (A) (A) (A)
                 (A) (A) (A) (A) (A) (A) (A) (A) (A) (A) (A) (A)
                 (A) (A) (A) (A) (A) (A) (A) (A) (A) (A) (A) (A)
                 (A) (A) (A) (A) (A) (A) (A) (A) (A) (A) (A) (A)
                 (A) (A) (A) (A) (A) (A) (A) (A) (A) (A) (A) (A)
                 (A) (A) (A) (A) (A) (A) (A) (A) (A) (A) (A) (A)
                 (A) (A) (A) (A) (A) (A) (A) (A) (A) (A) (A) (A)
                 (A) (A) (A) (A) (A) (A) (A) (A) (A) (A) (A) (A)
                 (A) (A)
 Beta  Orbitals:
       Occupied  (A) (A) (A) (A) (A) (A) (A) (A) (A) (A) (A) (A)
                 (A) (A) (A)
       Virtual   (A) (A) (A) (A) (A) (A) (A) (A) (A) (A) (A) (A)
                 (A) (A) (A) (A) (A) (A) (A) (A) (A) (A) (A) (A)
                 (A) (A) (A) (A) (A) (A) (A) (A) (A) (A) (A) (A)
                 (A) (A) (A) (A) (A) (A) (A) (A) (A) (A) (A) (A)
                 (A) (A) (A) (A) (A) (A) (A) (A) (A) (A) (A) (A)
                 (A) (A) (A) (A) (A) (A) (A) (A) (A) (A) (A) (A)
                 (A) (A) (A) (A) (A) (A) (A) (A) (A) (A) (A) (A)
                 (A) (A) (A) (A) (A) (A) (A) (A) (A) (A) (A) (A)
                 (A) (A) (A) (A) (A) (A) (A) (A) (A) (A) (A) (A)
                 (A) (A) (A) (A) (A) (A) (A) (A) (A) (A) (A) (A)
                 (A) (A) (A) (A) (A) (A) (A) (A) (A) (A) (A) (A)
                 (A) (A) (A) (A) (A) (A) (A) (A) (A) (A) (A) (A)
                 (A) (A) (A)
 The electronic state is 2-A.
 Alpha  occ. eigenvalues --  -19.19086 -19.19077 -10.33418 -10.21181  -1.15014
 Alpha  occ. eigenvalues --   -1.03305  -0.78610  -0.57704  -0.52968  -0.50783
 Alpha  occ. eigenvalues --   -0.50520  -0.44176  -0.42772  -0.36902  -0.35219
 Alpha  occ. eigenvalues --   -0.34641
 Alpha virt. eigenvalues --   -0.02659   0.00466   0.06029   0.06621   0.08941
 Alpha virt. eigenvalues --    0.12567   0.13809   0.15736   0.17276   0.18831
 Alpha virt. eigenvalues --    0.25908   0.29626   0.30828   0.31643   0.34237
 Alpha virt. eigenvalues --    0.34350   0.34423   0.40539   0.41820   0.42759
 Alpha virt. eigenvalues --    0.48003   0.48212   0.50646   0.54386   0.64629
 Alpha virt. eigenvalues --    0.70124   0.74030   0.78385   0.89966   0.90636
 Alpha virt. eigenvalues --    0.92823   0.94044   0.95377   1.01437   1.04359
 Alpha virt. eigenvalues --    1.04475   1.12987   1.14988   1.16084   1.21123
 Alpha virt. eigenvalues --    1.23388   1.35532   1.38081   1.40871   1.45879
 Alpha virt. eigenvalues --    1.46886   1.53567   1.56887   1.61012   1.63030
 Alpha virt. eigenvalues --    1.69702   1.74263   1.75603   1.84848   1.87708
 Alpha virt. eigenvalues --    1.90212   1.91820   1.97399   2.04313   2.10327
 Alpha virt. eigenvalues --    2.19550   2.19672   2.22468   2.33799   2.46626
 Alpha virt. eigenvalues --    2.46740   2.54569   2.62778   2.79575   2.87505
 Alpha virt. eigenvalues --    2.93920   3.04422   3.08082   3.23968   3.25427
 Alpha virt. eigenvalues --    3.28364   3.29930   3.41598   3.46855   3.53691
 Alpha virt. eigenvalues --    3.58440   3.67280   3.72756   3.73017   3.80372
 Alpha virt. eigenvalues --    3.81445   3.82827   3.85914   3.90925   3.92880
 Alpha virt. eigenvalues --    3.95582   3.95901   4.02484   4.08361   4.10611
 Alpha virt. eigenvalues --    4.11857   4.16349   4.19191   4.20879   4.26166
 Alpha virt. eigenvalues --    4.30594   4.31601   4.33976   4.36026   4.48903
 Alpha virt. eigenvalues --    4.49476   4.53127   4.55911   4.59740   4.60143
 Alpha virt. eigenvalues --    4.65433   4.67145   4.72455   4.78361   4.90336
 Alpha virt. eigenvalues --    4.93106   4.99192   5.09868   5.15597   5.20190
 Alpha virt. eigenvalues --    5.32692   5.43795   5.48115   5.62135   5.71058
 Alpha virt. eigenvalues --    5.73045   5.77209   5.80576   5.81492   5.84268
 Alpha virt. eigenvalues --    5.89752   5.94858   6.00288   6.01763   6.04308
 Alpha virt. eigenvalues --    6.09379   6.10914   6.16057   6.33510   6.39333
 Alpha virt. eigenvalues --    6.43929   6.49619   6.56025   6.76270   6.76997
 Alpha virt. eigenvalues --    7.12241
  Beta  occ. eigenvalues --  -19.17551 -19.17545 -10.33535 -10.21185  -1.12215
  Beta  occ. eigenvalues --   -0.99685  -0.78325  -0.56414  -0.50150  -0.49522
  Beta  occ. eigenvalues --   -0.49131  -0.43502  -0.42311  -0.32984  -0.31179
  Beta virt. eigenvalues --   -0.19318  -0.02332   0.00518   0.06067   0.06682
  Beta virt. eigenvalues --    0.09055   0.12879   0.14470   0.15743   0.17369
  Beta virt. eigenvalues --    0.18825   0.26193   0.29820   0.30947   0.31648
  Beta virt. eigenvalues --    0.34365   0.34522   0.34747   0.40900   0.42460
  Beta virt. eigenvalues --    0.43468   0.48644   0.49408   0.52562   0.55191
  Beta virt. eigenvalues --    0.65072   0.70527   0.74455   0.78953   0.89979
  Beta virt. eigenvalues --    0.90723   0.93142   0.94102   0.95468   1.01666
  Beta virt. eigenvalues --    1.04420   1.04602   1.13113   1.15539   1.16452
  Beta virt. eigenvalues --    1.21477   1.23492   1.35683   1.38949   1.41516
  Beta virt. eigenvalues --    1.46953   1.48410   1.56152   1.57183   1.62008
  Beta virt. eigenvalues --    1.63187   1.70232   1.75054   1.76063   1.85246
  Beta virt. eigenvalues --    1.90042   1.90568   1.92949   1.97855   2.05135
  Beta virt. eigenvalues --    2.11573   2.20136   2.22065   2.25108   2.34976
  Beta virt. eigenvalues --    2.47586   2.49887   2.54797   2.63111   2.81542
  Beta virt. eigenvalues --    2.88753   2.95245   3.04826   3.08404   3.24017
  Beta virt. eigenvalues --    3.25857   3.28527   3.30158   3.42262   3.47231
  Beta virt. eigenvalues --    3.53704   3.59249   3.67614   3.73144   3.73615
  Beta virt. eigenvalues --    3.80437   3.82039   3.83598   3.86795   3.92278
  Beta virt. eigenvalues --    3.94994   3.97461   3.98391   4.04152   4.09429
  Beta virt. eigenvalues --    4.11400   4.12040   4.16959   4.19682   4.21908
  Beta virt. eigenvalues --    4.26635   4.31070   4.31760   4.34560   4.36539
  Beta virt. eigenvalues --    4.49290   4.50606   4.53276   4.56023   4.60052
  Beta virt. eigenvalues --    4.60406   4.66266   4.67241   4.73269   4.78631
  Beta virt. eigenvalues --    4.90519   4.94000   4.99488   5.10077   5.16508
  Beta virt. eigenvalues --    5.20691   5.32883   5.44445   5.48512   5.62599
  Beta virt. eigenvalues --    5.71385   5.73411   5.77835   5.80670   5.81716
  Beta virt. eigenvalues --    5.84719   5.92620   5.95586   6.02559   6.06244
  Beta virt. eigenvalues --    6.07585   6.10690   6.11752   6.20635   6.35040
  Beta virt. eigenvalues --    6.40515   6.45268   6.50413   6.60243   6.78362
  Beta virt. eigenvalues --    6.81172   7.13836
          Condensed to atoms (all electrons):
               1          2          3          4          5          6
     1  C    4.643623   0.329777  -0.059709   0.412262   0.412230   0.395623
     2  C    0.329777   4.368136   0.432219  -0.032453  -0.032394  -0.005972
     3  O   -0.059709   0.432219   8.000683   0.005595   0.003927  -0.001733
     4  H    0.412262  -0.032453   0.005595   0.586986  -0.021395  -0.016040
     5  H    0.412230  -0.032394   0.003927  -0.021395   0.587008  -0.016053
     6  H    0.395623  -0.005972  -0.001733  -0.016040  -0.016053   0.582994
     7  O   -0.059670   0.432619  -0.071506   0.003935   0.005574  -0.001735
               7
     1  C   -0.059670
     2  C    0.432619
     3  O   -0.071506
     4  H    0.003935
     5  H    0.005574
     6  H   -0.001735
     7  O    8.000367
          Atomic-Atomic Spin Densities.
               1          2          3          4          5          6
     1  C   -0.032103   0.000851   0.010593   0.006298   0.006271  -0.001163
     2  C    0.000851  -0.043670  -0.014089  -0.001296  -0.001295   0.000289
     3  O    0.010593  -0.014089   0.607747  -0.004428  -0.000610   0.000316
     4  H    0.006298  -0.001296  -0.004428   0.004761  -0.002226   0.000415
     5  H    0.006271  -0.001295  -0.000610  -0.002226   0.004769   0.000422
     6  H   -0.001163   0.000289   0.000316   0.000415   0.000422  -0.001325
     7  O    0.010581  -0.014053  -0.065625  -0.000612  -0.004416   0.000313
               7
     1  C    0.010581
     2  C   -0.014053
     3  O   -0.065625
     4  H   -0.000612
     5  H   -0.004416
     6  H    0.000313
     7  O    0.606750
 Mulliken charges and spin densities:
               1          2
     1  C   -0.074137   0.001327
     2  C    0.508068  -0.073263
     3  O   -0.309477   0.533904
     4  H    0.061110   0.002912
     5  H    0.061103   0.002915
     6  H    0.062916  -0.000733
     7  O   -0.309584   0.532938
 Sum of Mulliken charges =  -0.00000   1.00000
 Mulliken charges and spin densities with hydrogens summed into heavy atoms:
               1          2
     1  C    0.110993   0.006420
     2  C    0.508068  -0.073263
     3  O   -0.309477   0.533904
     7  O   -0.309584   0.532938
 Electronic spatial extent (au):  <R**2>=            237.4336
 Charge=             -0.0000 electrons
 Dipole moment (field-independent basis, Debye):
    X=             -3.3918    Y=              0.0005    Z=              0.0197  Tot=              3.3919
 Quadrupole moment (field-independent basis, Debye-Ang):
   XX=            -23.2256   YY=            -25.6722   ZZ=            -22.2207
   XY=              0.0008   XZ=             -0.0671   YZ=             -0.0004
 Traceless Quadrupole moment (field-independent basis, Debye-Ang):
   XX=              0.4806   YY=             -1.9660   ZZ=              1.4854
   XY=              0.0008   XZ=             -0.0671   YZ=             -0.0004
 Octapole moment (field-independent basis, Debye-Ang**2):
  XXX=             -0.6123  YYY=              0.0043  ZZZ=              0.8521  XYY=             -2.7241
  XXY=             -0.0005  XXZ=              0.0817  XZZ=              0.2028  YZZ=             -0.0026
  YYZ=             -0.7732  XYZ=              0.0005
 Hexadecapole moment (field-independent basis, Debye-Ang**3):
 XXXX=           -164.9596 YYYY=           -101.4829 ZZZZ=            -26.6462 XXXY=              0.0027
 XXXZ=             -0.0878 YYYX=             -0.0036 YYYZ=             -0.0003 ZZZX=             -1.6037
 ZZZY=             -0.0008 XXYY=            -44.5578 XXZZ=            -30.4352 YYZZ=            -21.5041
 XXYZ=             -0.0007 YYXZ=              1.4823 ZZXY=              0.0037
 N-N= 1.133319902700D+02 E-N=-7.632690822241D+02  KE= 2.278037840114D+02
                          Isotropic Fermi Contact Couplings
        Atom                 a.u.       MegaHertz       Gauss      10(-4) cm-1
     1  C(13)             -0.01177     -13.23552      -4.72276      -4.41489
     2  C(13)             -0.03739     -42.02879     -14.99692     -14.01930
     3  O(17)              0.12696     -76.96205     -27.46197     -25.67178
     4  H(1)               0.00329      14.68919       5.24147       4.89979
     5  H(1)               0.00328      14.65845       5.23050       4.88953
     6  H(1)              -0.00076      -3.41078      -1.21705      -1.13771
     7  O(17)              0.12678     -76.85111     -27.42239     -25.63477
 --------------------------------------------------------
       Center         ----  Spin Dipole Couplings  ----
                      3XX-RR        3YY-RR        3ZZ-RR
 --------------------------------------------------------
     1   Atom        0.001456      0.013907     -0.015363
     2   Atom        0.022739      0.066079     -0.088818
     3   Atom        0.215542      0.928869     -1.144411
     4   Atom        0.008108     -0.003104     -0.005004
     5   Atom        0.008089     -0.003101     -0.004987
     6   Atom        0.005401     -0.002387     -0.003014
     7   Atom        0.213950      0.928716     -1.142666
 --------------------------------------------------------
                        XY            XZ            YZ
 --------------------------------------------------------
     1   Atom        0.000015      0.001530     -0.000002
     2   Atom        0.000004      0.001162      0.000002
     3   Atom       -1.755233      0.042965     -0.053817
     4   Atom       -0.001524      0.003413     -0.001635
     5   Atom        0.001528      0.003416      0.001635
     6   Atom        0.000006     -0.004514     -0.000001
     7   Atom        1.752184      0.042917      0.053793
 --------------------------------------------------------


 ---------------------------------------------------------------------------------
              Anisotropic Spin Dipole Couplings in Principal Axis System
 ---------------------------------------------------------------------------------

       Atom             a.u.   MegaHertz   Gauss  10(-4) cm-1        Axes

              Baa    -0.0155    -2.080    -0.742    -0.694 -0.0899  0.0001  0.9960
     1 C(13)  Bbb     0.0016     0.214     0.076     0.071  0.9960 -0.0012  0.0899
              Bcc     0.0139     1.866     0.666     0.622  0.0012  1.0000  0.0000
 
              Baa    -0.0888   -11.920    -4.253    -3.976 -0.0104 -0.0000  0.9999
     2 C(13)  Bbb     0.0228     3.053     1.089     1.018  0.9999 -0.0001  0.0104
              Bcc     0.0661     8.867     3.164     2.958  0.0001  1.0000  0.0000
 
              Baa    -1.2189    88.199    31.472    29.420  0.7741  0.6329  0.0108
     3 O(17)  Bbb    -1.1458    82.906    29.583    27.654 -0.0207  0.0084  0.9997
              Bcc     2.3647  -171.105   -61.055   -57.075 -0.6327  0.7742 -0.0196
 
              Baa    -0.0063    -3.382    -1.207    -1.128 -0.1751  0.3771  0.9095
     4 H(1)   Bbb    -0.0029    -1.542    -0.550    -0.514  0.2305  0.9138 -0.3345
              Bcc     0.0092     4.924     1.757     1.642  0.9572 -0.1511  0.2469
 
              Baa    -0.0063    -3.375    -1.204    -1.126 -0.1754 -0.3778  0.9091
     5 H(1)   Bbb    -0.0029    -1.541    -0.550    -0.514 -0.2313  0.9134  0.3349
              Bcc     0.0092     4.917     1.754     1.640  0.9569  0.1516  0.2476
 
              Baa    -0.0050    -2.656    -0.948    -0.886  0.3989 -0.0004  0.9170
     6 H(1)   Bbb    -0.0024    -1.274    -0.454    -0.425 -0.0004  1.0000  0.0006
              Bcc     0.0074     3.929     1.402     1.311  0.9170  0.0006 -0.3989
 
              Baa    -1.2169    88.057    31.421    29.373  0.7744 -0.6326  0.0107
     7 O(17)  Bbb    -1.1440    82.780    29.538    27.612 -0.0207 -0.0084  0.9997
              Bcc     2.3609  -170.836   -60.959   -56.985  0.6324  0.7744  0.0196
 

 ---------------------------------------------------------------------------------

 Calling FoFJK, ICntrl=      2127 FMM=F ISym2X=0 I1Cent= 0 IOpClX= 1 NMat=1 NMatS=1 NMatT=0.
 ***** Axes restored to original set *****
 -------------------------------------------------------------------
 Center     Atomic                   Forces (Hartrees/Bohr)
 Number     Number              X              Y              Z
 -------------------------------------------------------------------
      1        6          -0.000008935   -0.000049319    0.000006874
      2        6           0.000011751    0.000108961    0.000005726
      3        8          -0.000032272   -0.000029992   -0.000002645
      4        1          -0.000007316    0.000012090   -0.000001084
      5        1           0.000008821    0.000012000   -0.000006925
      6        1           0.000004677    0.000016314   -0.000000403
      7        8           0.000023274   -0.000070054   -0.000001542
 -------------------------------------------------------------------
 Cartesian Forces:  Max     0.000108961 RMS     0.000032922

 GradGradGradGradGradGradGradGradGradGradGradGradGradGradGradGradGradGrad
 Berny optimization.
 FormGI is forming the generalized inverse of G from B-inverse, IUseBI=4.
 Internal  Forces:  Max     0.000071001 RMS     0.000020468
 Search for a local minimum.
 Step number   1 out of a maximum of   31
 All quantities printed in internal units (Hartrees-Bohrs-Radians)
 Mixed Optimization -- En-DIIS/RFO-DIIS
 Second derivative matrix not updated -- first step.
 ITU=  0
     Eigenvalues ---    0.00911   0.00912   0.07437   0.07711   0.16000
     Eigenvalues ---    0.16000   0.16000   0.25000   0.25000   0.33557
     Eigenvalues ---    0.34690   0.34987   0.34992   0.81163   0.81254
 RFO step:  Lambda=-1.98916677D-08 EMin= 9.11186525D-03
 Linear search not attempted -- first point.
 Iteration  1 RMS(Cart)=  0.00007012 RMS(Int)=  0.00000001
 Iteration  2 RMS(Cart)=  0.00000001 RMS(Int)=  0.00000000
 Variable       Old X    -DE/DX   Delta X   Delta X   Delta X     New X
                                 (Linear)    (Quad)   (Total)
    R1        2.81384   0.00000   0.00000   0.00001   0.00001   2.81385
    R2        2.05687   0.00001   0.00000   0.00004   0.00004   2.05691
    R3        2.05696  -0.00001   0.00000  -0.00003  -0.00003   2.05693
    R4        2.06181  -0.00000   0.00000  -0.00001  -0.00001   2.06181
    R5        2.37294  -0.00004   0.00000  -0.00005  -0.00005   2.37289
    R6        2.37246   0.00007   0.00000   0.00009   0.00009   2.37255
    A1        1.92274   0.00000   0.00000  -0.00001  -0.00001   1.92273
    A2        1.92271  -0.00001   0.00000  -0.00001  -0.00001   1.92269
    A3        1.89700  -0.00000   0.00000  -0.00002  -0.00002   1.89698
    A4        1.92981  -0.00000   0.00000  -0.00002  -0.00002   1.92979
    A5        1.89562  -0.00001   0.00000  -0.00008  -0.00008   1.89554
    A6        1.89522   0.00001   0.00000   0.00015   0.00015   1.89537
    A7        2.16786   0.00000   0.00000   0.00000   0.00000   2.16786
    A8        2.16828  -0.00002   0.00000  -0.00010  -0.00010   2.16819
    A9        1.94688   0.00002   0.00000   0.00010   0.00010   1.94698
    D1        0.51381  -0.00000   0.00000  -0.00017  -0.00017   0.51364
    D2       -2.64903  -0.00000   0.00000   0.00010   0.00010  -2.64893
    D3        2.64744  -0.00001   0.00000  -0.00021  -0.00021   2.64722
    D4       -0.51541  -0.00000   0.00000   0.00006   0.00006  -0.51535
    D5       -1.56122   0.00001   0.00000  -0.00005  -0.00005  -1.56127
    D6        1.55912   0.00001   0.00000   0.00022   0.00022   1.55935
         Item               Value     Threshold  Converged?
 Maximum Force            0.000071     0.000450     YES
 RMS     Force            0.000020     0.000300     YES
 Maximum Displacement     0.000145     0.001800     YES
 RMS     Displacement     0.000070     0.001200     YES
 Predicted change in Energy=-9.945826D-09
 Optimization completed.
    -- Stationary point found.
                           ----------------------------
                           !   Optimized Parameters   !
                           ! (Angstroms and Degrees)  !
 --------------------------                            --------------------------
 ! Name  Definition              Value          Derivative Info.                !
 --------------------------------------------------------------------------------
 ! R1    R(1,2)                  1.489          -DE/DX =    0.0                 !
 ! R2    R(1,4)                  1.0884         -DE/DX =    0.0                 !
 ! R3    R(1,5)                  1.0885         -DE/DX =    0.0                 !
 ! R4    R(1,6)                  1.0911         -DE/DX =    0.0                 !
 ! R5    R(2,3)                  1.2557         -DE/DX =    0.0                 !
 ! R6    R(2,7)                  1.2555         -DE/DX =    0.0001              !
 ! A1    A(2,1,4)              110.1648         -DE/DX =    0.0                 !
 ! A2    A(2,1,5)              110.1631         -DE/DX =    0.0                 !
 ! A3    A(2,1,6)              108.6902         -DE/DX =    0.0                 !
 ! A4    A(4,1,5)              110.5701         -DE/DX =    0.0                 !
 ! A5    A(4,1,6)              108.611          -DE/DX =    0.0                 !
 ! A6    A(5,1,6)              108.5883         -DE/DX =    0.0                 !
 ! A7    A(1,2,3)              124.2091         -DE/DX =    0.0                 !
 ! A8    A(1,2,7)              124.2334         -DE/DX =    0.0                 !
 ! A9    A(3,2,7)              111.548          -DE/DX =    0.0                 !
 ! D1    D(4,1,2,3)             29.4394         -DE/DX =    0.0                 !
 ! D2    D(4,1,2,7)           -151.7782         -DE/DX =    0.0                 !
 ! D3    D(5,1,2,3)            151.6869         -DE/DX =    0.0                 !
 ! D4    D(5,1,2,7)            -29.5307         -DE/DX =    0.0                 !
 ! D5    D(6,1,2,3)            -89.4512         -DE/DX =    0.0                 !
 ! D6    D(6,1,2,7)             89.3312         -DE/DX =    0.0                 !
 --------------------------------------------------------------------------------
 GradGradGradGradGradGradGradGradGradGradGradGradGradGradGradGradGradGrad

                          Input orientation:                          
 ---------------------------------------------------------------------
 Center     Atomic      Atomic             Coordinates (Angstroms)
 Number     Number       Type             X           Y           Z
 ---------------------------------------------------------------------
      1          6           0       -1.385706    0.000036   -0.003138
      2          6           0        0.103308   -0.000132   -0.007502
      3          8           0        0.809432    1.038189    0.001471
      4          1           0       -1.762259    0.895171   -0.494731
      5          1           0       -1.762452   -0.894269   -0.496198
      6          1           0       -1.732309   -0.001015    1.031409
      7          8           0        0.809494   -1.038103    0.001449
 ---------------------------------------------------------------------
                    Distance matrix (angstroms):
                    1          2          3          4          5
     1  C    0.000000
     2  C    1.489020   0.000000
     3  O    2.428253   1.255708   0.000000
     4  H    1.088450   2.125864   2.623026   0.000000
     5  H    1.088498   2.125880   3.255250   1.789441   0.000000
     6  H    1.091065   2.109224   2.932774   1.770071   1.769857
     7  O    2.428303   1.255453   2.076292   3.255404   2.623594
                    6          7
     6  H    0.000000
     7  O    2.932087   0.000000
 Stoichiometry    C2H3O2(2)
 Framework group  C1[X(C2H3O2)]
 Deg. of freedom    15
 Full point group                 C1      NOp   1
 Largest Abelian subgroup         C1      NOp   1
 Largest concise Abelian subgroup C1      NOp   1
                         Standard orientation:                         
 ---------------------------------------------------------------------
 Center     Atomic      Atomic             Coordinates (Angstroms)
 Number     Number       Type             X           Y           Z
 ---------------------------------------------------------------------
      1          6           0       -1.385706    0.000036   -0.003138
      2          6           0        0.103308   -0.000132   -0.007502
      3          8           0        0.809432    1.038189    0.001471
      4          1           0       -1.762259    0.895171   -0.494731
      5          1           0       -1.762452   -0.894269   -0.496198
      6          1           0       -1.732309   -0.001015    1.031409
      7          8           0        0.809494   -1.038103    0.001449
 ---------------------------------------------------------------------
 Rotational constants (GHZ):          13.4201358           9.2689354           5.6754354
 1\1\GINC-GAMBA\FOpt\UB3LYP\Gen\C2H3O2(2)\IRIKURA\30-Sep-2023\0\\# b3ly
 p/gen opt freq CPHF(Grid=OneStep)\\CH3COO, B3LYP/pcseg-2\\0,2\C,-1.385
 706,0.000036,-0.003138\C,0.103308,-0.000132,-0.007502\O,0.809432,1.038
 189,0.001471\H,-1.762259,0.895171,-0.494731\H,-1.762452,-0.894269,-0.4
 96198\H,-1.732309,-0.001015,1.031409\O,0.809494,-1.038103,0.001449\\Ve
 rsion=ES64L-G16RevB.01\State=2-A\HF=-228.5108795\S2=0.756896\S2-1=0.\S
 2A=0.750024\RMSD=3.998e-09\RMSF=3.292e-05\Dipole=-1.334456,0.0001898,0
 .0077552\Quadrupole=0.3573072,-1.4616763,1.1043692,0.0005767,-0.049857
 9,-0.0002841\PG=C01 [X(C2H3O2)]\\@


 The best way to pay for a lovely moment is to enjoy it.
 -- Richard Bach
 Job cpu time:       0 days  0 hours  2 minutes 20.2 seconds.
 Elapsed time:       0 days  0 hours  0 minutes 39.2 seconds.
 File lengths (MBytes):  RWF=     23 Int=      0 D2E=      0 Chk=      3 Scr=      1
 Normal termination of Gaussian 16 at Sat Sep 30 03:26:01 2023.
 Link1:  Proceeding to internal job step number  2.
 ------------------------------------------------------------------
 #N Geom=AllCheck Guess=TCheck SCRF=Check GenChk UB3LYP/ChkBas Freq
 ------------------------------------------------------------------
 1/10=4,29=7,30=1,38=1,40=1/1,3;
 2/12=2,40=1/2;
 3/5=7,6=2,11=2,14=-4,25=1,30=1,67=1,70=2,71=2,74=-5,82=7,116=2,140=1/1,2,3;
 4/5=101/1;
 5/5=2,38=6,98=1/2;
 8/6=4,10=90,11=11/1;
 11/6=1,8=1,9=11,15=111,16=1/1,2,10;
 10/6=1,60=-420/2;
 6/7=2,8=2,9=2,10=2,28=1/1;
 7/8=1,10=1,25=1/1,2,3,16;
 1/10=4,30=1/3;
 99//99;
 Structure from the checkpoint file:  "acetoxyl.chk"
 ---------------------
 CH3COO, B3LYP/pcseg-2
 ---------------------
 Charge =  0 Multiplicity = 2
 Redundant internal coordinates found in file.  (old form).
 C,0,-1.385706,0.000036,-0.003138
 C,0,0.103308,-0.000132,-0.007502
 O,0,0.809432,1.038189,0.001471
 H,0,-1.762259,0.895171,-0.494731
 H,0,-1.762452,-0.894269,-0.496198
 H,0,-1.732309,-0.001015,1.031409
 O,0,0.809494,-1.038103,0.001449
 Recover connectivity data from disk.

 GradGradGradGradGradGradGradGradGradGradGradGradGradGradGradGradGradGrad
 Berny optimization.
 Initialization pass.
                           ----------------------------
                           !    Initial Parameters    !
                           ! (Angstroms and Degrees)  !
 --------------------------                            --------------------------
 ! Name  Definition              Value          Derivative Info.                !
 --------------------------------------------------------------------------------
 ! R1    R(1,2)                  1.489          calculate D2E/DX2 analytically  !
 ! R2    R(1,4)                  1.0884         calculate D2E/DX2 analytically  !
 ! R3    R(1,5)                  1.0885         calculate D2E/DX2 analytically  !
 ! R4    R(1,6)                  1.0911         calculate D2E/DX2 analytically  !
 ! R5    R(2,3)                  1.2557         calculate D2E/DX2 analytically  !
 ! R6    R(2,7)                  1.2555         calculate D2E/DX2 analytically  !
 ! A1    A(2,1,4)              110.1648         calculate D2E/DX2 analytically  !
 ! A2    A(2,1,5)              110.1631         calculate D2E/DX2 analytically  !
 ! A3    A(2,1,6)              108.6902         calculate D2E/DX2 analytically  !
 ! A4    A(4,1,5)              110.5701         calculate D2E/DX2 analytically  !
 ! A5    A(4,1,6)              108.611          calculate D2E/DX2 analytically  !
 ! A6    A(5,1,6)              108.5883         calculate D2E/DX2 analytically  !
 ! A7    A(1,2,3)              124.2091         calculate D2E/DX2 analytically  !
 ! A8    A(1,2,7)              124.2334         calculate D2E/DX2 analytically  !
 ! A9    A(3,2,7)              111.548          calculate D2E/DX2 analytically  !
 ! D1    D(4,1,2,3)             29.4394         calculate D2E/DX2 analytically  !
 ! D2    D(4,1,2,7)           -151.7782         calculate D2E/DX2 analytically  !
 ! D3    D(5,1,2,3)            151.6869         calculate D2E/DX2 analytically  !
 ! D4    D(5,1,2,7)            -29.5307         calculate D2E/DX2 analytically  !
 ! D5    D(6,1,2,3)            -89.4512         calculate D2E/DX2 analytically  !
 ! D6    D(6,1,2,7)             89.3312         calculate D2E/DX2 analytically  !
 --------------------------------------------------------------------------------
 Trust Radius=3.00D-01 FncErr=1.00D-07 GrdErr=1.00D-07 EigMax=2.50D+02 EigMin=1.00D-04
 Number of steps in this run=      2 maximum allowed number of steps=      2.
 GradGradGradGradGradGradGradGradGradGradGradGradGradGradGradGradGradGrad

                          Input orientation:                          
 ---------------------------------------------------------------------
 Center     Atomic      Atomic             Coordinates (Angstroms)
 Number     Number       Type             X           Y           Z
 ---------------------------------------------------------------------
      1          6           0       -1.385706    0.000036   -0.003138
      2          6           0        0.103308   -0.000132   -0.007502
      3          8           0        0.809432    1.038189    0.001471
      4          1           0       -1.762259    0.895171   -0.494731
      5          1           0       -1.762452   -0.894269   -0.496198
      6          1           0       -1.732309   -0.001015    1.031409
      7          8           0        0.809494   -1.038103    0.001449
 ---------------------------------------------------------------------
                    Distance matrix (angstroms):
                    1          2          3          4          5
     1  C    0.000000
     2  C    1.489020   0.000000
     3  O    2.428253   1.255708   0.000000
     4  H    1.088450   2.125864   2.623026   0.000000
     5  H    1.088498   2.125880   3.255250   1.789441   0.000000
     6  H    1.091065   2.109224   2.932774   1.770071   1.769857
     7  O    2.428303   1.255453   2.076292   3.255404   2.623594
                    6          7
     6  H    0.000000
     7  O    2.932087   0.000000
 Stoichiometry    C2H3O2(2)
 Framework group  C1[X(C2H3O2)]
 Deg. of freedom    15
 Full point group                 C1      NOp   1
 Largest Abelian subgroup         C1      NOp   1
 Largest concise Abelian subgroup C1      NOp   1
                         Standard orientation:                         
 ---------------------------------------------------------------------
 Center     Atomic      Atomic             Coordinates (Angstroms)
 Number     Number       Type             X           Y           Z
 ---------------------------------------------------------------------
      1          6           0       -1.385706    0.000036   -0.003138
      2          6           0        0.103308   -0.000132   -0.007502
      3          8           0        0.809432    1.038189    0.001471
      4          1           0       -1.762259    0.895171   -0.494731
      5          1           0       -1.762452   -0.894269   -0.496198
      6          1           0       -1.732309   -0.001015    1.031409
      7          8           0        0.809494   -1.038103    0.001449
 ---------------------------------------------------------------------
 Rotational constants (GHZ):          13.4201358           9.2689354           5.6754354
 Basis read from chk: "acetoxyl.chk" (5D, 7F)
 There are   185 symmetry adapted cartesian basis functions of A   symmetry.
 There are   162 symmetry adapted basis functions of A   symmetry.
   162 basis functions,   258 primitive gaussians,   185 cartesian basis functions
    16 alpha electrons       15 beta electrons
       nuclear repulsion energy       113.3319902700 Hartrees.
 NAtoms=    7 NActive=    7 NUniq=    7 SFac= 1.00D+00 NAtFMM=   60 NAOKFM=F Big=F
 Integral buffers will be    131072 words long.
 Raffenetti 2 integral format.
 Two-electron integral symmetry is turned on.
 One-electron integrals computed using PRISM.
 NBasis=   162 RedAO= T EigKep=  6.12D-04  NBF=   162
 NBsUse=   162 1.00D-06 EigRej= -1.00D+00 NBFU=   162
 Initial guess from the checkpoint file:  "acetoxyl.chk"
 B after Tr=    -0.000000   -0.000000   -0.000000
         Rot=    1.000000    0.000000   -0.000000   -0.000000 Ang=   0.00 deg.
 Initial guess <Sx>= 0.0000 <Sy>= 0.0000 <Sz>= 0.5000 <S**2>= 0.7569 S= 0.5034
 Keep R1 and R2 ints in memory in canonical form, NReq=178387937.
 Requested convergence on RMS density matrix=1.00D-08 within 128 cycles.
 Requested convergence on MAX density matrix=1.00D-06.
 Requested convergence on             energy=1.00D-06.
 No special actions if energy rises.
 SCF Done:  E(UB3LYP) =  -228.510879532     A.U. after    1 cycles
            NFock=  1  Conv=0.16D-08     -V/T= 2.0031
 <Sx>= 0.0000 <Sy>= 0.0000 <Sz>= 0.5000 <S**2>= 0.7569 S= 0.5034
 <L.S>=  0.00000000000    
 Annihilation of the first spin contaminant:
 S**2 before annihilation     0.7569,   after     0.7500
 DoSCS=F DFT=T ScalE2(SS,OS)=  1.000000  1.000000
 Range of M.O.s used for correlation:     1   162
 NBasis=   162 NAE=    16 NBE=    15 NFC=     0 NFV=     0
 NROrb=    162 NOA=    16 NOB=    15 NVA=   146 NVB=   147

 **** Warning!!: The largest alpha MO coefficient is  0.14696858D+02


 **** Warning!!: The largest beta MO coefficient is  0.14837427D+02

 Symmetrizing basis deriv contribution to polar:
 IMax=3 JMax=2 DiffMx= 0.00D+00
 G2DrvN: will do     8 centers at a time, making    1 passes.
 Calling FoFCou, ICntrl=  3107 FMM=F I1Cent=   0 AccDes= 0.00D+00.
 End of G2Drv F.D. properties file   721 does not exist.
 End of G2Drv F.D. properties file   722 does not exist.
 End of G2Drv F.D. properties file   788 does not exist.
          IDoAtm=1111111
          Differentiating once with respect to electric field.
                with respect to dipole field.
          Differentiating once with respect to nuclear coordinates.
 Keep R1 and R2 ints in memory in canonical form, NReq=178386153.
          There are    24 degrees of freedom in the 1st order CPHF.  IDoFFX=6 NUNeed=     3.
     21 vectors produced by pass  0 Test12= 1.89D-14 4.17D-09 XBig12= 2.24D+02 1.26D+01.
 AX will form    21 AO Fock derivatives at one time.
     21 vectors produced by pass  1 Test12= 1.89D-14 4.17D-09 XBig12= 1.99D+02 5.10D+00.
     21 vectors produced by pass  2 Test12= 1.89D-14 4.17D-09 XBig12= 1.73D+01 9.23D-01.
     21 vectors produced by pass  3 Test12= 1.89D-14 4.17D-09 XBig12= 1.67D-01 1.17D-01.
     21 vectors produced by pass  4 Test12= 1.89D-14 4.17D-09 XBig12= 2.06D-03 1.06D-02.
     21 vectors produced by pass  5 Test12= 1.89D-14 4.17D-09 XBig12= 1.40D-05 1.05D-03.
     16 vectors produced by pass  6 Test12= 1.89D-14 4.17D-09 XBig12= 6.33D-08 4.78D-05.
      7 vectors produced by pass  7 Test12= 1.89D-14 4.17D-09 XBig12= 3.63D-10 3.24D-06.
      2 vectors produced by pass  8 Test12= 1.89D-14 4.17D-09 XBig12= 1.45D-12 1.91D-07.
      1 vectors produced by pass  9 Test12= 1.89D-14 4.17D-09 XBig12= 7.44D-15 1.53D-08.
 InvSVY:  IOpt=1 It=  1 EMax= 4.01D-15
 Solved reduced A of dimension   152 with    24 vectors.
 Isotropic polarizability for W=    0.000000       35.13 Bohr**3.
 End of Minotr F.D. properties file   721 does not exist.
 End of Minotr F.D. properties file   722 does not exist.
 End of Minotr F.D. properties file   788 does not exist.

 **********************************************************************

            Population analysis using the SCF Density.

 **********************************************************************

 Orbital symmetries:
 Alpha Orbitals:
       Occupied  (A) (A) (A) (A) (A) (A) (A) (A) (A) (A) (A) (A)
                 (A) (A) (A) (A)
       Virtual   (A) (A) (A) (A) (A) (A) (A) (A) (A) (A) (A) (A)
                 (A) (A) (A) (A) (A) (A) (A) (A) (A) (A) (A) (A)
                 (A) (A) (A) (A) (A) (A) (A) (A) (A) (A) (A) (A)
                 (A) (A) (A) (A) (A) (A) (A) (A) (A) (A) (A) (A)
                 (A) (A) (A) (A) (A) (A) (A) (A) (A) (A) (A) (A)
                 (A) (A) (A) (A) (A) (A) (A) (A) (A) (A) (A) (A)
                 (A) (A) (A) (A) (A) (A) (A) (A) (A) (A) (A) (A)
                 (A) (A) (A) (A) (A) (A) (A) (A) (A) (A) (A) (A)
                 (A) (A) (A) (A) (A) (A) (A) (A) (A) (A) (A) (A)
                 (A) (A) (A) (A) (A) (A) (A) (A) (A) (A) (A) (A)
                 (A) (A) (A) (A) (A) (A) (A) (A) (A) (A) (A) (A)
                 (A) (A) (A) (A) (A) (A) (A) (A) (A) (A) (A) (A)
                 (A) (A)
 Beta  Orbitals:
       Occupied  (A) (A) (A) (A) (A) (A) (A) (A) (A) (A) (A) (A)
                 (A) (A) (A)
       Virtual   (A) (A) (A) (A) (A) (A) (A) (A) (A) (A) (A) (A)
                 (A) (A) (A) (A) (A) (A) (A) (A) (A) (A) (A) (A)
                 (A) (A) (A) (A) (A) (A) (A) (A) (A) (A) (A) (A)
                 (A) (A) (A) (A) (A) (A) (A) (A) (A) (A) (A) (A)
                 (A) (A) (A) (A) (A) (A) (A) (A) (A) (A) (A) (A)
                 (A) (A) (A) (A) (A) (A) (A) (A) (A) (A) (A) (A)
                 (A) (A) (A) (A) (A) (A) (A) (A) (A) (A) (A) (A)
                 (A) (A) (A) (A) (A) (A) (A) (A) (A) (A) (A) (A)
                 (A) (A) (A) (A) (A) (A) (A) (A) (A) (A) (A) (A)
                 (A) (A) (A) (A) (A) (A) (A) (A) (A) (A) (A) (A)
                 (A) (A) (A) (A) (A) (A) (A) (A) (A) (A) (A) (A)
                 (A) (A) (A) (A) (A) (A) (A) (A) (A) (A) (A) (A)
                 (A) (A) (A)
 The electronic state is 2-A.
 Alpha  occ. eigenvalues --  -19.19086 -19.19077 -10.33418 -10.21181  -1.15014
 Alpha  occ. eigenvalues --   -1.03305  -0.78610  -0.57704  -0.52968  -0.50783
 Alpha  occ. eigenvalues --   -0.50520  -0.44176  -0.42772  -0.36902  -0.35219
 Alpha  occ. eigenvalues --   -0.34641
 Alpha virt. eigenvalues --   -0.02659   0.00466   0.06029   0.06621   0.08941
 Alpha virt. eigenvalues --    0.12567   0.13809   0.15736   0.17276   0.18831
 Alpha virt. eigenvalues --    0.25908   0.29626   0.30828   0.31643   0.34237
 Alpha virt. eigenvalues --    0.34350   0.34423   0.40539   0.41820   0.42759
 Alpha virt. eigenvalues --    0.48003   0.48212   0.50646   0.54386   0.64629
 Alpha virt. eigenvalues --    0.70124   0.74030   0.78385   0.89966   0.90636
 Alpha virt. eigenvalues --    0.92823   0.94044   0.95377   1.01437   1.04359
 Alpha virt. eigenvalues --    1.04475   1.12987   1.14988   1.16084   1.21123
 Alpha virt. eigenvalues --    1.23388   1.35532   1.38081   1.40871   1.45879
 Alpha virt. eigenvalues --    1.46886   1.53567   1.56887   1.61012   1.63030
 Alpha virt. eigenvalues --    1.69702   1.74263   1.75603   1.84848   1.87708
 Alpha virt. eigenvalues --    1.90212   1.91820   1.97399   2.04313   2.10327
 Alpha virt. eigenvalues --    2.19550   2.19672   2.22468   2.33799   2.46626
 Alpha virt. eigenvalues --    2.46740   2.54569   2.62778   2.79575   2.87505
 Alpha virt. eigenvalues --    2.93920   3.04422   3.08082   3.23968   3.25427
 Alpha virt. eigenvalues --    3.28364   3.29930   3.41598   3.46855   3.53691
 Alpha virt. eigenvalues --    3.58440   3.67280   3.72756   3.73017   3.80372
 Alpha virt. eigenvalues --    3.81445   3.82827   3.85914   3.90925   3.92880
 Alpha virt. eigenvalues --    3.95582   3.95901   4.02484   4.08361   4.10611
 Alpha virt. eigenvalues --    4.11857   4.16349   4.19191   4.20879   4.26166
 Alpha virt. eigenvalues --    4.30594   4.31601   4.33976   4.36026   4.48903
 Alpha virt. eigenvalues --    4.49476   4.53127   4.55911   4.59740   4.60143
 Alpha virt. eigenvalues --    4.65433   4.67145   4.72455   4.78361   4.90336
 Alpha virt. eigenvalues --    4.93106   4.99192   5.09868   5.15597   5.20190
 Alpha virt. eigenvalues --    5.32692   5.43795   5.48115   5.62135   5.71058
 Alpha virt. eigenvalues --    5.73045   5.77209   5.80576   5.81492   5.84268
 Alpha virt. eigenvalues --    5.89752   5.94858   6.00288   6.01763   6.04308
 Alpha virt. eigenvalues --    6.09379   6.10914   6.16057   6.33510   6.39333
 Alpha virt. eigenvalues --    6.43929   6.49619   6.56025   6.76270   6.76997
 Alpha virt. eigenvalues --    7.12241
  Beta  occ. eigenvalues --  -19.17551 -19.17545 -10.33535 -10.21185  -1.12215
  Beta  occ. eigenvalues --   -0.99685  -0.78325  -0.56414  -0.50150  -0.49522
  Beta  occ. eigenvalues --   -0.49131  -0.43502  -0.42311  -0.32984  -0.31179
  Beta virt. eigenvalues --   -0.19318  -0.02332   0.00518   0.06067   0.06682
  Beta virt. eigenvalues --    0.09055   0.12879   0.14470   0.15743   0.17369
  Beta virt. eigenvalues --    0.18825   0.26193   0.29820   0.30947   0.31648
  Beta virt. eigenvalues --    0.34365   0.34522   0.34747   0.40900   0.42460
  Beta virt. eigenvalues --    0.43468   0.48644   0.49408   0.52562   0.55191
  Beta virt. eigenvalues --    0.65072   0.70527   0.74455   0.78953   0.89979
  Beta virt. eigenvalues --    0.90723   0.93142   0.94102   0.95468   1.01666
  Beta virt. eigenvalues --    1.04420   1.04602   1.13113   1.15539   1.16452
  Beta virt. eigenvalues --    1.21477   1.23492   1.35683   1.38949   1.41516
  Beta virt. eigenvalues --    1.46953   1.48410   1.56152   1.57183   1.62008
  Beta virt. eigenvalues --    1.63187   1.70232   1.75054   1.76063   1.85246
  Beta virt. eigenvalues --    1.90042   1.90568   1.92949   1.97855   2.05135
  Beta virt. eigenvalues --    2.11573   2.20136   2.22065   2.25108   2.34976
  Beta virt. eigenvalues --    2.47586   2.49887   2.54797   2.63111   2.81542
  Beta virt. eigenvalues --    2.88753   2.95245   3.04826   3.08404   3.24017
  Beta virt. eigenvalues --    3.25857   3.28527   3.30158   3.42262   3.47231
  Beta virt. eigenvalues --    3.53704   3.59249   3.67614   3.73144   3.73615
  Beta virt. eigenvalues --    3.80437   3.82039   3.83598   3.86795   3.92278
  Beta virt. eigenvalues --    3.94994   3.97461   3.98391   4.04152   4.09429
  Beta virt. eigenvalues --    4.11400   4.12040   4.16959   4.19682   4.21908
  Beta virt. eigenvalues --    4.26635   4.31070   4.31760   4.34560   4.36539
  Beta virt. eigenvalues --    4.49290   4.50606   4.53276   4.56023   4.60052
  Beta virt. eigenvalues --    4.60406   4.66266   4.67241   4.73269   4.78631
  Beta virt. eigenvalues --    4.90519   4.94000   4.99488   5.10077   5.16508
  Beta virt. eigenvalues --    5.20691   5.32883   5.44445   5.48512   5.62599
  Beta virt. eigenvalues --    5.71385   5.73411   5.77835   5.80670   5.81716
  Beta virt. eigenvalues --    5.84719   5.92620   5.95586   6.02559   6.06244
  Beta virt. eigenvalues --    6.07585   6.10690   6.11752   6.20635   6.35040
  Beta virt. eigenvalues --    6.40515   6.45268   6.50413   6.60243   6.78362
  Beta virt. eigenvalues --    6.81172   7.13836
          Condensed to atoms (all electrons):
               1          2          3          4          5          6
     1  C    4.643623   0.329777  -0.059709   0.412262   0.412230   0.395623
     2  C    0.329777   4.368136   0.432220  -0.032453  -0.032394  -0.005972
     3  O   -0.059709   0.432220   8.000683   0.005595   0.003927  -0.001733
     4  H    0.412262  -0.032453   0.005595   0.586986  -0.021395  -0.016040
     5  H    0.412230  -0.032394   0.003927  -0.021395   0.587008  -0.016053
     6  H    0.395623  -0.005972  -0.001733  -0.016040  -0.016053   0.582994
     7  O   -0.059670   0.432618  -0.071506   0.003935   0.005574  -0.001735
               7
     1  C   -0.059670
     2  C    0.432618
     3  O   -0.071506
     4  H    0.003935
     5  H    0.005574
     6  H   -0.001735
     7  O    8.000367
          Atomic-Atomic Spin Densities.
               1          2          3          4          5          6
     1  C   -0.032104   0.000851   0.010593   0.006298   0.006271  -0.001163
     2  C    0.000851  -0.043670  -0.014089  -0.001296  -0.001295   0.000289
     3  O    0.010593  -0.014089   0.607747  -0.004428  -0.000610   0.000316
     4  H    0.006298  -0.001296  -0.004428   0.004761  -0.002226   0.000415
     5  H    0.006271  -0.001295  -0.000610  -0.002226   0.004769   0.000422
     6  H   -0.001163   0.000289   0.000316   0.000415   0.000422  -0.001325
     7  O    0.010581  -0.014053  -0.065625  -0.000612  -0.004416   0.000313
               7
     1  C    0.010581
     2  C   -0.014053
     3  O   -0.065625
     4  H   -0.000612
     5  H   -0.004416
     6  H    0.000313
     7  O    0.606749
 Mulliken charges and spin densities:
               1          2
     1  C   -0.074137   0.001327
     2  C    0.508068  -0.073263
     3  O   -0.309476   0.533904
     4  H    0.061110   0.002912
     5  H    0.061103   0.002915
     6  H    0.062916  -0.000733
     7  O   -0.309584   0.532938
 Sum of Mulliken charges =  -0.00000   1.00000
 Mulliken charges and spin densities with hydrogens summed into heavy atoms:
               1          2
     1  C    0.110993   0.006420
     2  C    0.508068  -0.073263
     3  O   -0.309476   0.533904
     7  O   -0.309584   0.532938
 APT charges:
               1
     1  C   -0.002165
     2  C    0.270876
     3  O   -0.210765
     4  H    0.048970
     5  H    0.048991
     6  H    0.055791
     7  O   -0.211698
 Sum of APT charges =  -0.00000
 APT charges with hydrogens summed into heavy atoms:
               1
     1  C    0.151587
     2  C    0.270876
     3  O   -0.210765
     7  O   -0.211698
 Electronic spatial extent (au):  <R**2>=            237.4336
 Charge=             -0.0000 electrons
 Dipole moment (field-independent basis, Debye):
    X=             -3.3918    Y=              0.0005    Z=              0.0197  Tot=              3.3919
 Quadrupole moment (field-independent basis, Debye-Ang):
   XX=            -23.2256   YY=            -25.6722   ZZ=            -22.2207
   XY=              0.0008   XZ=             -0.0671   YZ=             -0.0004
 Traceless Quadrupole moment (field-independent basis, Debye-Ang):
   XX=              0.4806   YY=             -1.9660   ZZ=              1.4854
   XY=              0.0008   XZ=             -0.0671   YZ=             -0.0004
 Octapole moment (field-independent basis, Debye-Ang**2):
  XXX=             -0.6123  YYY=              0.0044  ZZZ=              0.8521  XYY=             -2.7241
  XXY=             -0.0005  XXZ=              0.0817  XZZ=              0.2028  YZZ=             -0.0026
  YYZ=             -0.7732  XYZ=              0.0005
 Hexadecapole moment (field-independent basis, Debye-Ang**3):
 XXXX=           -164.9596 YYYY=           -101.4829 ZZZZ=            -26.6462 XXXY=              0.0027
 XXXZ=             -0.0878 YYYX=             -0.0036 YYYZ=             -0.0003 ZZZX=             -1.6037
 ZZZY=             -0.0008 XXYY=            -44.5578 XXZZ=            -30.4352 YYZZ=            -21.5041
 XXYZ=             -0.0007 YYXZ=              1.4823 ZZXY=              0.0037
 N-N= 1.133319902700D+02 E-N=-7.632690820797D+02  KE= 2.278037839634D+02
  Exact polarizability:  33.329   0.003  48.963  -0.207   0.000  23.110
 Approx polarizability:  41.948  -0.001  93.329  -0.374   0.001  31.562
                          Isotropic Fermi Contact Couplings
        Atom                 a.u.       MegaHertz       Gauss      10(-4) cm-1
     1  C(13)             -0.01177     -13.23560      -4.72279      -4.41492
     2  C(13)             -0.03739     -42.02879     -14.99692     -14.01929
     3  O(17)              0.12696     -76.96198     -27.46195     -25.67175
     4  H(1)               0.00329      14.68926       5.24149       4.89981
     5  H(1)               0.00328      14.65851       5.23052       4.88955
     6  H(1)              -0.00076      -3.41071      -1.21703      -1.13769
     7  O(17)              0.12678     -76.85115     -27.42240     -25.63478
 --------------------------------------------------------
       Center         ----  Spin Dipole Couplings  ----
                      3XX-RR        3YY-RR        3ZZ-RR
 --------------------------------------------------------
     1   Atom        0.001456      0.013907     -0.015363
     2   Atom        0.022739      0.066079     -0.088818
     3   Atom        0.215542      0.928869     -1.144411
     4   Atom        0.008108     -0.003104     -0.005004
     5   Atom        0.008089     -0.003101     -0.004987
     6   Atom        0.005401     -0.002387     -0.003014
     7   Atom        0.213949      0.928716     -1.142665
 --------------------------------------------------------
                        XY            XZ            YZ
 --------------------------------------------------------
     1   Atom        0.000015      0.001530     -0.000002
     2   Atom        0.000005      0.001162      0.000002
     3   Atom       -1.755233      0.042965     -0.053817
     4   Atom       -0.001524      0.003413     -0.001635
     5   Atom        0.001528      0.003416      0.001635
     6   Atom        0.000006     -0.004514     -0.000001
     7   Atom        1.752184      0.042917      0.053793
 --------------------------------------------------------


 ---------------------------------------------------------------------------------
              Anisotropic Spin Dipole Couplings in Principal Axis System
 ---------------------------------------------------------------------------------

       Atom             a.u.   MegaHertz   Gauss  10(-4) cm-1        Axes

              Baa    -0.0155    -2.080    -0.742    -0.694 -0.0899  0.0001  0.9960
     1 C(13)  Bbb     0.0016     0.214     0.076     0.071  0.9960 -0.0012  0.0899
              Bcc     0.0139     1.866     0.666     0.622  0.0012  1.0000  0.0000
 
              Baa    -0.0888   -11.920    -4.253    -3.976 -0.0104 -0.0000  0.9999
     2 C(13)  Bbb     0.0228     3.053     1.089     1.018  0.9999 -0.0001  0.0104
              Bcc     0.0661     8.867     3.164     2.958  0.0001  1.0000  0.0000
 
              Baa    -1.2189    88.199    31.472    29.420  0.7741  0.6329  0.0108
     3 O(17)  Bbb    -1.1458    82.906    29.583    27.654 -0.0207  0.0084  0.9997
              Bcc     2.3647  -171.105   -61.055   -57.075 -0.6327  0.7742 -0.0196
 
              Baa    -0.0063    -3.382    -1.207    -1.128 -0.1751  0.3771  0.9095
     4 H(1)   Bbb    -0.0029    -1.542    -0.550    -0.514  0.2305  0.9138 -0.3345
              Bcc     0.0092     4.924     1.757     1.642  0.9572 -0.1511  0.2469
 
              Baa    -0.0063    -3.375    -1.204    -1.126 -0.1754 -0.3778  0.9091
     5 H(1)   Bbb    -0.0029    -1.541    -0.550    -0.514 -0.2313  0.9134  0.3349
              Bcc     0.0092     4.917     1.754     1.640  0.9569  0.1516  0.2476
 
              Baa    -0.0050    -2.656    -0.948    -0.886  0.3989 -0.0004  0.9170
     6 H(1)   Bbb    -0.0024    -1.274    -0.454    -0.425 -0.0004  1.0000  0.0006
              Bcc     0.0074     3.929     1.402     1.311  0.9170  0.0006 -0.3989
 
              Baa    -1.2169    88.057    31.421    29.373  0.7744 -0.6326  0.0107
     7 O(17)  Bbb    -1.1440    82.780    29.538    27.612 -0.0207 -0.0084  0.9997
              Bcc     2.3609  -170.836   -60.959   -56.985  0.6324  0.7744  0.0196
 

 ---------------------------------------------------------------------------------

 Calling FoFJK, ICntrl=    100127 FMM=F ISym2X=0 I1Cent= 0 IOpClX= 1 NMat=1 NMatS=1 NMatT=0.
 Full mass-weighted force constant matrix:
[...]
 -0.18073215 -0.00092111 -0.05531648  0.03749798  0.09620844
 -0.04799933 -0.04264648 -0.01846188 -0.00598015  0.16002101
 -0.03119925 -0.19067104  0.08431631 -0.00784137  0.24154137
  0.10260441  0.11167117 -0.07136414 -0.01171378 -0.02196216
  0.02904968 -0.02546068 -0.00005252  0.00701446  0.05400898
  0.00010093 -0.01328430 -0.02473788 -0.00016623 -0.01263863
 -0.03899643 -0.00000318 -0.06888472 -0.00291825 -0.00001051
  0.05491002 -0.00609984  0.00004371 -0.13015834 -0.46016965
 -0.72923195  0.00168888 -0.23538967  0.00006896  0.95250815
  1.49586088 -0.00351914  0.49280481 -0.00012786 -0.15166337
 -0.57220549
 BiOrM2:  NumA=     250 NumB=     250.
 Eigenvalues of SAB:
  1.00000000  1.00000000  1.00000000  1.00000000  1.00000000
  1.00000000  1.00000000  1.00000000  1.00000000  1.00000000
  1.00000000  1.00000000  1.00000000  1.00000000  1.00000000
  1.00000000  1.00000000  1.00000000  1.00000000  1.00000000
  1.00000000  1.00000000  1.00000000  1.00000000  1.00000000
  1.00000000  1.00000000  1.00000000  1.00000000  1.00000000
  1.00000000  1.00000000  1.00000000  1.00000000  1.00000000
  1.00000000  1.00000000  1.00000000  1.00000000  1.00000000
  1.00000000  1.00000000  1.00000000  1.00000000  1.00000000
  1.00000000  1.00000000  1.00000000  1.00000000  1.00000000
  1.00000000  1.00000000  1.00000000  1.00000000  1.00000000
  1.00000000  1.00000000  1.00000000  1.00000000  1.00000000
  1.00000000  1.00000000  1.00000000  1.00000000  1.00000000
  1.00000000  1.00000000  1.00000000  1.00000000  1.00000000
  1.00000000  1.00000000  1.00000000  1.00000000  1.00000000
  1.00000000  1.00000000  1.00000000  1.00000000  1.00000000
  1.00000000  1.00000000  1.00000000  1.00000000  1.00000000
  1.00000000  1.00000000  1.00000000  1.00000000  1.00000000
  1.00000000  1.00000000  1.00000000  1.00000000  1.00000000
  1.00000000  1.00000000  1.00000000  1.00000000  1.00000000
  1.00000000  1.00000000  1.00000000  1.00000000  1.00000000
  1.00000000  1.00000000  1.00000000  1.00000000  1.00000000
  1.00000000  1.00000000  1.00000000  1.00000000  1.00000000
  1.00000000  1.00000000  1.00000000  1.00000000  1.00000000
  1.00000000  1.00000000  1.00000000  1.00000000  1.00000000
  1.00000000  1.00000000  1.00000000  1.00000000  1.00000000
  1.00000000  1.00000000  1.00000000  1.00000000  1.00000000
  1.00000000  1.00000000  1.00000000  1.00000000  1.00000000
  1.00000000  1.00000000  1.00000000  1.00000000  1.00000000
  1.00000000  1.00000000  1.00000000  1.00000000  1.00000000
  1.00000000  1.00000000  1.00000000  1.00000000  1.00000000
  1.00000000  1.00000000  1.00000000  1.00000000  1.00000000
  1.00000000  1.00000000  1.00000000  1.00000000  1.00000000
  1.00000000  1.00000000  1.00000000  1.00000000  1.00000000
  1.00000000  1.00000000  1.00000000  1.00000000  1.00000000
  1.00000000  1.00000000  1.00000000  1.00000000  1.00000000
  1.00000000  1.00000000  1.00000000  1.00000000  1.00000000
  1.00000000  1.00000000  1.00000000  1.00000000  1.00000000
  1.00000000  1.00000000  1.00000000  1.00000000  1.00000000
  1.00000000  1.00000000  1.00000000  1.00000000  1.00000000
  1.00000000  1.00000000  1.00000000  1.00000000  1.00000000
  1.00000000  1.00000000  1.00000000  1.00000000  1.00000000
  1.00000000  1.00000000  1.00000000  1.00000000  1.00000000
  1.00000000  1.00000000  1.00000000  1.00000000  1.00000000
  1.00000000  1.00000000  1.00000000  1.00000000  1.00000000
  1.00000000  1.00000000  1.00000000  1.00000000  1.00000000
  1.00000000  1.00000000  1.00000000  1.00000000  1.00000000
  1.00000000  1.00000000  0.99999989  0.99999989  0.99999982
  0.99999962  0.99999858  0.99998957  0.99994272  0.99993220
  0.99992900  0.99982811  0.99980633  0.99961764  0.99750794
 Requested convergence on RMS density matrix=1.00D-08 within 128 cycles.
 Requested convergence on MAX density matrix=1.00D-06.
 Requested convergence on             energy=1.00D-06.
 No special actions if energy rises.
 Restarting incremental Fock formation.
 SCF Done:  E(ROHF) =  -227.234379847     A.U. after   23 cycles
            NFock= 23  Conv=0.67D-08     -V/T= 2.0012
 <Sx>= 0.0000 <Sy>= 0.0000 <Sz>= 0.5000 <S**2>= 0.7500 S= 0.5000
 <L.S>=  0.00000000000    
 Annihilation of the first spin contaminant:
 S**2 before annihilation     0.7500,   after     0.7500

 **********************************************************************

            Population analysis using the SCF Density.

 **********************************************************************

 Orbital symmetries:
       Occupied  (A) (A) (A) (A) (A) (A) (A) (A) (A) (A) (A) (A)
                 (A) (A) (A) (A)
       Virtual   (A) (A) (A) (A) (A) (A) (A) (A) (A) (A) (A) (A)
                 (A) (A) (A) (A) (A) (A) (A) (A) (A) (A) (A) (A)
                 (A) (A) (A) (A) (A) (A) (A) (A) (A) (A) (A) (A)
                 (A) (A) (A) (A) (A) (A) (A) (A) (A) (A) (A) (A)
                 (A) (A) (A) (A) (A) (A) (A) (A) (A) (A) (A) (A)
                 (A) (A) (A) (A) (A) (A) (A) (A) (A) (A) (A) (A)
                 (A) (A) (A) (A) (A) (A) (A) (A) (A) (A) (A) (A)
                 (A) (A) (A) (A) (A) (A) (A) (A) (A) (A) (A) (A)
                 (A) (A) (A) (A) (A) (A) (A) (A) (A) (A) (A) (A)
                 (A) (A) (A) (A) (A) (A) (A) (A) (A) (A) (A) (A)
                 (A) (A) (A) (A) (A) (A) (A) (A) (A) (A) (A) (A)
                 (A) (A) (A) (A) (A) (A) (A) (A) (A) (A) (A) (A)
                 (A) (A) (A) (A) (A) (A) (A) (A) (A) (A) (A) (A)
                 (A) (A) (A) (A) (A) (A) (A) (A) (A) (A) (A) (A)
                 (A) (A) (A) (A) (A) (A) (A) (A) (A) (A) (A) (A)
                 (A) (A) (A) (A) (A) (A) (A) (A) (A) (A) (A) (A)
                 (A) (A) (A) (A) (A) (A) (A) (A) (A) (A) (A) (A)
                 (A) (A) (A) (A) (A) (A) (A) (A) (A) (A) (A) (A)
                 (A) (A) (A) (A) (A) (A) (A) (A) (A) (A) (A) (A)
                 (A) (A) (A) (A) (A) (A) (A) (A) (A) (A) (A) (A)
                 (A) (A) (A) (A) (A) (A) (A) (A) (A) (A)
 The electronic state is 2-A.
 Alpha  occ. eigenvalues --  -20.61928 -20.61913 -11.41576 -11.26933  -1.47695
 Alpha  occ. eigenvalues --   -1.33069  -1.04815  -0.78561  -0.69552  -0.67624
 Alpha  occ. eigenvalues --   -0.66558  -0.59633  -0.58443  -0.49890  -0.45154
 Alpha  occ. eigenvalues --   -0.18047
 Alpha virt. eigenvalues --    0.03796   0.06495   0.06590   0.06701   0.09202
 Alpha virt. eigenvalues --    0.09266   0.09485   0.13662   0.16362   0.16659
 Alpha virt. eigenvalues --    0.17377   0.19625   0.22009   0.22196   0.22824
 Alpha virt. eigenvalues --    0.23678   0.24097   0.24699   0.27929   0.29533
 Alpha virt. eigenvalues --    0.32856   0.34742   0.36094   0.41463   0.42675
 Alpha virt. eigenvalues --    0.46399   0.48173   0.48629   0.49827   0.54583
 Alpha virt. eigenvalues --    0.55299   0.56623   0.57775   0.61852   0.62110
 Alpha virt. eigenvalues --    0.64163   0.67835   0.70926   0.71909   0.73560
 Alpha virt. eigenvalues --    0.74280   0.75482   0.76282   0.80299   0.80366
 Alpha virt. eigenvalues --    0.82752   0.84600   0.89613   0.95482   0.96665
 Alpha virt. eigenvalues --    0.96703   0.98261   1.02858   1.03485   1.05358
 Alpha virt. eigenvalues --    1.08277   1.09101   1.21404   1.21753   1.23435
 Alpha virt. eigenvalues --    1.23627   1.28741   1.32456   1.38277   1.44155
 Alpha virt. eigenvalues --    1.46247   1.49156   1.50479   1.51991   1.54230
 Alpha virt. eigenvalues --    1.58204   1.60523   1.65683   1.69001   1.71641
 Alpha virt. eigenvalues --    1.72324   1.73836   1.76754   1.79541   1.79963
 Alpha virt. eigenvalues --    1.81071   1.83961   1.84781   1.85613   1.87746
 Alpha virt. eigenvalues --    1.92030   1.92368   1.92860   1.95752   1.96956
 Alpha virt. eigenvalues --    1.97876   2.03420   2.03966   2.05322   2.08529
 Alpha virt. eigenvalues --    2.14116   2.16302   2.17541   2.19451   2.26168
 Alpha virt. eigenvalues --    2.27035   2.27927   2.30257   2.33769   2.38237
 Alpha virt. eigenvalues --    2.40199   2.43869   2.47560   2.49773   2.49967
 Alpha virt. eigenvalues --    2.52100   2.56484   2.58809   2.61192   2.63931
 Alpha virt. eigenvalues --    2.65524   2.71950   2.74584   2.74645   2.76005
 Alpha virt. eigenvalues --    2.85515   2.87497   2.94182   2.99634   3.00842
 Alpha virt. eigenvalues --    3.01199   3.06734   3.09207   3.16440   3.20680
 Alpha virt. eigenvalues --    3.23709   3.28146   3.31427   3.34174   3.39164
 Alpha virt. eigenvalues --    3.40778   3.44515   3.55130   3.55356   3.59216
 Alpha virt. eigenvalues --    3.62505   3.77325   3.78496   3.79715   3.87015
 Alpha virt. eigenvalues --    3.87467   3.89854   3.93007   4.02575   4.02959
 Alpha virt. eigenvalues --    4.04559   4.05491   4.07876   4.15878   4.17607
 Alpha virt. eigenvalues --    4.20135   4.23139   4.34501   4.39359   4.61537
 Alpha virt. eigenvalues --    4.62645   4.81765   4.86534   4.91433   4.95087
 Alpha virt. eigenvalues --    5.00129   5.00644   5.04340   5.14917   5.28862
 Alpha virt. eigenvalues --    5.33025   5.41933   5.56899   5.60069   5.74356
 Alpha virt. eigenvalues --    5.79658   5.91440   5.96713   5.98012   6.12890
 Alpha virt. eigenvalues --    6.14083   6.18681   6.21415   6.23375   6.43171
 Alpha virt. eigenvalues --    6.48632   6.64197   6.81563   6.85505   6.87872
 Alpha virt. eigenvalues --    6.91196   6.93588   7.06972   7.07243   7.14021
 Alpha virt. eigenvalues --    7.14086   7.19372   7.22503   7.22927   7.32155
 Alpha virt. eigenvalues --    7.35103   7.44526   7.67169   8.07393   8.13891
 Alpha virt. eigenvalues --    8.30815   8.45515   8.47077   8.52275   8.68754
 Alpha virt. eigenvalues --    8.73690   8.85106   8.90719   9.24511   9.38132
 Alpha virt. eigenvalues --    9.55479   9.57559   9.72010  10.01689  10.20745
 Alpha virt. eigenvalues --   10.42572  10.52544  10.78452  10.84836  11.17762
 Alpha virt. eigenvalues --   11.19029  11.22196  11.27407  11.52040  11.59644
 Alpha virt. eigenvalues --   11.72097  11.85990  12.27576  12.64190  20.77681
 Alpha virt. eigenvalues --   21.56478  21.59719  21.59846  22.10216  22.51676
 Alpha virt. eigenvalues --   23.18138  24.24814  37.59618  37.70571  37.93464
 Alpha virt. eigenvalues --   37.99668  38.18431  38.19502  43.15637  43.24079
          Condensed to atoms (all electrons):
               1          2          3          4          5          6
     1  C    4.832975   0.297521  -0.080635   0.422383   0.422311   0.375160
     2  C    0.297521   4.283754   0.397680  -0.044790  -0.044745  -0.016098
     3  O   -0.080635   0.397680   8.165382  -0.001964   0.007223  -0.002497
     4  H    0.422383  -0.044790  -0.001964   0.564411  -0.040599  -0.023602
     5  H    0.422311  -0.044745   0.007223  -0.040599   0.564625  -0.023652
     6  H    0.375160  -0.016098  -0.002497  -0.023602  -0.023652   0.582620
     7  O   -0.080599   0.397763  -0.042936   0.007227  -0.001976  -0.002510
               7
     1  C   -0.080599
     2  C    0.397763
     3  O   -0.042936
     4  H    0.007227
     5  H   -0.001976
     6  H   -0.002510
     7  O    8.164903
          Atomic-Atomic Spin Densities.
               1          2          3          4          5          6
     1  C    0.001163   0.000021  -0.000400   0.000573   0.000553   0.000043
     2  C    0.000021   0.010330   0.008373   0.000073   0.000085   0.000007
     3  O   -0.000400   0.008373   0.532968  -0.002453   0.000402  -0.000077
     4  H    0.000573   0.000073  -0.002453   0.003522  -0.001221   0.000050
     5  H    0.000553   0.000085   0.000402  -0.001221   0.003522   0.000054
     6  H    0.000043   0.000007  -0.000077   0.000050   0.000054   0.000011
     7  O   -0.000385   0.008334  -0.054362   0.000402  -0.002457  -0.000082
               7
     1  C   -0.000385
     2  C    0.008334
     3  O   -0.054362
     4  H    0.000402
     5  H   -0.002457
     6  H   -0.000082
     7  O    0.533419
 Mulliken charges and spin densities:
               1          2
     1  C   -0.189116   0.001568
     2  C    0.728915   0.027222
     3  O   -0.442254   0.484451
     4  H    0.116934   0.000946
     5  H    0.116814   0.000938
     6  H    0.110579   0.000005
     7  O   -0.441872   0.484870
 Sum of Mulliken charges =  -0.00000   1.00000
 Mulliken charges and spin densities with hydrogens summed into heavy atoms:
               1          2
     1  C    0.155211   0.003457
     2  C    0.728915   0.027222
     3  O   -0.442254   0.484451
     7  O   -0.441872   0.484870
 Electronic spatial extent (au):  <R**2>=            237.4386
 Charge=             -0.0000 electrons
 Dipole moment (field-independent basis, Debye):
    X=             -3.7638    Y=             -0.0026    Z=              0.0095  Tot=              3.7638
 Quadrupole moment (field-independent basis, Debye-Ang):
   XX=            -23.2431   YY=            -25.8242   ZZ=            -22.0580
   XY=             -0.0018   XZ=             -0.0833   YZ=             -0.0005
 Traceless Quadrupole moment (field-independent basis, Debye-Ang):
   XX=              0.4653   YY=             -2.1158   ZZ=              1.6505
   XY=             -0.0018   XZ=             -0.0833   YZ=             -0.0005
 Octapole moment (field-independent basis, Debye-Ang**2):
  XXX=             -1.5731  YYY=             -0.0028  ZZZ=              0.8227  XYY=             -2.9059
  XXY=             -0.0024  XXZ=              0.1079  XZZ=             -0.0289  YZZ=             -0.0034
  YYZ=             -0.7926  XYZ=              0.0006
 Hexadecapole moment (field-independent basis, Debye-Ang**3):
 XXXX=           -161.6533 YYYY=            -99.4950 ZZZZ=            -25.4361 XXXY=             -0.0043
 XXXZ=             -0.1453 YYYX=             -0.0076 YYYZ=             -0.0005 ZZZX=             -1.6537
 ZZZY=             -0.0009 XXYY=            -43.6823 XXZZ=            -29.7933 YYZZ=            -21.1689
 XXYZ=             -0.0010 YYXZ=              1.5203 ZZXY=              0.0029
 N-N= 1.133319902700D+02 E-N=-7.619268775151D+02  KE= 2.269693996170D+02
                          Isotropic Fermi Contact Couplings
        Atom                 a.u.       MegaHertz       Gauss      10(-4) cm-1
     1  C(13)              0.00000       0.00001       0.00000       0.00000
     2  C(13)              0.00000       0.00000       0.00000       0.00000
     3  O(17)              0.01461      -8.85666      -3.16028      -2.95426
     4  H(1)               0.00091       4.08153       1.45639       1.36145
     5  H(1)               0.00091       4.06604       1.45086       1.35628
     6  H(1)               0.00000       0.00000       0.00000       0.00000
     7  O(17)              0.01464      -8.87452      -3.16665      -2.96022
 --------------------------------------------------------
       Center         ----  Spin Dipole Couplings  ----
                      3XX-RR        3YY-RR        3ZZ-RR
 --------------------------------------------------------
     1   Atom        0.010934      0.001240     -0.012174
     2   Atom        0.014764      0.057753     -0.072517
     3   Atom        0.127921      0.895033     -1.022954
     4   Atom        0.009113     -0.003412     -0.005701
     5   Atom        0.009111     -0.003416     -0.005695
     6   Atom        0.006344     -0.002989     -0.003355
     7   Atom        0.128910      0.894968     -1.023877
 --------------------------------------------------------
                        XY            XZ            YZ
 --------------------------------------------------------
     1   Atom       -0.000020      0.000243      0.000000
     2   Atom       -0.000024      0.001400      0.000001
     3   Atom       -1.469658      0.029457     -0.037783
     4   Atom       -0.001725      0.003339     -0.000748
     5   Atom        0.001720      0.003349      0.000746
     6   Atom       -0.000001     -0.005210      0.000000
     7   Atom        1.471230      0.029526      0.037850
 --------------------------------------------------------


 ---------------------------------------------------------------------------------
              Anisotropic Spin Dipole Couplings in Principal Axis System
 ---------------------------------------------------------------------------------

       Atom             a.u.   MegaHertz   Gauss  10(-4) cm-1        Axes

              Baa    -0.0122    -1.634    -0.583    -0.545 -0.0105 -0.0000  0.9999
     1 C(13)  Bbb     0.0012     0.166     0.059     0.056  0.0021  1.0000  0.0001
              Bcc     0.0109     1.468     0.524     0.490  0.9999 -0.0021  0.0105
 
              Baa    -0.0725    -9.734    -3.473    -3.247 -0.0160 -0.0000  0.9999
     2 C(13)  Bbb     0.0148     1.984     0.708     0.662  0.9999  0.0006  0.0160
              Bcc     0.0578     7.750     2.765     2.585 -0.0006  1.0000  0.0000
 
              Baa    -1.0237    74.075    26.432    24.709 -0.0199  0.0044  0.9998
     3 O(17)  Bbb    -1.0074    72.895    26.011    24.315  0.7912  0.6115  0.0130
              Bcc     2.0311  -146.970   -52.443   -49.024 -0.6113  0.7913 -0.0157
 
              Baa    -0.0065    -3.450    -1.231    -1.151 -0.1943  0.1283  0.9725
     4 H(1)   Bbb    -0.0036    -1.929    -0.688    -0.644  0.1588  0.9824 -0.0978
              Bcc     0.0101     5.380     1.920     1.794  0.9680 -0.1355  0.2112
 
              Baa    -0.0065    -3.449    -1.231    -1.151 -0.1950 -0.1279  0.9724
     5 H(1)   Bbb    -0.0036    -1.931    -0.689    -0.644 -0.1584  0.9825  0.0975
              Bcc     0.0101     5.380     1.920     1.795  0.9679  0.1351  0.2118
 
              Baa    -0.0056    -3.001    -1.071    -1.001  0.3992  0.0002  0.9169
     6 H(1)   Bbb    -0.0030    -1.595    -0.569    -0.532  0.0000  1.0000 -0.0002
              Bcc     0.0086     4.595     1.640     1.533  0.9169 -0.0001 -0.3992
 
              Baa    -1.0246    74.142    26.456    24.731 -0.0199 -0.0045  0.9998
     7 O(17)  Bbb    -1.0083    72.962    26.035    24.338  0.7910 -0.6117  0.0130
              Bcc     2.0330  -147.104   -52.490   -49.069  0.6115  0.7911  0.0157
 

 ---------------------------------------------------------------------------------

 1\1\GINC-GAMBA\SP\ROHF\Gen\C2H3O2(2)\IRIKURA\30-Sep-2023\0\\# rohf/gen
  geom=check guess=check\\CH3COO, ROHF/cc-pVTZ-F12\\0,2\C,0,-1.385706,0
 .000036,-0.003138\C,0,0.103308,-0.000132,-0.007502\O,0,0.809432,1.0381
 89,0.001471\H,0,-1.762259,0.895171,-0.494731\H,0,-1.762452,-0.894269,-
 0.496198\H,0,-1.732309,-0.001015,1.031409\O,0,0.809494,-1.038103,0.001
 449\\Version=ES64L-G16RevB.01\State=2-A\HF=-227.2343798\RMSD=6.717e-09
 \Dipole=-1.4808044,-0.0010392,0.0037326\Quadrupole=0.345935,-1.5730142
 ,1.2270793,-0.0013035,-0.0619524,-0.0003401\PG=C01 [X(C2H3O2)]\\@


 I WOULD TAKE COUNSEL OF MYSELF.
 I WOULD STOP AND LOOK WITHIN
 AND LOOKING WITHIN, LOOK BACK, ALSO
 THAT I MAY LOOK AHEAD WITH CLEARER UNDERSTANDING
 OF THE WAY I HAVE BEEN MOVING, AND IN WHAT DIRECTION.
 I NEED TO KNOW IF I AM GOING FORWARD OR RETREATING,
 WHETHER I HAVE BEEN WASTING, OR ENJOYING
 THE PRECIOUS MOMENTS OF LIFE.  THERE HAVE BEEN FRICTIONS,
 ANNOYANCES AND SOMETIMES WRATH,
 BUT WERE THEY BECAUSE I WAS RIGHT AND OTHERS WRONG.....
 HAVE I HAD MY THOUGHTS TOO SHARPLY FOCUSED
 ON THAT WHICH PLEASED ME, SERVED MY SELF-ESTEEM,
 UNDERGIRDED MY SECURITY,
 OF WHICH I DID NOT INQUIRE WHETHER IT SERVED OR HAMPERED OTHERS.....
 HAVE I BEEN TRYING TO STOP THE CLOCK
 TO HOLD THE WORLD
 IN PERPETUATION OF WHAT WAS AN IS ALREADY SLIPPING AWAY.....
 HAVE I BEEN CRITICAL OF OTHERS FOR WHAT REALLY NEEDED CHANGING IN ME...
 LET ME INDEED TAKE COUNSEL OF MYSELF
 AND SET MY DIRECTIONS STRAIGHT.

                          R.T. WESTON AS ADAPTED BY D. OSBORN 1967
 Job cpu time:       0 days  0 hours  8 minutes 49.5 seconds.
 Elapsed time:       0 days  0 hours  2 minutes 12.5 seconds.
 File lengths (MBytes):  RWF=     54 Int=      0 D2E=      0 Chk=      8 Scr=      1
 Normal termination of Gaussian 16 at Sat Sep 30 03:32:42 2023.
