 Entering Gaussian System, Link 0=g16
 AtFile(1): pcseg2.gbs
            -H     0
            S   4   1.00
                  0.754732D+02           0.427821D-02
                  0.113575D+02           0.328672D-01
                  0.260081D+01           0.159578D+00
                  0.735503D+00           0.500000D+00
            S   1   1.00
                  0.231761D+00           1.0000000
            S   1   1.00
                  0.741675D-01           1.0000000
            P   1   1.00
                  0.160000D+01           1.0000000
            P   1   1.00
                  0.450000D+00           1.0000000
            D   1   1.00
                  0.125000D+01           1.0000000
            ****
            -C     0
            S   7   1.00
                  0.731999D+04           0.695369D-03
                  0.109818D+04           0.537138D-02
                  0.250014D+03           0.274734D-01
                  0.707586D+02           0.105078D+00
                  0.228595D+02           0.291262D+00
                  0.803936D+01           0.500000D+00
                  0.289309D+01           0.362224D+00
            S   2   1.00
                  0.521640D+01          -0.957844D-01
                  0.556124D+00           0.500000D+00
            S   1   1.00
                  0.228813D+00           1.0000000
            S   1   1.00
                  0.936338D-01           1.0000000
            P   4   1.00
                  0.339855D+02           0.818395D-02
                  0.772957D+01           0.586921D-01
                  0.224954D+01           0.222514D+00
                  0.767681D+00           0.500000D+00
            P   1   1.00
                  0.263283D+00           1.0000000
            P   1   1.00
                  0.848744D-01           1.0000000
            D   1   1.00
                  0.140000D+01           1.0000000
            D   1   1.00
                  0.450000D+00           1.0000000
            F   1   1.00
                  0.950000D+00           1.0000000
            ****
            -O     0
            S   7   1.00
                  0.135887D+05           0.665492D-03
                  0.203847D+04           0.514222D-02
                  0.464041D+03           0.263472D-01
                  0.131339D+03           0.101500D+00
                  0.425340D+02           0.285877D+00
                  0.150429D+02           0.500000D+00
                  0.546616D+01           0.368211D+00
            S   2   1.00
                  0.100915D+02          -0.100084D+00
                  0.110429D+01           0.500000D+00
            S   1   1.00
                  0.448082D+00           1.0000000
            S   1   1.00
                  0.175325D+00           1.0000000
            P   4   1.00
                  0.608220D+02           0.908253D-02
                  0.140332D+02           0.645878D-01
                  0.418244D+01           0.241502D+00
                  0.142490D+01           0.500000D+00
            P   1   1.00
                  0.478741D+00           1.0000000
            P   1   1.00
                  0.146257D+00           1.0000000
            D   1   1.00
                  0.220000D+01           1.0000000
            D   1   1.00
                  0.650000D+00           1.0000000
            F   1   1.00
                  0.110000D+01           1.0000000
            ****
            -N     0
            S   7   1.00
                  0.101643D+05           0.682757D-03
                  0.152481D+04           0.527488D-02
                  0.347119D+03           0.270037D-01
                  0.982389D+02           0.103673D+00
                  0.317799D+02           0.289575D+00
                  0.112240D+02           0.500000D+00
                  0.406611D+01           0.364621D+00
            S   2   1.00
                  0.747898D+01          -0.975681D-01
                  0.805040D+00           0.500000D+00
            S   1   1.00
                  0.324626D+00           1.0000000
            S   1   1.00
                  0.128132D+00           1.0000000
            P   4   1.00
                  0.482704D+02           0.829547D-02
                  0.110815D+02           0.596223D-01
                  0.326643D+01           0.227889D+00
                  0.111680D+01           0.500000D+00
            P   1   1.00
                  0.382049D+00           1.0000000
            P   1   1.00
                  0.121222D+00           1.0000000
            D   1   1.00
                  0.180000D+01           1.0000000
            D   1   1.00
                  0.550000D+00           1.0000000
            F   1   1.00
                  0.102000D+01           1.0000000
            ****
            -F     0
            S   7   1.00
                  0.174507D+05           0.655972D-03
                  0.261768D+04           0.506944D-02
                  0.595857D+03           0.259899D-01
                  0.168651D+03           0.100353D+00
                  0.546654D+02           0.284095D+00
                  0.193717D+02           0.500000D+00
                  0.706202D+01           0.370721D+00
            S   2   1.00
                  0.131197D+02          -0.101997D+00
                  0.145046D+01           0.500000D+00
            S   1   1.00
                  0.588255D+00           1.0000000
            S   1   1.00
                  0.227960D+00           1.0000000
            P   4   1.00
                  0.779407D+02           0.931135D-02
                  0.180425D+02           0.663964D-01
                  0.542342D+01           0.246386D+00
                  0.184876D+01           0.500000D+00
            P   1   1.00
                  0.617455D+00           1.0000000
            P   1   1.00
                  0.185496D+00           1.0000000
            D   1   1.00
                  0.280000D+01           1.0000000
            D   1   1.00
                  0.800000D+00           1.0000000
            F   1   1.00
                  0.120000D+01           1.0000000
            ****
            -Cl     0
            S   8   1.00
                  0.154272D+06           0.222473D-03
                  0.231232D+05           0.172590D-02
                  0.526257D+04           0.899286D-02
                  0.148995D+04           0.367724D-01
                  0.485417D+03           0.121446D+00
                  0.174634D+03           0.304148D+00
                  0.672393D+02           0.500000D+00
                  0.265780D+02           0.360252D+00
            S   3   1.00
                  0.131826D+03          -0.531330D-01
                  0.400703D+02          -0.233346D+00
                  0.789448D+01           0.500000D+00
            S   2   1.00
                  0.427711D+01           0.500000D+00
                  0.196233D+01           0.370517D+00
            S   1   1.00
                  0.520793D+00           1.0000000
            S   1   1.00
                  0.181633D+00           1.0000000
            P   7   1.00
                  0.124440D+04           0.988206D-03
                  0.295109D+03           0.829674D-02
                  0.947224D+02           0.430906D-01
                  0.352588D+02           0.148443D+00
                  0.144211D+02           0.344744D+00
                  0.610371D+01           0.500000D+00
                  0.258886D+01           0.348278D+00
            P   2   1.00
                  0.109447D+02          -0.196768D-01
                  0.104413D+01           0.500000D+00
            P   1   1.00
                  0.376184D+00           1.0000000
            P   1   1.00
                  0.120613D+00           1.0000000
            D   1   1.00
                  0.231000D+01           1.0000000
            D   1   1.00
                  0.520000D+00           1.0000000
            F   1   1.00
                  0.720000D+00           1.0000000
            ****
            -S     0
            S   8   1.00
                  0.134700D+06           0.226231D-03
                  0.201904D+05           0.175488D-02
                  0.459528D+04           0.914190D-02
                  0.130109D+04           0.373551D-01
                  0.423902D+03           0.123121D+00
                  0.152485D+03           0.306801D+00
                  0.586925D+02           0.500000D+00
                  0.231461D+02           0.354358D+00
            S   3   1.00
                  0.116327D+03          -0.491772D-01
                  0.352841D+02          -0.215962D+00
                  0.677831D+01           0.500000D+00
            S   2   1.00
                  0.360404D+01           0.500000D+00
                  0.164871D+01           0.366278D+00
            S   1   1.00
                  0.421821D+00           1.0000000
            S   1   1.00
                  0.147554D+00           1.0000000
            P   7   1.00
                  0.104863D+04           0.105273D-02
                  0.248717D+03           0.879338D-02
                  0.797887D+02           0.453358D-01
                  0.296023D+02           0.154476D+00
                  0.120627D+02           0.352366D+00
                  0.507628D+01           0.500000D+00
                  0.213375D+01           0.346429D+00
            P   2   1.00
                  0.928958D+01          -0.185932D-01
                  0.837819D+00           0.500000D+00
            P   1   1.00
                  0.301495D+00           1.0000000
            P   1   1.00
                  0.974740D-01           1.0000000
            D   1   1.00
                  0.210000D+01           1.0000000
            D   1   1.00
                  0.480000D+00           1.0000000
            F   1   1.00
                  0.660000D+00           1.0000000
            ****
            -Br     0
            S    10   1.00
                  0.233625D+07           0.532336D-04
                  0.349961D+06           0.413715D-03
                  0.796444D+05           0.217123D-02
                  0.225555D+05           0.910109D-02
                  0.735546D+04           0.323789D-01
                  0.265352D+04           0.988755D-01
                  0.103517D+04           0.248138D+00
                  0.422205D+03           0.474328D+00
                  0.180035D+03           0.500000D+00
                  0.793308D+02           0.187769D+00
            S    4   1.00
                  0.620834D+03          -0.226511D-01
                  0.190829D+03          -0.109497D+00
                  0.312505D+02           0.500000D+00
                  0.135270D+02           0.492812D+00
            S    2   1.00
                  0.216097D+02          -0.165418D+00
                  0.372566D+01           0.500000D+00
            S    1   1.00
                  0.169770D+01           1.0000000
            S    1   1.00
                  0.489332D+00           1.0000000
            S    1   1.00
                  0.175712D+00           1.0000000
            P    8   1.00
                  0.960829D+04           0.478974D-03
                  0.227618D+04           0.417853D-02
                  0.736723D+03           0.229315D-01
                  0.281579D+03           0.892653D-01
                  0.118395D+03           0.255288D+00
                  0.527481D+02           0.479074D+00
                  0.245098D+02           0.500000D+00
                  0.112009D+02           0.200944D+00
            P    4   1.00
                  0.587849D+02          -0.189674D-01
                  0.918962D+01           0.264104D+00
                  0.413895D+01           0.500000D+00
                  0.184225D+01           0.319316D+00
            P    1   1.00
                  0.713862D+00           1.0000000
            P    1   1.00
                  0.274232D+00           1.0000000
            P    1   1.00
                  0.944411D-01           1.0000000
            D    7   1.00
                  0.398470D+03           0.204066D-02
                  0.118967D+03           0.175171D-01
                  0.450197D+02           0.829708D-01
                  0.190320D+02           0.236284D+00
                  0.855686D+01           0.428468D+00
                  0.382950D+01           0.500000D+00
                  0.166291D+01           0.349360D+00
            D    1   1.00
                  0.672953D+00           1.0000000
            D    1   1.00
                  0.252000D+00           1.0000000
            F    1   1.00
                  0.530000D+00           1.0000000
            ****
            -Si     0
            S    8   1.00
                  0.996133D+05           0.235546D-03
                  0.149311D+05           0.182707D-02
                  0.339820D+04           0.951425D-02
                  0.962140D+03           0.388172D-01
                  0.313430D+03           0.127328D+00
                  0.112683D+03           0.313522D+00
                  0.433372D+02           0.500000D+00
                  0.170029D+02           0.340347D+00
            S    3   1.00
                  0.884208D+02          -0.404451D-01
                  0.266756D+02          -0.178059D+00
                  0.479640D+01           0.500000D+00
            S    2   1.00
                  0.239385D+01           0.500000D+00
                  0.108333D+01           0.338016D+00
            S    1   1.00
                  0.252420D+00           1.0000000
            S    1   1.00
                  0.891210D-01           1.0000000
            P    7   1.00
                  0.709901D+03           0.123028D-02
                  0.168426D+03           0.101366D-01
                  0.539946D+02           0.511840D-01
                  0.198646D+02           0.169967D+00
                  0.801369D+01           0.370717D+00
                  0.331870D+01           0.500000D+00
                  0.136112D+01           0.344128D+00
            P    2   1.00
                  0.622158D+01          -0.166609D-01
                  0.503049D+00           0.500000D+00
            P    1   1.00
                  0.179848D+00           1.0000000
            P    1   1.00
                  0.591912D-01           1.0000000
            D    1   1.00
                  0.168000D+01           1.0000000
            D    1   1.00
                  0.380000D+00           1.0000000
            F    1   1.00
                  0.540000D+00           1.0000000
            ****
            -P     0
            S    8   1.00
                  0.116416D+06           0.230715D-03
                  0.174500D+05           0.178960D-02
                  0.397149D+04           0.932116D-02
                  0.112447D+04           0.380591D-01
                  0.366347D+03           0.125148D+00
                  0.131757D+03           0.310022D+00
                  0.506988D+02           0.500000D+00
                  0.199436D+02           0.347528D+00
            S    3   1.00
                  0.101878D+03          -0.446755D-01
                  0.308249D+02          -0.196376D+00
                  0.573688D+01           0.500000D+00
            S    2   1.00
                  0.296868D+01           0.500000D+00
                  0.135315D+01           0.355098D+00
            S    1   1.00
                  0.332196D+00           1.0000000
            S    1   1.00
                  0.116229D+00           1.0000000
            P    7   1.00
                  0.873928D+03           0.112375D-02
                  0.207298D+03           0.933330D-02
                  0.664628D+02           0.477213D-01
                  0.245665D+02           0.160733D+00
                  0.996820D+01           0.359760D+00
                  0.416536D+01           0.500000D+00
                  0.173022D+01           0.346593D+00
            P    2   1.00
                  0.772530D+01          -0.175718D-01
                  0.657252D+00           0.500000D+00
            P    1   1.00
                  0.239903D+00           1.0000000
            P    1   1.00
                  0.800988D-01           1.0000000
            D    1   1.00
                  0.189000D+01           1.0000000
            D    1   1.00
                  0.430000D+00           1.0000000
            F    1   1.00
                  0.600000D+00           1.0000000
            ****
            
 Initial command:
 /usr/local/apps/g16_b01_avx/g16/l1.exe "/wrk/irikura/Gau-420715.inp" -scrdir="/wrk/irikura/"
 Entering Link 1 = /usr/local/apps/g16_b01_avx/g16/l1.exe PID=    420717.
  
 Copyright (c) 1988-2017, Gaussian, Inc.  All Rights Reserved.
  
 This is part of the Gaussian(R) 16 program.  It is based on
 the Gaussian(R) 09 system (copyright 2009, Gaussian, Inc.),
 the Gaussian(R) 03 system (copyright 2003, Gaussian, Inc.),
 the Gaussian(R) 98 system (copyright 1998, Gaussian, Inc.),
 the Gaussian(R) 94 system (copyright 1995, Gaussian, Inc.),
 the Gaussian 92(TM) system (copyright 1992, Gaussian, Inc.),
 the Gaussian 90(TM) system (copyright 1990, Gaussian, Inc.),
 the Gaussian 88(TM) system (copyright 1988, Gaussian, Inc.),
 the Gaussian 86(TM) system (copyright 1986, Carnegie Mellon
 University), and the Gaussian 82(TM) system (copyright 1983,
 Carnegie Mellon University). Gaussian is a federally registered
 trademark of Gaussian, Inc.
  
 This software contains proprietary and confidential information,
 including trade secrets, belonging to Gaussian, Inc.
  
 This software is provided under written license and may be
 used, copied, transmitted, or stored only in accord with that
 written license.
  
 The following legend is applicable only to US Government
 contracts under FAR:
  
                    RESTRICTED RIGHTS LEGEND
  
 Use, reproduction and disclosure by the US Government is
 subject to restrictions as set forth in subparagraphs (a)
 and (c) of the Commercial Computer Software - Restricted
 Rights clause in FAR 52.227-19.
  
 Gaussian, Inc.
 340 Quinnipiac St., Bldg. 40, Wallingford CT 06492
  
  
 ---------------------------------------------------------------
 Warning -- This program may not be used in any manner that
 competes with the business of Gaussian, Inc. or will provide
 assistance to any competitor of Gaussian, Inc.  The licensee
 of this program is prohibited from giving any competitor of
 Gaussian, Inc. access to this program.  By using this program,
 the user acknowledges that Gaussian, Inc. is engaged in the
 business of creating and licensing software in the field of
 computational chemistry and represents and warrants to the
 licensee that it is not a competitor of Gaussian, Inc. and that
 it will not use this program in any manner prohibited above.
 ---------------------------------------------------------------
  

 Cite this work as:
 Gaussian 16, Revision B.01,
 M. J. Frisch, G. W. Trucks, H. B. Schlegel, G. E. Scuseria, 
 M. A. Robb, J. R. Cheeseman, G. Scalmani, V. Barone, 
 G. A. Petersson, H. Nakatsuji, X. Li, M. Caricato, A. V. Marenich, 
 J. Bloino, B. G. Janesko, R. Gomperts, B. Mennucci, H. P. Hratchian, 
 J. V. Ortiz, A. F. Izmaylov, J. L. Sonnenberg, D. Williams-Young, 
 F. Ding, F. Lipparini, F. Egidi, J. Goings, B. Peng, A. Petrone, 
 T. Henderson, D. Ranasinghe, V. G. Zakrzewski, J. Gao, N. Rega, 
 G. Zheng, W. Liang, M. Hada, M. Ehara, K. Toyota, R. Fukuda, 
 J. Hasegawa, M. Ishida, T. Nakajima, Y. Honda, O. Kitao, H. Nakai, 
 T. Vreven, K. Throssell, J. A. Montgomery, Jr., J. E. Peralta, 
 F. Ogliaro, M. J. Bearpark, J. J. Heyd, E. N. Brothers, K. N. Kudin, 
 V. N. Staroverov, T. A. Keith, R. Kobayashi, J. Normand, 
 K. Raghavachari, A. P. Rendell, J. C. Burant, S. S. Iyengar, 
 J. Tomasi, M. Cossi, J. M. Millam, M. Klene, C. Adamo, R. Cammi, 
 J. W. Ochterski, R. L. Martin, K. Morokuma, O. Farkas, 
 J. B. Foresman, and D. J. Fox, Gaussian, Inc., Wallingford CT, 2016.
 
 ******************************************
 Gaussian 16:  ES64L-G16RevB.01 20-Dec-2017
                29-Sep-2023 
 ******************************************
 %chk=acoh.chk
 %mem=500mw
 %nprocs=4
 Will use up to    4 processors via shared memory.
 ---------------------------------------
 # b3lyp/gen opt freq CPHF(Grid=OneStep)
 ---------------------------------------
 1/18=20,19=15,26=3,38=1/1,3;
 2/9=110,12=2,17=6,18=5,40=1/2;
 3/5=7,11=2,25=1,30=1,71=1,74=-5/1,2,3;
 4//1;
 5/5=2,38=5/2;
 6/7=2,8=2,9=2,10=2,28=1/1;
 7//1,2,3,16;
 1/18=20,19=15,26=3/3(2);
 2/9=110/2;
 99//99;
 2/9=110/2;
 3/5=7,6=1,11=2,25=1,30=1,71=1,74=-5,82=7/1,2,3;
 4/5=5,16=3,69=1/1;
 5/5=2,38=5/2;
 7//1,2,3,16;
 1/18=20,19=15,26=3/3(-5);
 2/9=110/2;
 6/7=2,8=2,9=2,10=2,19=2,28=1/1;
 99/9=1/99;
 --------------------------
 acetic acid, B3LYP/pcseg-2
 --------------------------
 Symbolic Z-matrix:
 Charge =  0 Multiplicity = 1
 C                     1.06768  -0.90098   0. 
 C                     0.        0.1554    0. 
 O                     0.18025   1.3444    0. 
 H                     2.04533  -0.43091   0. 
 H                     0.95859  -1.53753   0.87789 
 H                     0.95859  -1.53753  -0.87789 
 O                    -1.24208  -0.38981   0. 
 H                    -1.87393   0.34277   0. 
 

 GradGradGradGradGradGradGradGradGradGradGradGradGradGradGradGradGradGrad
 Berny optimization.
 Initialization pass.
                           ----------------------------
                           !    Initial Parameters    !
                           ! (Angstroms and Degrees)  !
 --------------------------                            --------------------------
 ! Name  Definition              Value          Derivative Info.                !
 --------------------------------------------------------------------------------
 ! R1    R(1,2)                  1.502          estimate D2E/DX2                !
 ! R2    R(1,4)                  1.0848         estimate D2E/DX2                !
 ! R3    R(1,5)                  1.0899         estimate D2E/DX2                !
 ! R4    R(1,6)                  1.0899         estimate D2E/DX2                !
 ! R5    R(2,3)                  1.2026         estimate D2E/DX2                !
 ! R6    R(2,7)                  1.3565         estimate D2E/DX2                !
 ! R7    R(7,8)                  0.9674         estimate D2E/DX2                !
 ! A1    A(2,1,4)              109.6262         estimate D2E/DX2                !
 ! A2    A(2,1,5)              109.8552         estimate D2E/DX2                !
 ! A3    A(2,1,6)              109.8552         estimate D2E/DX2                !
 ! A4    A(4,1,5)              110.0779         estimate D2E/DX2                !
 ! A5    A(4,1,6)              110.0779         estimate D2E/DX2                !
 ! A6    A(5,1,6)              107.3189         estimate D2E/DX2                !
 ! A7    A(1,2,3)              126.0749         estimate D2E/DX2                !
 ! A8    A(1,2,7)              111.6059         estimate D2E/DX2                !
 ! A9    A(3,2,7)              122.3192         estimate D2E/DX2                !
 ! A10   A(2,7,8)              107.0786         estimate D2E/DX2                !
 ! D1    D(4,1,2,3)              0.0            estimate D2E/DX2                !
 ! D2    D(4,1,2,7)            180.0            estimate D2E/DX2                !
 ! D3    D(5,1,2,3)            121.0831         estimate D2E/DX2                !
 ! D4    D(5,1,2,7)            -58.9169         estimate D2E/DX2                !
 ! D5    D(6,1,2,3)           -121.0831         estimate D2E/DX2                !
 ! D6    D(6,1,2,7)             58.9169         estimate D2E/DX2                !
 ! D7    D(1,2,7,8)            180.0            estimate D2E/DX2                !
 ! D8    D(3,2,7,8)              0.0            estimate D2E/DX2                !
 --------------------------------------------------------------------------------
 Trust Radius=3.00D-01 FncErr=1.00D-07 GrdErr=1.00D-06 EigMax=2.50D+02 EigMin=1.00D-04
 Number of steps in this run=     35 maximum allowed number of steps=    100.
 GradGradGradGradGradGradGradGradGradGradGradGradGradGradGradGradGradGrad

                          Input orientation:                          
 ---------------------------------------------------------------------
 Center     Atomic      Atomic             Coordinates (Angstroms)
 Number     Number       Type             X           Y           Z
 ---------------------------------------------------------------------
      1          6           0        1.067677   -0.900975    0.000000
      2          6           0        0.000000    0.155398    0.000000
      3          8           0        0.180247    1.344395    0.000000
      4          1           0        2.045333   -0.430909    0.000000
      5          1           0        0.958591   -1.537527    0.877890
      6          1           0        0.958591   -1.537527   -0.877890
      7          8           0       -1.242078   -0.389812    0.000000
      8          1           0       -1.873927    0.342768    0.000000
 ---------------------------------------------------------------------
                    Distance matrix (angstroms):
                    1          2          3          4          5
     1  C    0.000000
     2  C    1.501951   0.000000
     3  O    2.414377   1.202582   0.000000
     4  H    1.084792   2.127708   2.574927   0.000000
     5  H    1.089857   2.134381   3.111589   1.782218   0.000000
     6  H    1.089857   2.134381   3.111589   1.782218   1.755780
     7  O    2.365641   1.356470   2.242874   3.287668   2.632657
     8  H    3.193733   1.883271   2.285364   3.994894   3.511319
                    6          7          8
     6  H    0.000000
     7  O    2.632657   0.000000
     8  H    3.511319   0.967423   0.000000
 Stoichiometry    C2H4O2
 Framework group  CS[SG(C2H2O2),X(H2)]
 Deg. of freedom    12
 Full point group                 CS      NOp   2
 Largest Abelian subgroup         CS      NOp   2
 Largest concise Abelian subgroup CS      NOp   2
                         Standard orientation:                         
 ---------------------------------------------------------------------
 Center     Atomic      Atomic             Coordinates (Angstroms)
 Number     Number       Type             X           Y           Z
 ---------------------------------------------------------------------
      1          6           0        1.067677   -0.900976    0.000000
      2          6           0        0.000000    0.155398    0.000000
      3          8           0        0.180247    1.344395    0.000000
      4          1           0        2.045333   -0.430910    0.000000
      5          1           0        0.958590   -1.537528    0.877890
      6          1           0        0.958590   -1.537528   -0.877890
      7          8           0       -1.242078   -0.389812    0.000000
      8          1           0       -1.873927    0.342769    0.000000
 ---------------------------------------------------------------------
 Rotational constants (GHZ):          11.3705024           9.4730433           5.3372637
 General basis read from cards:  (5D, 7F)
 There are   133 symmetry adapted cartesian basis functions of A'  symmetry.
 There are    67 symmetry adapted cartesian basis functions of A"  symmetry.
 There are   114 symmetry adapted basis functions of A'  symmetry.
 There are    62 symmetry adapted basis functions of A"  symmetry.
   176 basis functions,   276 primitive gaussians,   200 cartesian basis functions
    16 alpha electrons       16 beta electrons
       nuclear repulsion energy       121.2159352887 Hartrees.
 NAtoms=    8 NActive=    8 NUniq=    7 SFac= 1.31D+00 NAtFMM=   60 NAOKFM=F Big=F
 Integral buffers will be    131072 words long.
 Raffenetti 2 integral format.
 Two-electron integral symmetry is turned on.
 One-electron integrals computed using PRISM.
 NBasis=   176 RedAO= T EigKep=  5.13D-04  NBF=   114    62
 NBsUse=   176 1.00D-06 EigRej= -1.00D+00 NBFU=   114    62
 ExpMin= 7.42D-02 ExpMax= 1.36D+04 ExpMxC= 4.64D+02 IAcc=3 IRadAn=         5 AccDes= 0.00D+00
 Harris functional with IExCor=  402 and IRadAn=       5 diagonalized for initial guess.
 HarFok:  IExCor=  402 AccDes= 0.00D+00 IRadAn=         5 IDoV= 1 UseB2=F ITyADJ=14
 ICtDFT=  3500011 ScaDFX=  1.000000  1.000000  1.000000  1.000000
 FoFCou: FMM=F IPFlag=           0 FMFlag=      100000 FMFlg1=           0
         NFxFlg=           0 DoJE=T BraDBF=F KetDBF=T FulRan=T
         wScrn=  0.000000 ICntrl=       500 IOpCl=  0 I1Cent=   200000004 NGrid=           0
         NMat0=    1 NMatS0=      1 NMatT0=    0 NMatD0=    1 NMtDS0=    0 NMtDT0=    0
 Petite list used in FoFCou.
 Initial guess orbital symmetries:
       Occupied  (A') (A') (A') (A') (A') (A') (A') (A') (A') (A')
                 (A") (A') (A') (A") (A") (A')
       Virtual   (A") (A') (A') (A') (A") (A') (A') (A') (A") (A')
                 (A") (A') (A') (A') (A") (A') (A') (A') (A') (A")
                 (A') (A') (A') (A") (A') (A') (A") (A') (A') (A')
                 (A") (A') (A") (A') (A") (A") (A') (A') (A") (A")
                 (A') (A') (A') (A") (A') (A') (A') (A") (A') (A")
                 (A') (A') (A") (A') (A') (A") (A') (A") (A') (A')
                 (A') (A') (A") (A') (A") (A') (A') (A') (A") (A")
                 (A') (A') (A") (A') (A') (A') (A") (A') (A') (A")
                 (A") (A') (A') (A') (A") (A") (A') (A') (A") (A')
                 (A") (A') (A") (A") (A") (A') (A') (A") (A') (A')
                 (A") (A') (A') (A") (A") (A') (A') (A") (A') (A')
                 (A') (A') (A") (A") (A") (A') (A") (A') (A') (A')
                 (A") (A") (A') (A') (A") (A') (A') (A') (A') (A")
                 (A') (A') (A") (A") (A') (A') (A") (A') (A") (A')
                 (A') (A") (A") (A') (A') (A") (A") (A') (A') (A")
                 (A') (A") (A') (A") (A') (A') (A') (A') (A') (A')
 The electronic state of the initial guess is 1-A'.
 Keep R1 ints in memory in symmetry-blocked form, NReq=182527667.
 Requested convergence on RMS density matrix=1.00D-08 within 128 cycles.
 Requested convergence on MAX density matrix=1.00D-06.
 Requested convergence on             energy=1.00D-06.
 No special actions if energy rises.
 Integral accuracy reduced to 1.0D-05 until final iterations.
 Initial convergence to 1.0D-05 achieved.  Increase integral accuracy.
 SCF Done:  E(RB3LYP) =  -229.190855036     A.U. after   12 cycles
            NFock= 12  Conv=0.62D-08     -V/T= 2.0033

 **********************************************************************

            Population analysis using the SCF Density.

 **********************************************************************

 Orbital symmetries:
       Occupied  (A') (A') (A') (A') (A') (A') (A') (A') (A') (A')
                 (A") (A') (A') (A") (A") (A')
       Virtual   (A") (A') (A') (A') (A") (A') (A') (A') (A") (A")
                 (A') (A') (A') (A') (A") (A') (A') (A') (A') (A")
                 (A') (A') (A") (A') (A') (A') (A") (A') (A') (A")
                 (A') (A') (A") (A") (A') (A") (A') (A") (A') (A')
                 (A") (A') (A') (A") (A') (A') (A') (A") (A') (A")
                 (A') (A') (A") (A') (A') (A") (A') (A") (A') (A')
                 (A') (A') (A") (A') (A") (A') (A') (A') (A") (A')
                 (A") (A') (A") (A') (A') (A') (A") (A') (A') (A")
                 (A") (A') (A') (A") (A') (A") (A') (A') (A") (A')
                 (A") (A') (A") (A") (A") (A') (A') (A') (A") (A')
                 (A") (A') (A') (A") (A") (A') (A') (A") (A') (A')
                 (A') (A") (A') (A") (A") (A') (A") (A') (A') (A')
                 (A") (A") (A') (A') (A") (A') (A') (A') (A') (A")
                 (A') (A') (A") (A") (A') (A') (A") (A') (A') (A")
                 (A") (A') (A") (A') (A') (A") (A') (A") (A") (A')
                 (A') (A") (A') (A") (A') (A') (A') (A') (A') (A')
 The electronic state is 1-A'.
 Alpha  occ. eigenvalues --  -19.17854 -19.12095 -10.31647 -10.19062  -1.11813
 Alpha  occ. eigenvalues --   -1.02900  -0.76923  -0.62332  -0.50250  -0.49040
 Alpha  occ. eigenvalues --   -0.48181  -0.42257  -0.40849  -0.40439  -0.33742
 Alpha  occ. eigenvalues --   -0.29221
 Alpha virt. eigenvalues --   -0.00717   0.00492   0.03246   0.07486   0.07683
 Alpha virt. eigenvalues --    0.10593   0.14476   0.17115   0.17410   0.19134
 Alpha virt. eigenvalues --    0.19589   0.22863   0.29474   0.31058   0.33415
 Alpha virt. eigenvalues --    0.33517   0.34879   0.36238   0.38956   0.39871
 Alpha virt. eigenvalues --    0.40466   0.45687   0.48217   0.51435   0.53008
 Alpha virt. eigenvalues --    0.55679   0.64469   0.72260   0.76787   0.80525
 Alpha virt. eigenvalues --    0.81164   0.88947   0.91467   0.93052   0.94325
 Alpha virt. eigenvalues --    0.96371   1.02145   1.05304   1.05465   1.13322
 Alpha virt. eigenvalues --    1.14279   1.17024   1.20097   1.22225   1.24519
 Alpha virt. eigenvalues --    1.29184   1.38747   1.42029   1.44891   1.51371
 Alpha virt. eigenvalues --    1.53358   1.61668   1.63083   1.63513   1.71741
 Alpha virt. eigenvalues --    1.74357   1.77150   1.80051   1.81157   1.86778
 Alpha virt. eigenvalues --    1.94045   1.95840   1.96592   2.02681   2.08760
 Alpha virt. eigenvalues --    2.18137   2.22335   2.26947   2.35396   2.44996
 Alpha virt. eigenvalues --    2.46217   2.53959   2.63020   2.73634   2.93402
 Alpha virt. eigenvalues --    2.97294   3.06148   3.10361   3.22543   3.26078
 Alpha virt. eigenvalues --    3.26424   3.29456   3.42241   3.42801   3.43069
 Alpha virt. eigenvalues --    3.49984   3.54197   3.61903   3.64916   3.68257
 Alpha virt. eigenvalues --    3.71584   3.74273   3.80405   3.82458   3.85055
 Alpha virt. eigenvalues --    3.89196   3.93018   3.97830   3.99041   4.05571
 Alpha virt. eigenvalues --    4.08624   4.13085   4.16767   4.17217   4.19196
 Alpha virt. eigenvalues --    4.24611   4.27483   4.30015   4.33815   4.38379
 Alpha virt. eigenvalues --    4.43304   4.44205   4.48905   4.49252   4.57236
 Alpha virt. eigenvalues --    4.58307   4.59825   4.62466   4.66251   4.69038
 Alpha virt. eigenvalues --    4.70559   4.74409   4.78790   4.82055   4.88450
 Alpha virt. eigenvalues --    4.90259   4.96211   4.98207   5.05577   5.12203
 Alpha virt. eigenvalues --    5.25246   5.31397   5.38129   5.46271   5.52537
 Alpha virt. eigenvalues --    5.57276   5.77657   5.78625   5.81108   5.82129
 Alpha virt. eigenvalues --    5.87608   5.87955   6.03696   6.05574   6.07767
 Alpha virt. eigenvalues --    6.07917   6.14901   6.15261   6.21312   6.21713
 Alpha virt. eigenvalues --    6.42568   6.45505   6.46600   6.53854   6.60149
 Alpha virt. eigenvalues --    6.68121   6.97834   7.03180   7.26826   7.52950
          Condensed to atoms (all electrons):
               1          2          3          4          5          6
     1  C    4.629265   0.324142  -0.069777   0.441895   0.401323   0.401323
     2  C    0.324142   4.412270   0.601330  -0.052880  -0.015998  -0.015998
     3  O   -0.069777   0.601330   7.987279   0.004674   0.000499   0.000499
     4  H    0.441895  -0.052880   0.004674   0.578094  -0.019145  -0.019145
     5  H    0.401323  -0.015998   0.000499  -0.019145   0.605008  -0.020101
     6  H    0.401323  -0.015998   0.000499  -0.019145  -0.020101   0.605008
     7  O   -0.086576   0.300578  -0.112892   0.004648   0.001966   0.001966
     8  H    0.011090  -0.010975   0.011947  -0.001097  -0.000444  -0.000444
               7          8
     1  C   -0.086576   0.011090
     2  C    0.300578  -0.010975
     3  O   -0.112892   0.011947
     4  H    0.004648  -0.001097
     5  H    0.001966  -0.000444
     6  H    0.001966  -0.000444
     7  O    7.925229   0.314583
     8  H    0.314583   0.463874
 Mulliken charges:
               1
     1  C   -0.052684
     2  C    0.457531
     3  O   -0.423560
     4  H    0.062957
     5  H    0.046894
     6  H    0.046894
     7  O   -0.349500
     8  H    0.211467
 Sum of Mulliken charges =  -0.00000
 Mulliken charges with hydrogens summed into heavy atoms:
               1
     1  C    0.104061
     2  C    0.457531
     3  O   -0.423560
     7  O   -0.138032
 Electronic spatial extent (au):  <R**2>=            253.9317
 Charge=             -0.0000 electrons
 Dipole moment (field-independent basis, Debye):
    X=             -0.2831    Y=             -1.7529    Z=             -0.0000  Tot=              1.7756
 Quadrupole moment (field-independent basis, Debye-Ang):
   XX=            -20.3527   YY=            -27.7658   ZZ=            -23.3099
   XY=             -3.7780   XZ=             -0.0000   YZ=              0.0000
 Traceless Quadrupole moment (field-independent basis, Debye-Ang):
   XX=              3.4568   YY=             -3.9563   ZZ=              0.4996
   XY=             -3.7780   XZ=             -0.0000   YZ=              0.0000
 Octapole moment (field-independent basis, Debye-Ang**2):
  XXX=            -10.9398  YYY=             -4.6679  ZZZ=             -0.0000  XYY=             -1.2623
  XXY=              4.8154  XXZ=             -0.0000  XZZ=             -1.0712  YZZ=             -0.0209
  YYZ=             -0.0000  XYZ=              0.0000
 Hexadecapole moment (field-independent basis, Debye-Ang**3):
 XXXX=           -123.2718 YYYY=           -146.4919 ZZZZ=            -28.2735 XXXY=              5.0484
 XXXZ=              0.0000 YYYX=              9.6553 YYYZ=              0.0000 ZZZX=              0.0000
 ZZZY=             -0.0000 XXYY=            -49.4731 XXZZ=            -30.5669 YYZZ=            -25.9903
 XXYZ=              0.0000 YYXZ=             -0.0000 ZZXY=              2.9298
 N-N= 1.212159352887D+02 E-N=-7.807130174977D+02  KE= 2.284458756938D+02
 Symmetry A'   KE= 2.180308514647D+02
 Symmetry A"   KE= 1.041502422909D+01
 Calling FoFJK, ICntrl=      2127 FMM=F ISym2X=1 I1Cent= 0 IOpClX= 0 NMat=1 NMatS=1 NMatT=0.
 ***** Axes restored to original set *****
 -------------------------------------------------------------------
 Center     Atomic                   Forces (Hartrees/Bohr)
 Number     Number              X              Y              Z
 -------------------------------------------------------------------
      1        6          -0.000004362   -0.000037135    0.000000000
      2        6           0.000066690    0.000138270    0.000000000
      3        8          -0.000019758   -0.000060414    0.000000000
      4        1           0.000020285    0.000005281   -0.000000000
      5        1          -0.000007128    0.000002594    0.000008588
      6        1          -0.000007128    0.000002594   -0.000008588
      7        8          -0.000014582   -0.000110023    0.000000000
      8        1          -0.000034018    0.000058833   -0.000000000
 -------------------------------------------------------------------
 Cartesian Forces:  Max     0.000138270 RMS     0.000044084

 GradGradGradGradGradGradGradGradGradGradGradGradGradGradGradGradGradGrad
 Berny optimization.
 FormGI is forming the generalized inverse of G from B-inverse, IUseBI=4.
 Internal  Forces:  Max     0.000066564 RMS     0.000026401
 Search for a local minimum.
 Step number   1 out of a maximum of   35
 All quantities printed in internal units (Hartrees-Bohrs-Radians)
 Mixed Optimization -- En-DIIS/RFO-DIIS
 Second derivative matrix not updated -- first step.
 ITU=  0
     Eigenvalues ---    0.00740   0.01097   0.02268   0.07405   0.07516
     Eigenvalues ---    0.16000   0.16000   0.16000   0.16000   0.25000
     Eigenvalues ---    0.25000   0.32173   0.34829   0.34829   0.35422
     Eigenvalues ---    0.53667   0.53907   1.03536
 RFO step:  Lambda=-4.06938738D-08 EMin= 7.40133877D-03
 Linear search not attempted -- first point.
 Iteration  1 RMS(Cart)=  0.00010059 RMS(Int)=  0.00000001
 Iteration  2 RMS(Cart)=  0.00000001 RMS(Int)=  0.00000000
 ClnCor:  largest displacement from symmetrization is 3.46D-12 for atom     7.
 Variable       Old X    -DE/DX   Delta X   Delta X   Delta X     New X
                                 (Linear)    (Quad)   (Total)
    R1        2.83828   0.00002   0.00000   0.00006   0.00006   2.83834
    R2        2.04996   0.00002   0.00000   0.00006   0.00006   2.05002
    R3        2.05953   0.00001   0.00000   0.00002   0.00002   2.05955
    R4        2.05953   0.00001   0.00000   0.00002   0.00002   2.05955
    R5        2.27255  -0.00006   0.00000  -0.00006  -0.00006   2.27249
    R6        2.56336   0.00007   0.00000   0.00012   0.00012   2.56348
    R7        1.82816   0.00007   0.00000   0.00012   0.00012   1.82829
    A1        1.91334   0.00001   0.00000   0.00007   0.00007   1.91341
    A2        1.91733  -0.00001   0.00000  -0.00008  -0.00008   1.91725
    A3        1.91733  -0.00001   0.00000  -0.00008  -0.00008   1.91725
    A4        1.92122   0.00000   0.00000   0.00002   0.00002   1.92124
    A5        1.92122   0.00000   0.00000   0.00002   0.00002   1.92124
    A6        1.87307   0.00001   0.00000   0.00005   0.00005   1.87312
    A7        2.20042   0.00003   0.00000   0.00013   0.00013   2.20055
    A8        1.94789  -0.00004   0.00000  -0.00016  -0.00016   1.94773
    A9        2.13487   0.00001   0.00000   0.00003   0.00003   2.13491
   A10        1.86887  -0.00002   0.00000  -0.00014  -0.00014   1.86873
    D1        0.00000  -0.00000   0.00000   0.00000   0.00000   0.00000
    D2        3.14159  -0.00000   0.00000  -0.00000   0.00000   3.14159
    D3        2.11330   0.00000   0.00000   0.00002   0.00002   2.11332
    D4       -1.02829   0.00000   0.00000   0.00002   0.00002  -1.02828
    D5       -2.11330  -0.00000   0.00000  -0.00002  -0.00002  -2.11332
    D6        1.02829  -0.00000   0.00000  -0.00002  -0.00002   1.02828
    D7        3.14159   0.00000   0.00000   0.00000   0.00000   3.14159
    D8        0.00000  -0.00000   0.00000  -0.00000   0.00000   0.00000
         Item               Value     Threshold  Converged?
 Maximum Force            0.000067     0.000450     YES
 RMS     Force            0.000026     0.000300     YES
 Maximum Displacement     0.000196     0.001800     YES
 RMS     Displacement     0.000101     0.001200     YES
 Predicted change in Energy=-2.034691D-08
 Optimization completed.
    -- Stationary point found.
                           ----------------------------
                           !   Optimized Parameters   !
                           ! (Angstroms and Degrees)  !
 --------------------------                            --------------------------
 ! Name  Definition              Value          Derivative Info.                !
 --------------------------------------------------------------------------------
 ! R1    R(1,2)                  1.502          -DE/DX =    0.0                 !
 ! R2    R(1,4)                  1.0848         -DE/DX =    0.0                 !
 ! R3    R(1,5)                  1.0899         -DE/DX =    0.0                 !
 ! R4    R(1,6)                  1.0899         -DE/DX =    0.0                 !
 ! R5    R(2,3)                  1.2026         -DE/DX =   -0.0001              !
 ! R6    R(2,7)                  1.3565         -DE/DX =    0.0001              !
 ! R7    R(7,8)                  0.9674         -DE/DX =    0.0001              !
 ! A1    A(2,1,4)              109.6262         -DE/DX =    0.0                 !
 ! A2    A(2,1,5)              109.8552         -DE/DX =    0.0                 !
 ! A3    A(2,1,6)              109.8552         -DE/DX =    0.0                 !
 ! A4    A(4,1,5)              110.0779         -DE/DX =    0.0                 !
 ! A5    A(4,1,6)              110.0779         -DE/DX =    0.0                 !
 ! A6    A(5,1,6)              107.3189         -DE/DX =    0.0                 !
 ! A7    A(1,2,3)              126.0749         -DE/DX =    0.0                 !
 ! A8    A(1,2,7)              111.6059         -DE/DX =    0.0                 !
 ! A9    A(3,2,7)              122.3192         -DE/DX =    0.0                 !
 ! A10   A(2,7,8)              107.0786         -DE/DX =    0.0                 !
 ! D1    D(4,1,2,3)              0.0            -DE/DX =    0.0                 !
 ! D2    D(4,1,2,7)            180.0            -DE/DX =    0.0                 !
 ! D3    D(5,1,2,3)            121.0831         -DE/DX =    0.0                 !
 ! D4    D(5,1,2,7)            -58.9169         -DE/DX =    0.0                 !
 ! D5    D(6,1,2,3)           -121.0831         -DE/DX =    0.0                 !
 ! D6    D(6,1,2,7)             58.9169         -DE/DX =    0.0                 !
 ! D7    D(1,2,7,8)            180.0            -DE/DX =    0.0                 !
 ! D8    D(3,2,7,8)              0.0            -DE/DX =    0.0                 !
 --------------------------------------------------------------------------------
 GradGradGradGradGradGradGradGradGradGradGradGradGradGradGradGradGradGrad

                          Input orientation:                          
 ---------------------------------------------------------------------
 Center     Atomic      Atomic             Coordinates (Angstroms)
 Number     Number       Type             X           Y           Z
 ---------------------------------------------------------------------
      1          6           0        1.067677   -0.900975    0.000000
      2          6           0       -0.000000    0.155398    0.000000
      3          8           0        0.180247    1.344395    0.000000
      4          1           0        2.045333   -0.430909    0.000000
      5          1           0        0.958591   -1.537527    0.877890
      6          1           0        0.958591   -1.537527   -0.877890
      7          8           0       -1.242078   -0.389812    0.000000
      8          1           0       -1.873927    0.342768    0.000000
 ---------------------------------------------------------------------
                    Distance matrix (angstroms):
                    1          2          3          4          5
     1  C    0.000000
     2  C    1.501951   0.000000
     3  O    2.414377   1.202582   0.000000
     4  H    1.084792   2.127708   2.574927   0.000000
     5  H    1.089857   2.134381   3.111589   1.782218   0.000000
     6  H    1.089857   2.134381   3.111589   1.782218   1.755780
     7  O    2.365641   1.356470   2.242874   3.287668   2.632657
     8  H    3.193733   1.883271   2.285364   3.994894   3.511319
                    6          7          8
     6  H    0.000000
     7  O    2.632657   0.000000
     8  H    3.511319   0.967423   0.000000
 Stoichiometry    C2H4O2
 Framework group  CS[SG(C2H2O2),X(H2)]
 Deg. of freedom    12
 Full point group                 CS      NOp   2
 Largest Abelian subgroup         CS      NOp   2
 Largest concise Abelian subgroup CS      NOp   2
                         Standard orientation:                         
 ---------------------------------------------------------------------
 Center     Atomic      Atomic             Coordinates (Angstroms)
 Number     Number       Type             X           Y           Z
 ---------------------------------------------------------------------
      1          6           0        1.067677   -0.900976    0.000000
      2          6           0        0.000000    0.155398    0.000000
      3          8           0        0.180247    1.344395    0.000000
      4          1           0        2.045333   -0.430910    0.000000
      5          1           0        0.958590   -1.537528    0.877890
      6          1           0        0.958590   -1.537528   -0.877890
      7          8           0       -1.242078   -0.389812    0.000000
      8          1           0       -1.873927    0.342769    0.000000
 ---------------------------------------------------------------------
 Rotational constants (GHZ):          11.3705024           9.4730433           5.3372637
 1\1\GINC-GAMBA\FOpt\RB3LYP\Gen\C2H4O2\IRIKURA\29-Sep-2023\0\\# b3lyp/g
 en opt freq CPHF(Grid=OneStep)\\acetic acid, B3LYP/pcseg-2\\0,1\C,1.06
 7677,-0.900975,0.\C,0.,0.155398,0.\O,0.180247,1.344395,0.\H,2.045333,-
 0.430909,0.\H,0.958591,-1.537527,0.87789\H,0.958591,-1.537527,-0.87789
 \O,-1.242078,-0.389812,0.\H,-1.873927,0.342768,0.\\Version=ES64L-G16Re
 vB.01\State=1-A'\HF=-229.190855\RMSD=6.223e-09\RMSF=4.408e-05\Dipole=-
 0.1113616,-0.689633,0.\Quadrupole=2.5700211,-2.9414512,0.37143,-2.8088
 339,0.,0.\PG=CS [SG(C2H2O2),X(H2)]\\@


     "IF I COULD JUST GET IT ON PAPER"
 LIFE AND INK, THEY RUN OUT AT THE SAME TIME,
 OR SO SAID MY OLD FRIEND THE SQUID.
     -- JIMMY BUFFETT, 1981
 Job cpu time:       0 days  0 hours  1 minutes 10.1 seconds.
 Elapsed time:       0 days  0 hours  0 minutes 18.1 seconds.
 File lengths (MBytes):  RWF=     19 Int=      0 D2E=      0 Chk=      3 Scr=      1
 Normal termination of Gaussian 16 at Fri Sep 29 22:51:10 2023.
 Link1:  Proceeding to internal job step number  2.
 ------------------------------------------------------------------
 #N Geom=AllCheck Guess=TCheck SCRF=Check GenChk RB3LYP/ChkBas Freq
 ------------------------------------------------------------------
 1/10=4,29=7,30=1,38=1,40=1/1,3;
 2/12=2,40=1/2;
 3/5=7,6=2,11=2,14=-4,25=1,30=1,67=1,70=2,71=2,74=-5,82=7,116=1,140=1/1,2,3;
 4/5=101/1;
 5/5=2,38=6,98=1/2;
 8/6=4,10=90,11=11/1;
 11/6=1,8=1,9=11,15=111,16=1/1,2,10;
 10/6=1,60=-420/2;
 6/7=2,8=2,9=2,10=2,28=1/1;
 7/8=1,10=1,25=1/1,2,3,16;
 1/10=4,30=1/3;
 99//99;
 Structure from the checkpoint file:  "acoh.chk"
 --------------------------
 acetic acid, B3LYP/pcseg-2
 --------------------------
 Charge =  0 Multiplicity = 1
 Redundant internal coordinates found in file.  (old form).
 C,0,1.067677,-0.900975,0.
 C,0,0.,0.155398,0.
 O,0,0.180247,1.344395,0.
 H,0,2.045333,-0.430909,0.
 H,0,0.958591,-1.537527,0.87789
 H,0,0.958591,-1.537527,-0.87789
 O,0,-1.242078,-0.389812,0.
 H,0,-1.873927,0.342768,0.
 Recover connectivity data from disk.

 GradGradGradGradGradGradGradGradGradGradGradGradGradGradGradGradGradGrad
 Berny optimization.
 Initialization pass.
                           ----------------------------
                           !    Initial Parameters    !
                           ! (Angstroms and Degrees)  !
 --------------------------                            --------------------------
 ! Name  Definition              Value          Derivative Info.                !
 --------------------------------------------------------------------------------
 ! R1    R(1,2)                  1.502          calculate D2E/DX2 analytically  !
 ! R2    R(1,4)                  1.0848         calculate D2E/DX2 analytically  !
 ! R3    R(1,5)                  1.0899         calculate D2E/DX2 analytically  !
 ! R4    R(1,6)                  1.0899         calculate D2E/DX2 analytically  !
 ! R5    R(2,3)                  1.2026         calculate D2E/DX2 analytically  !
 ! R6    R(2,7)                  1.3565         calculate D2E/DX2 analytically  !
 ! R7    R(7,8)                  0.9674         calculate D2E/DX2 analytically  !
 ! A1    A(2,1,4)              109.6262         calculate D2E/DX2 analytically  !
 ! A2    A(2,1,5)              109.8552         calculate D2E/DX2 analytically  !
 ! A3    A(2,1,6)              109.8552         calculate D2E/DX2 analytically  !
 ! A4    A(4,1,5)              110.0779         calculate D2E/DX2 analytically  !
 ! A5    A(4,1,6)              110.0779         calculate D2E/DX2 analytically  !
 ! A6    A(5,1,6)              107.3189         calculate D2E/DX2 analytically  !
 ! A7    A(1,2,3)              126.0749         calculate D2E/DX2 analytically  !
 ! A8    A(1,2,7)              111.6059         calculate D2E/DX2 analytically  !
 ! A9    A(3,2,7)              122.3192         calculate D2E/DX2 analytically  !
 ! A10   A(2,7,8)              107.0786         calculate D2E/DX2 analytically  !
 ! D1    D(4,1,2,3)              0.0            calculate D2E/DX2 analytically  !
 ! D2    D(4,1,2,7)            180.0            calculate D2E/DX2 analytically  !
 ! D3    D(5,1,2,3)            121.0831         calculate D2E/DX2 analytically  !
 ! D4    D(5,1,2,7)            -58.9169         calculate D2E/DX2 analytically  !
 ! D5    D(6,1,2,3)           -121.0831         calculate D2E/DX2 analytically  !
 ! D6    D(6,1,2,7)             58.9169         calculate D2E/DX2 analytically  !
 ! D7    D(1,2,7,8)            180.0            calculate D2E/DX2 analytically  !
 ! D8    D(3,2,7,8)              0.0            calculate D2E/DX2 analytically  !
 --------------------------------------------------------------------------------
 Trust Radius=3.00D-01 FncErr=1.00D-07 GrdErr=1.00D-07 EigMax=2.50D+02 EigMin=1.00D-04
 Number of steps in this run=      2 maximum allowed number of steps=      2.
 GradGradGradGradGradGradGradGradGradGradGradGradGradGradGradGradGradGrad

                          Input orientation:                          
 ---------------------------------------------------------------------
 Center     Atomic      Atomic             Coordinates (Angstroms)
 Number     Number       Type             X           Y           Z
 ---------------------------------------------------------------------
      1          6           0        1.067677   -0.900975    0.000000
      2          6           0        0.000000    0.155398    0.000000
      3          8           0        0.180247    1.344395    0.000000
      4          1           0        2.045333   -0.430909    0.000000
      5          1           0        0.958591   -1.537527    0.877890
      6          1           0        0.958591   -1.537527   -0.877890
      7          8           0       -1.242078   -0.389812    0.000000
      8          1           0       -1.873927    0.342768    0.000000
 ---------------------------------------------------------------------
                    Distance matrix (angstroms):
                    1          2          3          4          5
     1  C    0.000000
     2  C    1.501951   0.000000
     3  O    2.414377   1.202582   0.000000
     4  H    1.084792   2.127708   2.574927   0.000000
     5  H    1.089857   2.134381   3.111589   1.782218   0.000000
     6  H    1.089857   2.134381   3.111589   1.782218   1.755780
     7  O    2.365641   1.356470   2.242874   3.287668   2.632657
     8  H    3.193733   1.883271   2.285364   3.994894   3.511319
                    6          7          8
     6  H    0.000000
     7  O    2.632657   0.000000
     8  H    3.511319   0.967423   0.000000
 Stoichiometry    C2H4O2
 Framework group  CS[SG(C2H2O2),X(H2)]
 Deg. of freedom    12
 Full point group                 CS      NOp   2
 Largest Abelian subgroup         CS      NOp   2
 Largest concise Abelian subgroup CS      NOp   2
                         Standard orientation:                         
 ---------------------------------------------------------------------
 Center     Atomic      Atomic             Coordinates (Angstroms)
 Number     Number       Type             X           Y           Z
 ---------------------------------------------------------------------
      1          6           0        1.067677   -0.900976    0.000000
      2          6           0       -0.000000    0.155398    0.000000
      3          8           0        0.180247    1.344395    0.000000
      4          1           0        2.045333   -0.430910    0.000000
      5          1           0        0.958590   -1.537528    0.877890
      6          1           0        0.958590   -1.537528   -0.877890
      7          8           0       -1.242078   -0.389812    0.000000
      8          1           0       -1.873927    0.342769    0.000000
 ---------------------------------------------------------------------
 Rotational constants (GHZ):          11.3705024           9.4730433           5.3372637
 Basis read from chk: "acoh.chk" (5D, 7F)
 There are   133 symmetry adapted cartesian basis functions of A'  symmetry.
 There are    67 symmetry adapted cartesian basis functions of A"  symmetry.
 There are   114 symmetry adapted basis functions of A'  symmetry.
 There are    62 symmetry adapted basis functions of A"  symmetry.
   176 basis functions,   276 primitive gaussians,   200 cartesian basis functions
    16 alpha electrons       16 beta electrons
       nuclear repulsion energy       121.2159352887 Hartrees.
 NAtoms=    8 NActive=    8 NUniq=    7 SFac= 1.31D+00 NAtFMM=   60 NAOKFM=F Big=F
 Integral buffers will be    131072 words long.
 Raffenetti 2 integral format.
 Two-electron integral symmetry is turned on.
 One-electron integrals computed using PRISM.
 NBasis=   176 RedAO= T EigKep=  5.13D-04  NBF=   114    62
 NBsUse=   176 1.00D-06 EigRej= -1.00D+00 NBFU=   114    62
 Initial guess from the checkpoint file:  "acoh.chk"
 B after Tr=    -0.000000   -0.000000    0.000000
         Rot=    1.000000    0.000000   -0.000000    0.000000 Ang=   0.00 deg.
 Initial guess orbital symmetries:
       Occupied  (A') (A') (A') (A') (A') (A') (A') (A') (A') (A')
                 (A") (A') (A') (A") (A") (A')
       Virtual   (A") (A') (A') (A') (A") (A') (A') (A') (A") (A")
                 (A') (A') (A') (A') (A") (A') (A') (A') (A') (A")
                 (A') (A') (A") (A') (A') (A') (A") (A') (A') (A")
                 (A') (A') (A") (A") (A') (A") (A') (A") (A') (A')
                 (A") (A') (A') (A") (A') (A') (A') (A") (A') (A")
                 (A') (A') (A") (A') (A') (A") (A') (A") (A') (A')
                 (A') (A') (A") (A') (A") (A') (A') (A') (A") (A')
                 (A") (A') (A") (A') (A') (A') (A") (A') (A') (A")
                 (A") (A') (A') (A") (A') (A") (A') (A') (A") (A')
                 (A") (A') (A") (A") (A") (A') (A') (A') (A") (A')
                 (A") (A') (A') (A") (A") (A') (A') (A") (A') (A')
                 (A') (A") (A') (A") (A") (A') (A") (A') (A') (A')
                 (A") (A") (A') (A') (A") (A') (A') (A') (A') (A")
                 (A') (A') (A") (A") (A') (A') (A") (A') (A') (A")
                 (A") (A') (A") (A') (A') (A") (A') (A") (A") (A')
                 (A') (A") (A') (A") (A') (A') (A') (A') (A') (A')
 Keep R1 ints in memory in symmetry-blocked form, NReq=182527667.
 Requested convergence on RMS density matrix=1.00D-08 within 128 cycles.
 Requested convergence on MAX density matrix=1.00D-06.
 Requested convergence on             energy=1.00D-06.
 No special actions if energy rises.
 SCF Done:  E(RB3LYP) =  -229.190855036     A.U. after    1 cycles
            NFock=  1  Conv=0.45D-08     -V/T= 2.0033
 DoSCS=F DFT=T ScalE2(SS,OS)=  1.000000  1.000000
 Range of M.O.s used for correlation:     1   176
 NBasis=   176 NAE=    16 NBE=    16 NFC=     0 NFV=     0
 NROrb=    176 NOA=    16 NOB=    16 NVA=   160 NVB=   160

 **** Warning!!: The largest alpha MO coefficient is  0.12285625D+02

 Symmetrizing basis deriv contribution to polar:
 IMax=3 JMax=2 DiffMx= 0.00D+00
 G2DrvN: will do     9 centers at a time, making    1 passes.
 Calling FoFCou, ICntrl=  3107 FMM=F I1Cent=   0 AccDes= 0.00D+00.
 End of G2Drv F.D. properties file   721 does not exist.
 End of G2Drv F.D. properties file   722 does not exist.
 End of G2Drv F.D. properties file   788 does not exist.
          IDoAtm=11111111
          Differentiating once with respect to electric field.
                with respect to dipole field.
          Differentiating once with respect to nuclear coordinates.
 Keep R1 ints in memory in symmetry-blocked form, NReq=182532675.
          There are    24 degrees of freedom in the 1st order CPHF.  IDoFFX=4 NUNeed=    24.
     24 vectors produced by pass  0 Test12= 1.07D-14 4.17D-09 XBig12= 2.71D+01 2.99D+00.
 AX will form    24 AO Fock derivatives at one time.
     24 vectors produced by pass  1 Test12= 1.07D-14 4.17D-09 XBig12= 4.63D+00 5.95D-01.
     24 vectors produced by pass  2 Test12= 1.07D-14 4.17D-09 XBig12= 1.13D-01 6.87D-02.
     24 vectors produced by pass  3 Test12= 1.07D-14 4.17D-09 XBig12= 8.73D-04 7.85D-03.
     24 vectors produced by pass  4 Test12= 1.07D-14 4.17D-09 XBig12= 1.73D-06 2.73D-04.
     17 vectors produced by pass  5 Test12= 1.07D-14 4.17D-09 XBig12= 2.21D-09 8.28D-06.
      4 vectors produced by pass  6 Test12= 1.07D-14 4.17D-09 XBig12= 2.67D-12 3.43D-07.
      1 vectors produced by pass  7 Test12= 1.07D-14 4.17D-09 XBig12= 2.91D-15 1.20D-08.
 InvSVY:  IOpt=1 It=  1 EMax= 7.11D-15
 Solved reduced A of dimension   142 with    24 vectors.
 Isotropic polarizability for W=    0.000000       32.07 Bohr**3.
 End of Minotr F.D. properties file   721 does not exist.
 End of Minotr F.D. properties file   722 does not exist.
 End of Minotr F.D. properties file   788 does not exist.

 **********************************************************************

            Population analysis using the SCF Density.

 **********************************************************************

 Orbital symmetries:
       Occupied  (A') (A') (A') (A') (A') (A') (A') (A') (A') (A')
                 (A") (A') (A') (A") (A") (A')
       Virtual   (A") (A') (A') (A') (A") (A') (A') (A') (A") (A")
                 (A') (A') (A') (A') (A") (A') (A') (A') (A') (A")
                 (A') (A') (A") (A') (A') (A') (A") (A') (A') (A")
                 (A') (A') (A") (A") (A') (A") (A') (A") (A') (A')
                 (A") (A') (A') (A") (A') (A') (A') (A") (A') (A")
                 (A') (A') (A") (A') (A') (A") (A') (A") (A') (A')
                 (A') (A') (A") (A') (A") (A') (A') (A') (A") (A')
                 (A") (A') (A") (A') (A') (A') (A") (A') (A') (A")
                 (A") (A') (A') (A") (A') (A") (A') (A') (A") (A')
                 (A") (A') (A") (A") (A") (A') (A') (A') (A") (A')
                 (A") (A') (A') (A") (A") (A') (A') (A") (A') (A')
                 (A') (A") (A') (A") (A") (A') (A") (A') (A') (A')
                 (A") (A") (A') (A') (A") (A') (A') (A') (A') (A")
                 (A') (A') (A") (A") (A') (A') (A") (A') (A') (A")
                 (A") (A') (A") (A') (A') (A") (A') (A") (A") (A')
                 (A') (A") (A') (A") (A') (A') (A') (A') (A') (A')
 The electronic state is 1-A'.
 Alpha  occ. eigenvalues --  -19.17853 -19.12095 -10.31647 -10.19062  -1.11813
 Alpha  occ. eigenvalues --   -1.02900  -0.76923  -0.62332  -0.50250  -0.49040
 Alpha  occ. eigenvalues --   -0.48181  -0.42257  -0.40849  -0.40439  -0.33742
 Alpha  occ. eigenvalues --   -0.29221
 Alpha virt. eigenvalues --   -0.00717   0.00492   0.03246   0.07486   0.07683
 Alpha virt. eigenvalues --    0.10593   0.14476   0.17115   0.17410   0.19134
 Alpha virt. eigenvalues --    0.19589   0.22863   0.29474   0.31058   0.33415
 Alpha virt. eigenvalues --    0.33517   0.34879   0.36238   0.38956   0.39871
 Alpha virt. eigenvalues --    0.40466   0.45687   0.48217   0.51435   0.53008
 Alpha virt. eigenvalues --    0.55679   0.64469   0.72260   0.76787   0.80525
 Alpha virt. eigenvalues --    0.81164   0.88947   0.91467   0.93052   0.94325
 Alpha virt. eigenvalues --    0.96371   1.02145   1.05304   1.05465   1.13322
 Alpha virt. eigenvalues --    1.14279   1.17024   1.20097   1.22225   1.24519
 Alpha virt. eigenvalues --    1.29184   1.38747   1.42029   1.44891   1.51371
 Alpha virt. eigenvalues --    1.53358   1.61668   1.63083   1.63513   1.71741
 Alpha virt. eigenvalues --    1.74357   1.77150   1.80051   1.81157   1.86778
 Alpha virt. eigenvalues --    1.94045   1.95840   1.96592   2.02681   2.08760
 Alpha virt. eigenvalues --    2.18137   2.22335   2.26947   2.35396   2.44996
 Alpha virt. eigenvalues --    2.46217   2.53959   2.63020   2.73634   2.93402
 Alpha virt. eigenvalues --    2.97294   3.06148   3.10361   3.22543   3.26078
 Alpha virt. eigenvalues --    3.26424   3.29456   3.42241   3.42801   3.43069
 Alpha virt. eigenvalues --    3.49984   3.54197   3.61903   3.64916   3.68257
 Alpha virt. eigenvalues --    3.71584   3.74273   3.80405   3.82458   3.85055
 Alpha virt. eigenvalues --    3.89196   3.93018   3.97830   3.99041   4.05571
 Alpha virt. eigenvalues --    4.08624   4.13085   4.16767   4.17217   4.19196
 Alpha virt. eigenvalues --    4.24611   4.27483   4.30015   4.33815   4.38379
 Alpha virt. eigenvalues --    4.43304   4.44205   4.48905   4.49252   4.57236
 Alpha virt. eigenvalues --    4.58307   4.59825   4.62466   4.66251   4.69038
 Alpha virt. eigenvalues --    4.70559   4.74409   4.78790   4.82055   4.88450
 Alpha virt. eigenvalues --    4.90259   4.96211   4.98207   5.05577   5.12203
 Alpha virt. eigenvalues --    5.25246   5.31397   5.38129   5.46271   5.52537
 Alpha virt. eigenvalues --    5.57276   5.77657   5.78625   5.81108   5.82129
 Alpha virt. eigenvalues --    5.87608   5.87955   6.03696   6.05574   6.07767
 Alpha virt. eigenvalues --    6.07917   6.14901   6.15261   6.21312   6.21713
 Alpha virt. eigenvalues --    6.42568   6.45505   6.46600   6.53854   6.60149
 Alpha virt. eigenvalues --    6.68121   6.97834   7.03180   7.26826   7.52950
          Condensed to atoms (all electrons):
               1          2          3          4          5          6
     1  C    4.629265   0.324142  -0.069777   0.441895   0.401323   0.401323
     2  C    0.324142   4.412271   0.601330  -0.052880  -0.015998  -0.015998
     3  O   -0.069777   0.601330   7.987280   0.004674   0.000499   0.000499
     4  H    0.441895  -0.052880   0.004674   0.578094  -0.019145  -0.019145
     5  H    0.401323  -0.015998   0.000499  -0.019145   0.605008  -0.020101
     6  H    0.401323  -0.015998   0.000499  -0.019145  -0.020101   0.605008
     7  O   -0.086576   0.300578  -0.112892   0.004648   0.001966   0.001966
     8  H    0.011090  -0.010975   0.011947  -0.001097  -0.000444  -0.000444
               7          8
     1  C   -0.086576   0.011090
     2  C    0.300578  -0.010975
     3  O   -0.112892   0.011947
     4  H    0.004648  -0.001097
     5  H    0.001966  -0.000444
     6  H    0.001966  -0.000444
     7  O    7.925227   0.314583
     8  H    0.314583   0.463874
 Mulliken charges:
               1
     1  C   -0.052684
     2  C    0.457531
     3  O   -0.423561
     4  H    0.062957
     5  H    0.046894
     6  H    0.046894
     7  O   -0.349499
     8  H    0.211467
 Sum of Mulliken charges =  -0.00000
 Mulliken charges with hydrogens summed into heavy atoms:
               1
     1  C    0.104061
     2  C    0.457531
     3  O   -0.423561
     7  O   -0.138031
 APT charges:
               1
     1  C   -0.069404
     2  C    1.164492
     3  O   -0.756200
     4  H    0.029140
     5  H    0.031145
     6  H    0.031145
     7  O   -0.710882
     8  H    0.280565
 Sum of APT charges =   0.00000
 APT charges with hydrogens summed into heavy atoms:
               1
     1  C    0.022025
     2  C    1.164492
     3  O   -0.756200
     7  O   -0.430317
 Electronic spatial extent (au):  <R**2>=            253.9316
 Charge=             -0.0000 electrons
 Dipole moment (field-independent basis, Debye):
    X=             -0.2831    Y=             -1.7529    Z=              0.0000  Tot=              1.7756
 Quadrupole moment (field-independent basis, Debye-Ang):
   XX=            -20.3527   YY=            -27.7658   ZZ=            -23.3099
   XY=             -3.7780   XZ=              0.0000   YZ=             -0.0000
 Traceless Quadrupole moment (field-independent basis, Debye-Ang):
   XX=              3.4568   YY=             -3.9564   ZZ=              0.4996
   XY=             -3.7780   XZ=              0.0000   YZ=             -0.0000
 Octapole moment (field-independent basis, Debye-Ang**2):
  XXX=            -10.9398  YYY=             -4.6679  ZZZ=              0.0000  XYY=             -1.2623
  XXY=              4.8154  XXZ=              0.0000  XZZ=             -1.0712  YZZ=             -0.0209
  YYZ=              0.0000  XYZ=             -0.0000
 Hexadecapole moment (field-independent basis, Debye-Ang**3):
 XXXX=           -123.2717 YYYY=           -146.4919 ZZZZ=            -28.2735 XXXY=              5.0484
 XXXZ=              0.0000 YYYX=              9.6553 YYYZ=             -0.0000 ZZZX=             -0.0000
 ZZZY=              0.0000 XXYY=            -49.4731 XXZZ=            -30.5669 YYZZ=            -25.9903
 XXYZ=             -0.0000 YYXZ=              0.0000 ZZXY=              2.9298
 N-N= 1.212159352887D+02 E-N=-7.807130176366D+02  KE= 2.284458749223D+02
 Symmetry A'   KE= 2.180308511834D+02
 Symmetry A"   KE= 1.041502373895D+01
  Exact polarizability:  35.219  -0.753  36.672  -0.000   0.000  24.326
 Approx polarizability:  44.880   3.189  53.905   0.000  -0.000  33.764
 Calling FoFJK, ICntrl=    100127 FMM=F ISym2X=1 I1Cent= 0 IOpClX= 0 NMat=1 NMatS=1 NMatT=0.
 Full mass-weighted force constant matrix:
 Low frequencies ---   -5.6304   -4.5288   -0.9732   -0.0016   -0.0002    0.0013
 Low frequencies ---   67.9084  425.0418  545.8506
 Diagonal vibrational polarizability:
       10.3951570       3.9476397       9.8361300
 Harmonic frequencies (cm**-1), IR intensities (KM/Mole), Raman scattering
 activities (A**4/AMU), depolarization ratios for plane and unpolarized
 incident light, reduced masses (AMU), force constants (mDyne/A),
 and normal coordinates:
                      1                      2                      3
                     A"                     A'                     A"
 Frequencies --     67.9058               425.0418               545.8506
 Red. masses --      1.0850                 2.8988                 1.4993
 Frc consts  --      0.0029                 0.3086                 0.2632
 IR Inten    --      0.2150                 4.5263                27.9874
  Atom  AN      X      Y      Z        X      Y      Z        X      Y      Z
     1   6    -0.00  -0.00   0.00    -0.16  -0.11  -0.00    -0.00  -0.00   0.01
     2   6    -0.00   0.00   0.01     0.08   0.13   0.00     0.00   0.00  -0.20
     3   8     0.00   0.00  -0.05    -0.07   0.16   0.00    -0.00   0.00   0.05
     4   1    -0.00  -0.00   0.53     0.05  -0.56  -0.00     0.00  -0.00   0.25
     5   1    -0.32  -0.39  -0.32    -0.47  -0.07  -0.01    -0.28   0.21   0.13
     6   1     0.32   0.39  -0.32    -0.47  -0.07   0.01     0.28  -0.21   0.13
     7   8     0.00  -0.00   0.05     0.19  -0.11   0.00     0.00  -0.00   0.01
     8   1    -0.00  -0.00  -0.01    -0.02  -0.30  -0.00     0.00  -0.00   0.78
                      4                      5                      6
                     A'                     A"                     A'
 Frequencies --    585.3699               665.2140               858.7163
 Red. masses --      4.2608                 1.5448                 3.9310
 Frc consts  --      0.8602                 0.4028                 1.7078
 IR Inten    --     38.1030                94.5005                 3.9779
  Atom  AN      X      Y      Z        X      Y      Z        X      Y      Z
     1   6    -0.17   0.21  -0.00    -0.00   0.00   0.04    -0.24   0.22  -0.00
     2   6    -0.11   0.07  -0.00     0.00   0.00   0.16     0.03  -0.16  -0.00
     3   8     0.32   0.00   0.00     0.00   0.00  -0.07    -0.06  -0.19   0.00
     4   1    -0.23   0.33   0.00    -0.00  -0.00  -0.13    -0.29   0.31   0.00
     5   1    -0.11   0.19  -0.00     0.20  -0.20  -0.09    -0.26   0.22  -0.00
     6   1    -0.11   0.19   0.00    -0.20   0.20  -0.09    -0.26   0.22   0.00
     7   8    -0.05  -0.22   0.00     0.00  -0.00  -0.11     0.23   0.08   0.00
     8   1    -0.43  -0.56  -0.00     0.00   0.00   0.88     0.50   0.32  -0.00
                      7                      8                      9
                     A'                     A"                     A'
 Frequencies --    998.7857              1069.6536              1201.3755
 Red. masses --      1.6442                 1.8188                 1.9628
 Frc consts  --      0.9664                 1.2261                 1.6691
 IR Inten    --     79.0371                 7.6900               216.1302
  Atom  AN      X      Y      Z        X      Y      Z        X      Y      Z
     1   6    -0.09  -0.14   0.00    -0.00   0.00  -0.17    -0.10  -0.04  -0.00
     2   6    -0.09   0.02   0.00     0.00  -0.00   0.20     0.17  -0.00  -0.00
     3   8    -0.00   0.04  -0.00    -0.00  -0.00  -0.04     0.01   0.09   0.00
     4   1    -0.39   0.52  -0.00     0.00   0.00   0.37    -0.27   0.34  -0.00
     5   1     0.46  -0.12   0.07    -0.38   0.48   0.15     0.17   0.04   0.09
     6   1     0.46  -0.12  -0.07     0.38  -0.48   0.15     0.17   0.04  -0.09
     7   8     0.11   0.05  -0.00     0.00   0.00  -0.03    -0.10  -0.12   0.00
     8   1    -0.16  -0.19   0.00    -0.00  -0.00   0.01     0.62   0.53  -0.00
                     10                     11                     12
                     A'                     A'                     A'
 Frequencies --   1336.7942              1408.5340              1471.4081
 Red. masses --      1.8508                 1.4654                 1.0514
 Frc consts  --      1.9487                 1.7129                 1.3412
 IR Inten    --     36.9057                47.5585                16.5642
  Atom  AN      X      Y      Z        X      Y      Z        X      Y      Z
     1   6    -0.01  -0.04   0.00    -0.12   0.11  -0.00    -0.04  -0.02  -0.00
     2   6     0.24  -0.01  -0.00     0.11  -0.00  -0.00    -0.03   0.01  -0.00
     3   8    -0.05  -0.05  -0.00    -0.02  -0.02   0.00     0.00  -0.02   0.00
     4   1    -0.20   0.34   0.00     0.15  -0.44   0.00     0.17  -0.43   0.00
     5   1    -0.14   0.24   0.17     0.44  -0.32  -0.23     0.26   0.44   0.36
     6   1    -0.14   0.24  -0.17     0.44  -0.32   0.23     0.26   0.44  -0.36
     7   8    -0.06   0.06  -0.00    -0.03   0.01   0.00     0.00  -0.00   0.00
     8   1    -0.60  -0.45   0.00    -0.18  -0.13  -0.00     0.03   0.02  -0.00
                     13                     14                     15
                     A"                     A'                     A'
 Frequencies --   1477.7463              1814.4610              3056.6318
 Red. masses --      1.0452                 9.1833                 1.0368
 Frc consts  --      1.3447                17.8133                 5.7074
 IR Inten    --      9.4019               346.1013                 1.5463
  Atom  AN      X      Y      Z        X      Y      Z        X      Y      Z
     1   6     0.00  -0.00  -0.05     0.02  -0.06  -0.00    -0.02   0.05   0.00
     2   6    -0.00  -0.00  -0.02     0.03   0.69   0.00     0.00   0.00  -0.00
     3   8     0.00   0.00   0.00    -0.05  -0.43   0.00    -0.00  -0.00   0.00
     4   1    -0.00   0.00   0.72    -0.09   0.22  -0.00     0.37   0.18   0.00
     5   1     0.48   0.04   0.05     0.03  -0.14  -0.07    -0.07  -0.37   0.52
     6   1    -0.48  -0.04   0.05     0.03  -0.14   0.07    -0.07  -0.37  -0.52
     7   8    -0.00  -0.00   0.00    -0.00  -0.06   0.00    -0.00   0.00   0.00
     8   1     0.00   0.00   0.01     0.37   0.29  -0.00     0.00  -0.00  -0.00
                     16                     17                     18
                     A"                     A'                     A'
 Frequencies --   3114.8103              3165.5197              3750.9824
 Red. masses --      1.0996                 1.1028                 1.0642
 Frc consts  --      6.2854                 6.5106                 8.8219
 IR Inten    --      3.4400                 4.3013                61.1989
  Atom  AN      X      Y      Z        X      Y      Z        X      Y      Z
     1   6    -0.00  -0.00  -0.09    -0.07  -0.06   0.00    -0.00   0.00   0.00
     2   6    -0.00  -0.00  -0.00    -0.00  -0.00   0.00     0.00  -0.00  -0.00
     3   8    -0.00   0.00  -0.00     0.00   0.00  -0.00    -0.00  -0.00   0.00
     4   1     0.00   0.00  -0.02     0.82   0.40  -0.00    -0.00  -0.00   0.00
     5   1    -0.07  -0.42   0.56     0.02   0.16  -0.23    -0.00  -0.00   0.00
     6   1     0.07   0.42   0.56     0.02   0.16   0.23    -0.00  -0.00  -0.00
     7   8     0.00  -0.00   0.00     0.00   0.00  -0.00     0.04  -0.05   0.00
     8   1    -0.00   0.00   0.00    -0.00   0.00   0.00    -0.67   0.74  -0.00

 -------------------
 - Thermochemistry -
 -------------------
 Temperature   298.150 Kelvin.  Pressure   1.00000 Atm.
 Atom     1 has atomic number  6 and mass  12.00000
 Atom     2 has atomic number  6 and mass  12.00000
 Atom     3 has atomic number  8 and mass  15.99491
 Atom     4 has atomic number  1 and mass   1.00783
 Atom     5 has atomic number  1 and mass   1.00783
 Atom     6 has atomic number  1 and mass   1.00783
 Atom     7 has atomic number  8 and mass  15.99491
 Atom     8 has atomic number  1 and mass   1.00783
 Molecular mass:    60.02113 amu.
 Principal axes and moments of inertia in atomic units:
                           1         2         3
     Eigenvalues --   158.72133 190.51335 338.13978
           X            0.78730   0.61657   0.00000
           Y           -0.61657   0.78730   0.00000
           Z            0.00000  -0.00000   1.00000
 This molecule is an asymmetric top.
 Rotational symmetry number  1.
 Rotational temperatures (Kelvin)      0.54570     0.45463     0.25615
 Rotational constants (GHZ):          11.37050     9.47304     5.33726
 Zero-point vibrational energy     161584.4 (Joules/Mol)
                                   38.61960 (Kcal/Mol)
 Warning -- explicit consideration of   4 degrees of freedom as
           vibrations may cause significant error
 Vibrational temperatures:     97.70   611.54   785.36   842.22   957.09
          (Kelvin)           1235.50  1437.03  1538.99  1728.51  1923.35
                             2026.57  2117.03  2126.15  2610.60  4397.81
                             4481.52  4554.48  5396.83
 
 Zero-point correction=                           0.061544 (Hartree/Particle)
 Thermal correction to Energy=                    0.066122
 Thermal correction to Enthalpy=                  0.067067
 Thermal correction to Gibbs Free Energy=         0.034309
 Sum of electronic and zero-point Energies=           -229.129311
 Sum of electronic and thermal Energies=              -229.124733
 Sum of electronic and thermal Enthalpies=            -229.123788
 Sum of electronic and thermal Free Energies=         -229.156546
 
                     E (Thermal)             CV                S
                      KCal/Mol        Cal/Mol-Kelvin    Cal/Mol-Kelvin
 Total                   41.492             14.326             68.943
 Electronic               0.000              0.000              0.000
 Translational            0.889              2.981             38.196
 Rotational               0.889              2.981             23.840
 Vibrational             39.715              8.365              6.907
 Vibration     1          0.598              1.970              4.213
 Vibration     2          0.787              1.416              0.875
 Vibration     3          0.901              1.149              0.553
 Vibration     4          0.942              1.063              0.476
                       Q            Log10(Q)             Ln(Q)
 Total Bot       0.165490D-15        -15.781229        -36.337623
 Total V=0       0.336615D+13         12.527134         28.844792
 Vib (Bot)       0.250142D-27        -27.601813        -63.555524
 Vib (Bot)    1  0.303803D+01          0.482593          1.111211
 Vib (Bot)    2  0.411513D+00         -0.385616         -0.887914
 Vib (Bot)    3  0.288644D+00         -0.539637         -1.242560
 Vib (Bot)    4  0.258916D+00         -0.586841         -1.351252
 Vib (V=0)       0.508803D+01          0.706550          1.626891
 Vib (V=0)    1  0.357891D+01          0.553750          1.275057
 Vib (V=0)    2  0.114757D+01          0.059778          0.137644
 Vib (V=0)    3  0.107733D+01          0.032351          0.074490
 Vib (V=0)    4  0.106306D+01          0.026558          0.061152
 Electronic      0.100000D+01          0.000000          0.000000
 Translational   0.182772D+08          7.261910         16.721166
 Rotational      0.361971D+05          4.558674         10.496735
 ***** Axes restored to original set *****
[...]
 There are   109 symmetry adapted cartesian basis functions of A"  symmetry.
 There are   184 symmetry adapted basis functions of A'  symmetry.
 There are   100 symmetry adapted basis functions of A"  symmetry.
   284 basis functions,   396 primitive gaussians,   324 cartesian basis functions
    16 alpha electrons       16 beta electrons
       nuclear repulsion energy       121.2159352887 Hartrees.
 NAtoms=    8 NActive=    8 NUniq=    7 SFac= 1.31D+00 NAtFMM=   60 NAOKFM=F Big=F
 Integral buffers will be    131072 words long.
 Raffenetti 2 integral format.
 Two-electron integral symmetry is turned on.
 One-electron integrals computed using PRISM.
 NBasis=   284 RedAO= T EigKep=  4.37D-05  NBF=   184   100
 NBsUse=   284 1.00D-06 EigRej= -1.00D+00 NBFU=   184   100
 Initial guess from the checkpoint file:  "acoh.chk"
 B after Tr=     0.000000    0.000000    0.000000
         Rot=    1.000000    0.000000    0.000000   -0.000000 Ang=   0.00 deg.
 Initial guess orbital symmetries:
       Occupied  (A') (A') (A') (A') (A') (A') (A') (A') (A') (A')
                 (A") (A') (A') (A") (A") (A')
       Virtual   (A") (A') (A') (A') (A") (A') (A') (A') (A") (A")
                 (A') (A') (A') (A') (A") (A') (A') (A') (A') (A")
                 (A') (A') (A") (A') (A') (A') (A") (A') (A') (A")
                 (A') (A') (A") (A") (A') (A") (A') (A") (A') (A')
                 (A") (A') (A') (A") (A') (A') (A') (A") (A') (A")
                 (A') (A') (A") (A') (A') (A") (A') (A") (A') (A')
                 (A') (A') (A") (A') (A") (A') (A') (A') (A") (A')
                 (A") (A') (A") (A') (A') (A') (A") (A') (A') (A")
                 (A") (A') (A') (A") (A') (A") (A') (A') (A") (A')
                 (A") (A') (A") (A") (A") (A') (A') (A') (A") (A')
                 (A") (A') (A') (A") (A") (A') (A') (A") (A') (A')
                 (A') (A") (A') (A") (A") (A') (A") (A') (A') (A')
                 (A") (A") (A') (A') (A") (A') (A') (A') (A') (A")
                 (A') (A') (A") (A") (A') (A') (A") (A') (A') (A")
                 (A") (A') (A") (A') (A') (A") (A') (A") (A") (A')
                 (A') (A") (A') (A") (A') (A') (A') (A') (A') (A')
                 (A') (A') (A') (A') (A') (A') (A') (A') (A') (A')
                 (A') (A') (A') (A') (A') (A') (A') (A') (A') (A')
                 (A') (A') (A') (A') (A') (A') (A') (A') (A') (A')
                 (A') (A') (A') (A') (A') (A') (A') (A') (A') (A')
                 (A') (A') (A') (A') (A') (A') (A') (A') (A') (A')
                 (A') (A') (A') (A') (A') (A') (A') (A') (A') (A')
                 (A') (A') (A') (A') (A') (A') (A') (A') (A') (A')
                 (A") (A") (A") (A") (A") (A") (A") (A") (A") (A")
                 (A") (A") (A") (A") (A") (A") (A") (A") (A") (A")
                 (A") (A") (A") (A") (A") (A") (A") (A") (A") (A")
                 (A") (A") (A") (A") (A") (A") (A") (A")
 Requested convergence on RMS density matrix=1.00D-08 within 128 cycles.
 Requested convergence on MAX density matrix=1.00D-06.
 Requested convergence on             energy=1.00D-06.
 No special actions if energy rises.
 SCF Done:  E(ROHF) =  -227.919460142     A.U. after   11 cycles
            NFock= 11  Conv=0.85D-08     -V/T= 2.0012
 <Sx>= 0.0000 <Sy>= 0.0000 <Sz>= 0.0000 <S**2>=-0.0000 S=-0.0000
 <L.S>=  0.00000000000    
 Annihilation of the first spin contaminant:
 S**2 before annihilation    -0.0000,   after     0.0000

 **********************************************************************

            Population analysis using the SCF Density.

 **********************************************************************

 Orbital symmetries:
       Occupied  (A') (A') (A') (A') (A') (A') (A') (A') (A') (A')
                 (A") (A') (A') (A") (A") (A')
       Virtual   (A') (A') (A") (A') (A') (A") (A') (A') (A") (A')
                 (A") (A') (A') (A') (A') (A") (A") (A') (A') (A')
                 (A') (A") (A') (A') (A") (A') (A') (A") (A') (A")
                 (A') (A') (A') (A') (A") (A') (A") (A') (A') (A')
                 (A") (A') (A") (A') (A') (A') (A") (A') (A") (A')
                 (A') (A') (A') (A") (A") (A') (A') (A") (A') (A")
                 (A') (A') (A') (A') (A') (A") (A") (A') (A') (A")
                 (A") (A') (A') (A") (A") (A') (A') (A') (A") (A')
                 (A') (A') (A") (A") (A") (A') (A") (A') (A") (A')
                 (A') (A") (A') (A') (A') (A') (A') (A") (A') (A")
                 (A') (A") (A') (A') (A") (A") (A') (A") (A') (A')
                 (A") (A') (A") (A') (A') (A") (A') (A") (A') (A")
                 (A') (A') (A") (A') (A") (A') (A') (A") (A') (A")
                 (A') (A") (A') (A") (A') (A") (A') (A') (A') (A')
                 (A") (A') (A") (A') (A') (A') (A") (A') (A") (A')
                 (A") (A') (A') (A") (A') (A') (A") (A") (A') (A')
                 (A") (A') (A") (A') (A') (A') (A") (A') (A") (A')
                 (A') (A') (A") (A') (A') (A') (A") (A") (A') (A")
                 (A') (A') (A") (A') (A") (A') (A") (A') (A') (A")
                 (A') (A') (A') (A") (A') (A') (A") (A") (A') (A")
                 (A') (A') (A') (A') (A') (A") (A') (A") (A') (A")
                 (A") (A') (A') (A') (A") (A") (A") (A') (A') (A')
                 (A") (A') (A") (A') (A') (A") (A') (A") (A') (A')
                 (A') (A') (A') (A") (A') (A') (A") (A") (A') (A')
                 (A') (A') (A") (A") (A') (A") (A') (A") (A') (A')
                 (A') (A') (A") (A') (A") (A') (A') (A') (A') (A')
                 (A") (A") (A') (A') (A') (A') (A') (A')
 The electronic state is 1-A'.
 Alpha  occ. eigenvalues --  -20.61153 -20.54970 -11.38911 -11.24618  -1.46644
 Alpha  occ. eigenvalues --   -1.36393  -1.02902  -0.82538  -0.70720  -0.68281
 Alpha  occ. eigenvalues --   -0.65203  -0.58641  -0.57594  -0.56305  -0.48659
 Alpha  occ. eigenvalues --   -0.45720
 Alpha virt. eigenvalues --    0.04567   0.05234   0.07079   0.07147   0.09279
 Alpha virt. eigenvalues --    0.09355   0.09624   0.15335   0.15909   0.17267
 Alpha virt. eigenvalues --    0.17418   0.18240   0.20865   0.22006   0.22487
 Alpha virt. eigenvalues --    0.23214   0.24591   0.24796   0.28097   0.28492
 Alpha virt. eigenvalues --    0.30891   0.35610   0.35962   0.37330   0.42443
 Alpha virt. eigenvalues --    0.44700   0.46246   0.46624   0.48323   0.50456
 Alpha virt. eigenvalues --    0.50621   0.52133   0.57189   0.57974   0.59091
 Alpha virt. eigenvalues --    0.59926   0.62016   0.62743   0.64471   0.69854
 Alpha virt. eigenvalues --    0.70206   0.71307   0.72869   0.74620   0.75834
 Alpha virt. eigenvalues --    0.76683   0.78149   0.79708   0.81701   0.85014
 Alpha virt. eigenvalues --    0.86363   0.93374   0.96347   0.97257   0.97936
 Alpha virt. eigenvalues --    1.00566   1.03481   1.05581   1.06173   1.12155
 Alpha virt. eigenvalues --    1.12339   1.13571   1.18922   1.23500   1.28775
 Alpha virt. eigenvalues --    1.28975   1.34819   1.36572   1.41676   1.44980
 Alpha virt. eigenvalues --    1.47667   1.49939   1.51141   1.51368   1.55549
 Alpha virt. eigenvalues --    1.58988   1.62958   1.63496   1.67601   1.68810
 Alpha virt. eigenvalues --    1.71616   1.74288   1.75022   1.76603   1.79225
 Alpha virt. eigenvalues --    1.79826   1.81888   1.85038   1.85507   1.86088
 Alpha virt. eigenvalues --    1.87565   1.88918   1.89767   1.92148   1.93519
 Alpha virt. eigenvalues --    1.96888   1.98096   1.98692   2.01990   2.04163
 Alpha virt. eigenvalues --    2.04776   2.06079   2.07984   2.10109   2.13758
 Alpha virt. eigenvalues --    2.17473   2.19934   2.23242   2.25190   2.27955
 Alpha virt. eigenvalues --    2.28735   2.30756   2.34160   2.36852   2.41911
 Alpha virt. eigenvalues --    2.45606   2.45721   2.48975   2.50501   2.51071
 Alpha virt. eigenvalues --    2.54936   2.58636   2.59764   2.61625   2.65500
 Alpha virt. eigenvalues --    2.66265   2.72155   2.74299   2.80513   2.82407
 Alpha virt. eigenvalues --    2.85546   2.87658   2.90234   2.93908   2.98218
 Alpha virt. eigenvalues --    3.03170   3.04013   3.09674   3.14591   3.17783
 Alpha virt. eigenvalues --    3.21136   3.22811   3.30043   3.33693   3.35950
 Alpha virt. eigenvalues --    3.38297   3.40365   3.47085   3.49003   3.55166
 Alpha virt. eigenvalues --    3.57317   3.61601   3.65552   3.70072   3.70437
 Alpha virt. eigenvalues --    3.78870   3.83157   3.93479   3.94765   3.99027
 Alpha virt. eigenvalues --    4.04481   4.06684   4.08584   4.09622   4.12716
 Alpha virt. eigenvalues --    4.18257   4.20582   4.23109   4.23506   4.27247
 Alpha virt. eigenvalues --    4.31967   4.49315   4.64101   4.67767   4.70898
 Alpha virt. eigenvalues --    4.86122   4.87570   4.94161   5.00752   5.06068
 Alpha virt. eigenvalues --    5.07292   5.16135   5.20450   5.32350   5.39975
 Alpha virt. eigenvalues --    5.45205   5.48365   5.54780   5.69031   5.75632
 Alpha virt. eigenvalues --    5.76779   5.90867   5.97458   5.97718   6.06469
 Alpha virt. eigenvalues --    6.13762   6.14168   6.21781   6.22131   6.33397
 Alpha virt. eigenvalues --    6.33844   6.41288   6.52967   6.69350   6.89035
 Alpha virt. eigenvalues --    6.95193   6.99176   7.09008   7.10667   7.13638
 Alpha virt. eigenvalues --    7.16803   7.18905   7.19667   7.32168   7.33882
 Alpha virt. eigenvalues --    7.47426   7.52265   7.58981   7.74159   7.85481
 Alpha virt. eigenvalues --    8.07275   8.20551   8.35243   8.47444   8.50252
 Alpha virt. eigenvalues --    8.51499   8.70159   8.74057   8.88651   9.07234
 Alpha virt. eigenvalues --    9.20908   9.33118   9.51531   9.57409   9.63159
 Alpha virt. eigenvalues --    9.78454  10.01724  10.31347  10.50631  10.60398
 Alpha virt. eigenvalues --   10.89678  11.08104  11.24922  11.32296  11.33210
 Alpha virt. eigenvalues --   11.49755  11.54651  11.66221  11.94039  12.05042
 Alpha virt. eigenvalues --   12.47841  12.71256  20.77862  21.58274  21.58664
 Alpha virt. eigenvalues --   21.63378  22.04924  22.33782  23.24937  24.50289
 Alpha virt. eigenvalues --   37.60672  37.84984  37.98812  38.06938  38.34045
 Alpha virt. eigenvalues --   38.40451  43.43236  43.60172
          Condensed to atoms (all electrons):
               1          2          3          4          5          6
     1  C    4.857308   0.324781  -0.074211   0.442812   0.395640   0.395640
     2  C    0.324781   4.258090   0.507056  -0.048407  -0.031622  -0.031622
     3  O   -0.074211   0.507056   8.267008  -0.008521   0.004007   0.004007
     4  H    0.442812  -0.048407  -0.008521   0.521459  -0.027405  -0.027405
     5  H    0.395640  -0.031622   0.004007  -0.027405   0.587224  -0.034128
     6  H    0.395640  -0.031622   0.004007  -0.027405  -0.034128   0.587224
     7  O   -0.087228   0.261576  -0.100641   0.008533  -0.002611  -0.002611
     8  H    0.005544  -0.011989   0.014899  -0.000206  -0.000557  -0.000557
               7          8
     1  C   -0.087228   0.005544
     2  C    0.261576  -0.011989
     3  O   -0.100641   0.014899
     4  H    0.008533  -0.000206
     5  H   -0.002611  -0.000557
     6  H   -0.002611  -0.000557
     7  O    8.367374   0.248757
     8  H    0.248757   0.307252
          Atomic-Atomic Spin Densities.
               1          2          3          4          5          6
     1  C    0.000000   0.000000   0.000000   0.000000   0.000000   0.000000
     2  C    0.000000   0.000000   0.000000   0.000000   0.000000   0.000000
     3  O    0.000000   0.000000   0.000000   0.000000   0.000000   0.000000
     4  H    0.000000   0.000000   0.000000   0.000000   0.000000   0.000000
     5  H    0.000000   0.000000   0.000000   0.000000   0.000000   0.000000
     6  H    0.000000   0.000000   0.000000   0.000000   0.000000   0.000000
     7  O    0.000000   0.000000   0.000000   0.000000   0.000000   0.000000
     8  H    0.000000   0.000000   0.000000   0.000000   0.000000   0.000000
               7          8
     1  C    0.000000   0.000000
     2  C    0.000000   0.000000
     3  O    0.000000   0.000000
     4  H    0.000000   0.000000
     5  H    0.000000   0.000000
     6  H    0.000000   0.000000
     7  O    0.000000   0.000000
     8  H    0.000000   0.000000
 Mulliken charges and spin densities:
               1          2
     1  C   -0.260286   0.000000
     2  C    0.772137   0.000000
     3  O   -0.613603   0.000000
     4  H    0.139140   0.000000
     5  H    0.109452   0.000000
     6  H    0.109452   0.000000
     7  O   -0.693149   0.000000
     8  H    0.436857   0.000000
 Sum of Mulliken charges =  -0.00000   0.00000
 Mulliken charges and spin densities with hydrogens summed into heavy atoms:
               1          2
     1  C    0.097758   0.000000
     2  C    0.772137   0.000000
     3  O   -0.613603   0.000000
     7  O   -0.256292   0.000000
 Electronic spatial extent (au):  <R**2>=            253.6403
 Charge=             -0.0000 electrons
 Dipole moment (field-independent basis, Debye):
    X=             -0.2137    Y=             -1.9753    Z=             -0.0000  Tot=              1.9868
 Quadrupole moment (field-independent basis, Debye-Ang):
   XX=            -20.0641   YY=            -27.8283   ZZ=            -23.1440
   XY=             -4.0425   XZ=             -0.0000   YZ=              0.0000
 Traceless Quadrupole moment (field-independent basis, Debye-Ang):
   XX=              3.6147   YY=             -4.1495   ZZ=              0.5348
   XY=             -4.0425   XZ=             -0.0000   YZ=              0.0000
 Octapole moment (field-independent basis, Debye-Ang**2):
  XXX=            -11.1123  YYY=             -5.2885  ZZZ=             -0.0000  XYY=             -1.3156
  XXY=              4.9561  XXZ=             -0.0000  XZZ=             -1.0370  YZZ=             -0.2414
  YYZ=             -0.0000  XYZ=              0.0000
 Hexadecapole moment (field-independent basis, Debye-Ang**3):
 XXXX=           -118.6074 YYYY=           -143.6786 ZZZZ=            -27.0725 XXXY=              4.1319
 XXXZ=              0.0000 YYYX=              9.1641 YYYZ=              0.0000 ZZZX=             -0.0000
 ZZZY=             -0.0000 XXYY=            -48.0867 XXZZ=            -29.9031 YYZZ=            -25.4469
 XXYZ=              0.0000 YYXZ=             -0.0000 ZZXY=              2.7814
 N-N= 1.212159352887D+02 E-N=-7.795343709061D+02  KE= 2.276485883470D+02
 Symmetry A'   KE= 2.175564599270D+02
 Symmetry A"   KE= 1.009212841993D+01
 Symmetry A'   SP= 0.000000000000D+00
 Symmetry A"   SP= 0.000000000000D+00
                          Isotropic Fermi Contact Couplings
        Atom                 a.u.       MegaHertz       Gauss      10(-4) cm-1
     1  C(13)              0.00000       0.00000       0.00000       0.00000
     2  C(13)              0.00000       0.00000       0.00000       0.00000
     3  O(17)              0.00000      -0.00000      -0.00000      -0.00000
     4  H(1)               0.00000       0.00000       0.00000       0.00000
     5  H(1)               0.00000       0.00000       0.00000       0.00000
     6  H(1)               0.00000       0.00000       0.00000       0.00000
     7  O(17)              0.00000      -0.00000      -0.00000      -0.00000
     8  H(1)               0.00000       0.00000       0.00000       0.00000
 --------------------------------------------------------
       Center         ----  Spin Dipole Couplings  ----
                      3XX-RR        3YY-RR        3ZZ-RR
 --------------------------------------------------------
     1   Atom        0.000000      0.000000      0.000000
     2   Atom        0.000000      0.000000      0.000000
     3   Atom        0.000000      0.000000      0.000000
     4   Atom        0.000000      0.000000      0.000000
     5   Atom        0.000000      0.000000      0.000000
     6   Atom        0.000000      0.000000      0.000000
     7   Atom        0.000000      0.000000      0.000000
     8   Atom        0.000000      0.000000      0.000000
 --------------------------------------------------------
                        XY            XZ            YZ
 --------------------------------------------------------
     1   Atom        0.000000      0.000000      0.000000
     2   Atom        0.000000      0.000000      0.000000
     3   Atom        0.000000      0.000000      0.000000
     4   Atom        0.000000      0.000000      0.000000
     5   Atom        0.000000      0.000000      0.000000
     6   Atom        0.000000      0.000000      0.000000
     7   Atom        0.000000      0.000000      0.000000
     8   Atom        0.000000      0.000000      0.000000
 --------------------------------------------------------


 ---------------------------------------------------------------------------------
              Anisotropic Spin Dipole Couplings in Principal Axis System
 ---------------------------------------------------------------------------------

       Atom             a.u.   MegaHertz   Gauss  10(-4) cm-1        Axes

              Baa     0.0000     0.000     0.000     0.000  1.0000  0.0000  0.0000
     1 C(13)  Bbb     0.0000     0.000     0.000     0.000 -0.0000  1.0000  0.0000
              Bcc     0.0000     0.000     0.000     0.000  0.0000  0.0000  1.0000
 
              Baa     0.0000     0.000     0.000     0.000  1.0000  0.0000  0.0000
     2 C(13)  Bbb     0.0000     0.000     0.000     0.000 -0.0000  1.0000  0.0000
              Bcc     0.0000     0.000     0.000     0.000  0.0000  0.0000  1.0000
 
              Baa     0.0000    -0.000    -0.000    -0.000  1.0000  0.0000  0.0000
     3 O(17)  Bbb     0.0000    -0.000    -0.000    -0.000 -0.0000  1.0000  0.0000
              Bcc     0.0000    -0.000    -0.000    -0.000  0.0000  0.0000  1.0000
 
              Baa     0.0000     0.000     0.000     0.000  1.0000  0.0000  0.0000
     4 H(1)   Bbb     0.0000     0.000     0.000     0.000 -0.0000  1.0000  0.0000
              Bcc     0.0000     0.000     0.000     0.000  0.0000  0.0000  1.0000
 
              Baa     0.0000     0.000     0.000     0.000  1.0000  0.0000  0.0000
     5 H(1)   Bbb     0.0000     0.000     0.000     0.000 -0.0000  1.0000  0.0000
              Bcc     0.0000     0.000     0.000     0.000  0.0000  0.0000  1.0000
 
              Baa     0.0000     0.000     0.000     0.000  1.0000  0.0000  0.0000
     6 H(1)   Bbb     0.0000     0.000     0.000     0.000 -0.0000  1.0000  0.0000
              Bcc     0.0000     0.000     0.000     0.000  0.0000  0.0000  1.0000
 
              Baa     0.0000    -0.000    -0.000    -0.000  1.0000  0.0000  0.0000
     7 O(17)  Bbb     0.0000    -0.000    -0.000    -0.000 -0.0000  1.0000  0.0000
              Bcc     0.0000    -0.000    -0.000    -0.000  0.0000  0.0000  1.0000
 
              Baa     0.0000     0.000     0.000     0.000  1.0000  0.0000  0.0000
     8 H(1)   Bbb     0.0000     0.000     0.000     0.000 -0.0000  1.0000  0.0000
              Bcc     0.0000     0.000     0.000     0.000  0.0000  0.0000  1.0000
 

 ---------------------------------------------------------------------------------

 1\1\GINC-GAMBA\SP\ROHF\Gen\C2H4O2\IRIKURA\29-Sep-2023\0\\# rohf/gen ge
 om=check guess=check\\acetic acid, ROHF/cc-pVTZ-F12\\0,1\C,0,1.067677,
 -0.900975,0.\C,0,0.,0.155398,0.\O,0,0.180247,1.344395,0.\H,0,2.045333,
 -0.430909,0.\H,0,0.958591,-1.537527,0.87789\H,0,0.958591,-1.537527,-0.
 87789\O,0,-1.242078,-0.389812,0.\H,0,-1.873927,0.342768,0.\\Version=ES
 64L-G16RevB.01\State=1-A'\HF=-227.9194601\RMSD=8.481e-09\Dipole=-0.084
 0815,-0.7771312,0.\Quadrupole=2.6874239,-3.0850423,0.3976184,-3.005512
 3,0.,0.\PG=CS [SG(C2H2O2),X(H2)]\\@


 BE LIKE A POSTAGE STAMP.  STICK TO ONE THING UNTIL
 YOU GET THERE -- JOSH BILLINGS
 Job cpu time:       0 days  0 hours  4 minutes 20.0 seconds.
 Elapsed time:       0 days  0 hours  1 minutes  5.1 seconds.
 File lengths (MBytes):  RWF=     61 Int=      0 D2E=      0 Chk=      8 Scr=      1
 Normal termination of Gaussian 16 at Fri Sep 29 22:54:52 2023.
