 Entering Gaussian System, Link 0=g16
 AtFile(1): pcseg2.gbs
            -H     0
            S   4   1.00
                  0.754732D+02           0.427821D-02
                  0.113575D+02           0.328672D-01
                  0.260081D+01           0.159578D+00
                  0.735503D+00           0.500000D+00
            S   1   1.00
                  0.231761D+00           1.0000000
            S   1   1.00
                  0.741675D-01           1.0000000
            P   1   1.00
                  0.160000D+01           1.0000000
            P   1   1.00
                  0.450000D+00           1.0000000
            D   1   1.00
                  0.125000D+01           1.0000000
            ****
            -C     0
            S   7   1.00
                  0.731999D+04           0.695369D-03
                  0.109818D+04           0.537138D-02
                  0.250014D+03           0.274734D-01
                  0.707586D+02           0.105078D+00
                  0.228595D+02           0.291262D+00
                  0.803936D+01           0.500000D+00
                  0.289309D+01           0.362224D+00
            S   2   1.00
                  0.521640D+01          -0.957844D-01
                  0.556124D+00           0.500000D+00
            S   1   1.00
                  0.228813D+00           1.0000000
            S   1   1.00
                  0.936338D-01           1.0000000
            P   4   1.00
                  0.339855D+02           0.818395D-02
                  0.772957D+01           0.586921D-01
                  0.224954D+01           0.222514D+00
                  0.767681D+00           0.500000D+00
            P   1   1.00
                  0.263283D+00           1.0000000
            P   1   1.00
                  0.848744D-01           1.0000000
            D   1   1.00
                  0.140000D+01           1.0000000
            D   1   1.00
                  0.450000D+00           1.0000000
            F   1   1.00
                  0.950000D+00           1.0000000
            ****
            -O     0
            S   7   1.00
                  0.135887D+05           0.665492D-03
                  0.203847D+04           0.514222D-02
                  0.464041D+03           0.263472D-01
                  0.131339D+03           0.101500D+00
                  0.425340D+02           0.285877D+00
                  0.150429D+02           0.500000D+00
                  0.546616D+01           0.368211D+00
            S   2   1.00
                  0.100915D+02          -0.100084D+00
                  0.110429D+01           0.500000D+00
            S   1   1.00
                  0.448082D+00           1.0000000
            S   1   1.00
                  0.175325D+00           1.0000000
            P   4   1.00
                  0.608220D+02           0.908253D-02
                  0.140332D+02           0.645878D-01
                  0.418244D+01           0.241502D+00
                  0.142490D+01           0.500000D+00
            P   1   1.00
                  0.478741D+00           1.0000000
            P   1   1.00
                  0.146257D+00           1.0000000
            D   1   1.00
                  0.220000D+01           1.0000000
            D   1   1.00
                  0.650000D+00           1.0000000
            F   1   1.00
                  0.110000D+01           1.0000000
            ****
            -N     0
            S   7   1.00
                  0.101643D+05           0.682757D-03
                  0.152481D+04           0.527488D-02
                  0.347119D+03           0.270037D-01
                  0.982389D+02           0.103673D+00
                  0.317799D+02           0.289575D+00
                  0.112240D+02           0.500000D+00
                  0.406611D+01           0.364621D+00
            S   2   1.00
                  0.747898D+01          -0.975681D-01
                  0.805040D+00           0.500000D+00
            S   1   1.00
                  0.324626D+00           1.0000000
            S   1   1.00
                  0.128132D+00           1.0000000
            P   4   1.00
                  0.482704D+02           0.829547D-02
                  0.110815D+02           0.596223D-01
                  0.326643D+01           0.227889D+00
                  0.111680D+01           0.500000D+00
            P   1   1.00
                  0.382049D+00           1.0000000
            P   1   1.00
                  0.121222D+00           1.0000000
            D   1   1.00
                  0.180000D+01           1.0000000
            D   1   1.00
                  0.550000D+00           1.0000000
            F   1   1.00
                  0.102000D+01           1.0000000
            ****
            -F     0
            S   7   1.00
                  0.174507D+05           0.655972D-03
                  0.261768D+04           0.506944D-02
                  0.595857D+03           0.259899D-01
                  0.168651D+03           0.100353D+00
                  0.546654D+02           0.284095D+00
                  0.193717D+02           0.500000D+00
                  0.706202D+01           0.370721D+00
            S   2   1.00
                  0.131197D+02          -0.101997D+00
                  0.145046D+01           0.500000D+00
            S   1   1.00
                  0.588255D+00           1.0000000
            S   1   1.00
                  0.227960D+00           1.0000000
            P   4   1.00
                  0.779407D+02           0.931135D-02
                  0.180425D+02           0.663964D-01
                  0.542342D+01           0.246386D+00
                  0.184876D+01           0.500000D+00
            P   1   1.00
                  0.617455D+00           1.0000000
            P   1   1.00
                  0.185496D+00           1.0000000
            D   1   1.00
                  0.280000D+01           1.0000000
            D   1   1.00
                  0.800000D+00           1.0000000
            F   1   1.00
                  0.120000D+01           1.0000000
            ****
            -Cl     0
            S   8   1.00
                  0.154272D+06           0.222473D-03
                  0.231232D+05           0.172590D-02
                  0.526257D+04           0.899286D-02
                  0.148995D+04           0.367724D-01
                  0.485417D+03           0.121446D+00
                  0.174634D+03           0.304148D+00
                  0.672393D+02           0.500000D+00
                  0.265780D+02           0.360252D+00
            S   3   1.00
                  0.131826D+03          -0.531330D-01
                  0.400703D+02          -0.233346D+00
                  0.789448D+01           0.500000D+00
            S   2   1.00
                  0.427711D+01           0.500000D+00
                  0.196233D+01           0.370517D+00
            S   1   1.00
                  0.520793D+00           1.0000000
            S   1   1.00
                  0.181633D+00           1.0000000
            P   7   1.00
                  0.124440D+04           0.988206D-03
                  0.295109D+03           0.829674D-02
                  0.947224D+02           0.430906D-01
                  0.352588D+02           0.148443D+00
                  0.144211D+02           0.344744D+00
                  0.610371D+01           0.500000D+00
                  0.258886D+01           0.348278D+00
            P   2   1.00
                  0.109447D+02          -0.196768D-01
                  0.104413D+01           0.500000D+00
            P   1   1.00
                  0.376184D+00           1.0000000
            P   1   1.00
                  0.120613D+00           1.0000000
            D   1   1.00
                  0.231000D+01           1.0000000
            D   1   1.00
                  0.520000D+00           1.0000000
            F   1   1.00
                  0.720000D+00           1.0000000
            ****
            -S     0
            S   8   1.00
                  0.134700D+06           0.226231D-03
                  0.201904D+05           0.175488D-02
                  0.459528D+04           0.914190D-02
                  0.130109D+04           0.373551D-01
                  0.423902D+03           0.123121D+00
                  0.152485D+03           0.306801D+00
                  0.586925D+02           0.500000D+00
                  0.231461D+02           0.354358D+00
            S   3   1.00
                  0.116327D+03          -0.491772D-01
                  0.352841D+02          -0.215962D+00
                  0.677831D+01           0.500000D+00
            S   2   1.00
                  0.360404D+01           0.500000D+00
                  0.164871D+01           0.366278D+00
            S   1   1.00
                  0.421821D+00           1.0000000
            S   1   1.00
                  0.147554D+00           1.0000000
            P   7   1.00
                  0.104863D+04           0.105273D-02
                  0.248717D+03           0.879338D-02
                  0.797887D+02           0.453358D-01
                  0.296023D+02           0.154476D+00
                  0.120627D+02           0.352366D+00
                  0.507628D+01           0.500000D+00
                  0.213375D+01           0.346429D+00
            P   2   1.00
                  0.928958D+01          -0.185932D-01
                  0.837819D+00           0.500000D+00
            P   1   1.00
                  0.301495D+00           1.0000000
            P   1   1.00
                  0.974740D-01           1.0000000
            D   1   1.00
                  0.210000D+01           1.0000000
            D   1   1.00
                  0.480000D+00           1.0000000
            F   1   1.00
                  0.660000D+00           1.0000000
            ****
            -Br     0
            S    10   1.00
                  0.233625D+07           0.532336D-04
                  0.349961D+06           0.413715D-03
                  0.796444D+05           0.217123D-02
                  0.225555D+05           0.910109D-02
                  0.735546D+04           0.323789D-01
                  0.265352D+04           0.988755D-01
                  0.103517D+04           0.248138D+00
                  0.422205D+03           0.474328D+00
                  0.180035D+03           0.500000D+00
                  0.793308D+02           0.187769D+00
            S    4   1.00
                  0.620834D+03          -0.226511D-01
                  0.190829D+03          -0.109497D+00
                  0.312505D+02           0.500000D+00
                  0.135270D+02           0.492812D+00
            S    2   1.00
                  0.216097D+02          -0.165418D+00
                  0.372566D+01           0.500000D+00
            S    1   1.00
                  0.169770D+01           1.0000000
            S    1   1.00
                  0.489332D+00           1.0000000
            S    1   1.00
                  0.175712D+00           1.0000000
            P    8   1.00
                  0.960829D+04           0.478974D-03
                  0.227618D+04           0.417853D-02
                  0.736723D+03           0.229315D-01
                  0.281579D+03           0.892653D-01
                  0.118395D+03           0.255288D+00
                  0.527481D+02           0.479074D+00
                  0.245098D+02           0.500000D+00
                  0.112009D+02           0.200944D+00
            P    4   1.00
                  0.587849D+02          -0.189674D-01
                  0.918962D+01           0.264104D+00
                  0.413895D+01           0.500000D+00
                  0.184225D+01           0.319316D+00
            P    1   1.00
                  0.713862D+00           1.0000000
            P    1   1.00
                  0.274232D+00           1.0000000
            P    1   1.00
                  0.944411D-01           1.0000000
            D    7   1.00
                  0.398470D+03           0.204066D-02
                  0.118967D+03           0.175171D-01
                  0.450197D+02           0.829708D-01
                  0.190320D+02           0.236284D+00
                  0.855686D+01           0.428468D+00
                  0.382950D+01           0.500000D+00
                  0.166291D+01           0.349360D+00
            D    1   1.00
                  0.672953D+00           1.0000000
            D    1   1.00
                  0.252000D+00           1.0000000
            F    1   1.00
                  0.530000D+00           1.0000000
            ****
            -Si     0
            S    8   1.00
                  0.996133D+05           0.235546D-03
                  0.149311D+05           0.182707D-02
                  0.339820D+04           0.951425D-02
                  0.962140D+03           0.388172D-01
                  0.313430D+03           0.127328D+00
                  0.112683D+03           0.313522D+00
                  0.433372D+02           0.500000D+00
                  0.170029D+02           0.340347D+00
            S    3   1.00
                  0.884208D+02          -0.404451D-01
                  0.266756D+02          -0.178059D+00
                  0.479640D+01           0.500000D+00
            S    2   1.00
                  0.239385D+01           0.500000D+00
                  0.108333D+01           0.338016D+00
            S    1   1.00
                  0.252420D+00           1.0000000
            S    1   1.00
                  0.891210D-01           1.0000000
            P    7   1.00
                  0.709901D+03           0.123028D-02
                  0.168426D+03           0.101366D-01
                  0.539946D+02           0.511840D-01
                  0.198646D+02           0.169967D+00
                  0.801369D+01           0.370717D+00
                  0.331870D+01           0.500000D+00
                  0.136112D+01           0.344128D+00
            P    2   1.00
                  0.622158D+01          -0.166609D-01
                  0.503049D+00           0.500000D+00
            P    1   1.00
                  0.179848D+00           1.0000000
            P    1   1.00
                  0.591912D-01           1.0000000
            D    1   1.00
                  0.168000D+01           1.0000000
            D    1   1.00
                  0.380000D+00           1.0000000
            F    1   1.00
                  0.540000D+00           1.0000000
            ****
            -P     0
            S    8   1.00
                  0.116416D+06           0.230715D-03
                  0.174500D+05           0.178960D-02
                  0.397149D+04           0.932116D-02
                  0.112447D+04           0.380591D-01
                  0.366347D+03           0.125148D+00
                  0.131757D+03           0.310022D+00
                  0.506988D+02           0.500000D+00
                  0.199436D+02           0.347528D+00
            S    3   1.00
                  0.101878D+03          -0.446755D-01
                  0.308249D+02          -0.196376D+00
                  0.573688D+01           0.500000D+00
            S    2   1.00
                  0.296868D+01           0.500000D+00
                  0.135315D+01           0.355098D+00
            S    1   1.00
                  0.332196D+00           1.0000000
            S    1   1.00
                  0.116229D+00           1.0000000
            P    7   1.00
                  0.873928D+03           0.112375D-02
                  0.207298D+03           0.933330D-02
                  0.664628D+02           0.477213D-01
                  0.245665D+02           0.160733D+00
                  0.996820D+01           0.359760D+00
                  0.416536D+01           0.500000D+00
                  0.173022D+01           0.346593D+00
            P    2   1.00
                  0.772530D+01          -0.175718D-01
                  0.657252D+00           0.500000D+00
            P    1   1.00
                  0.239903D+00           1.0000000
            P    1   1.00
                  0.800988D-01           1.0000000
            D    1   1.00
                  0.189000D+01           1.0000000
            D    1   1.00
                  0.430000D+00           1.0000000
            F    1   1.00
                  0.600000D+00           1.0000000
            ****
            
 Initial command:
 /usr/local/apps/g16_b01_avx/g16/l1.exe "/wrk/irikura/Gau-21178.inp" -scrdir="/wrk/irikura/"
 Entering Link 1 = /usr/local/apps/g16_b01_avx/g16/l1.exe PID=     21180.
  
 Copyright (c) 1988-2017, Gaussian, Inc.  All Rights Reserved.
  
 This is part of the Gaussian(R) 16 program.  It is based on
 the Gaussian(R) 09 system (copyright 2009, Gaussian, Inc.),
 the Gaussian(R) 03 system (copyright 2003, Gaussian, Inc.),
 the Gaussian(R) 98 system (copyright 1998, Gaussian, Inc.),
 the Gaussian(R) 94 system (copyright 1995, Gaussian, Inc.),
 the Gaussian 92(TM) system (copyright 1992, Gaussian, Inc.),
 the Gaussian 90(TM) system (copyright 1990, Gaussian, Inc.),
 the Gaussian 88(TM) system (copyright 1988, Gaussian, Inc.),
 the Gaussian 86(TM) system (copyright 1986, Carnegie Mellon
 University), and the Gaussian 82(TM) system (copyright 1983,
 Carnegie Mellon University). Gaussian is a federally registered
 trademark of Gaussian, Inc.
  
 This software contains proprietary and confidential information,
 including trade secrets, belonging to Gaussian, Inc.
  
 This software is provided under written license and may be
 used, copied, transmitted, or stored only in accord with that
 written license.
  
 The following legend is applicable only to US Government
 contracts under FAR:
  
                    RESTRICTED RIGHTS LEGEND
  
 Use, reproduction and disclosure by the US Government is
 subject to restrictions as set forth in subparagraphs (a)
 and (c) of the Commercial Computer Software - Restricted
 Rights clause in FAR 52.227-19.
  
 Gaussian, Inc.
 340 Quinnipiac St., Bldg. 40, Wallingford CT 06492
  
  
 ---------------------------------------------------------------
 Warning -- This program may not be used in any manner that
 competes with the business of Gaussian, Inc. or will provide
 assistance to any competitor of Gaussian, Inc.  The licensee
 of this program is prohibited from giving any competitor of
 Gaussian, Inc. access to this program.  By using this program,
 the user acknowledges that Gaussian, Inc. is engaged in the
 business of creating and licensing software in the field of
 computational chemistry and represents and warrants to the
 licensee that it is not a competitor of Gaussian, Inc. and that
 it will not use this program in any manner prohibited above.
 ---------------------------------------------------------------
  

 Cite this work as:
 Gaussian 16, Revision B.01,
 M. J. Frisch, G. W. Trucks, H. B. Schlegel, G. E. Scuseria, 
 M. A. Robb, J. R. Cheeseman, G. Scalmani, V. Barone, 
 G. A. Petersson, H. Nakatsuji, X. Li, M. Caricato, A. V. Marenich, 
 J. Bloino, B. G. Janesko, R. Gomperts, B. Mennucci, H. P. Hratchian, 
 J. V. Ortiz, A. F. Izmaylov, J. L. Sonnenberg, D. Williams-Young, 
 F. Ding, F. Lipparini, F. Egidi, J. Goings, B. Peng, A. Petrone, 
 T. Henderson, D. Ranasinghe, V. G. Zakrzewski, J. Gao, N. Rega, 
 G. Zheng, W. Liang, M. Hada, M. Ehara, K. Toyota, R. Fukuda, 
 J. Hasegawa, M. Ishida, T. Nakajima, Y. Honda, O. Kitao, H. Nakai, 
 T. Vreven, K. Throssell, J. A. Montgomery, Jr., J. E. Peralta, 
 F. Ogliaro, M. J. Bearpark, J. J. Heyd, E. N. Brothers, K. N. Kudin, 
 V. N. Staroverov, T. A. Keith, R. Kobayashi, J. Normand, 
 K. Raghavachari, A. P. Rendell, J. C. Burant, S. S. Iyengar, 
 J. Tomasi, M. Cossi, J. M. Millam, M. Klene, C. Adamo, R. Cammi, 
 J. W. Ochterski, R. L. Martin, K. Morokuma, O. Farkas, 
 J. B. Foresman, and D. J. Fox, Gaussian, Inc., Wallingford CT, 2016.
 
 ******************************************
 Gaussian 16:  ES64L-G16RevB.01 20-Dec-2017
                18-Jun-2022 
 ******************************************
 %mem=1000mw
 %nprocs=12
 Will use up to   12 processors via shared memory.
 --------------------
 # b3lyp/gen opt freq
 --------------------
 1/18=20,19=15,26=3,38=1/1,3;
 2/9=110,12=2,17=6,18=5,40=1/2;
 3/5=7,11=2,25=1,30=1,71=1,74=-5/1,2,3;
 4//1;
 5/5=2,38=5/2;
 6/7=2,8=2,9=2,10=2,28=1/1;
 7//1,2,3,16;
 1/18=20,19=15,26=3/3(2);
 2/9=110/2;
 99//99;
 2/9=110/2;
 3/5=7,6=1,11=2,25=1,30=1,71=1,74=-5,82=7/1,2,3;
 4/5=5,16=3,69=1/1;
 5/5=2,38=5/2;
 7//1,2,3,16;
 1/18=20,19=15,26=3/3(-5);
 2/9=110/2;
 6/7=2,8=2,9=2,10=2,19=2,28=1/1;
 99/9=1/99;
 -----------------------
 propenal, B3LYP/pcseg-2
 -----------------------
 Symbolic Z-matrix:
 Charge =  0 Multiplicity = 1
 C                    -0.1487   -0.74462   0. 
 C                     0.        0.71829   0. 
 C                     1.20507   1.2848    0. 
 O                    -1.2092   -1.32228   0. 
 H                     0.80645  -1.30964   0. 
 H                    -0.91436   1.29931   0. 
 H                     1.33874   2.3577    0. 
 H                     2.10457   0.68005   0. 
 

 GradGradGradGradGradGradGradGradGradGradGradGradGradGradGradGradGradGrad
 Berny optimization.
 Initialization pass.
                           ----------------------------
                           !    Initial Parameters    !
                           ! (Angstroms and Degrees)  !
 --------------------------                            --------------------------
 ! Name  Definition              Value          Derivative Info.                !
 --------------------------------------------------------------------------------
 ! R1    R(1,2)                  1.4704         estimate D2E/DX2                !
 ! R2    R(1,4)                  1.2076         estimate D2E/DX2                !
 ! R3    R(1,5)                  1.1098         estimate D2E/DX2                !
 ! R4    R(2,3)                  1.3316         estimate D2E/DX2                !
 ! R5    R(2,6)                  1.0833         estimate D2E/DX2                !
 ! R6    R(3,7)                  1.0812         estimate D2E/DX2                !
 ! R7    R(3,8)                  1.0839         estimate D2E/DX2                !
 ! A1    A(2,1,4)              124.3812         estimate D2E/DX2                !
 ! A2    A(2,1,5)              114.8031         estimate D2E/DX2                !
 ! A3    A(4,1,5)              120.8157         estimate D2E/DX2                !
 ! A4    A(1,2,3)              120.9823         estimate D2E/DX2                !
 ! A5    A(1,2,6)              116.6299         estimate D2E/DX2                !
 ! A6    A(3,2,6)              122.3878         estimate D2E/DX2                !
 ! A7    A(2,3,7)              122.2802         estimate D2E/DX2                !
 ! A8    A(2,3,8)              120.9084         estimate D2E/DX2                !
 ! A9    A(7,3,8)              116.8114         estimate D2E/DX2                !
 ! D1    D(4,1,2,3)            180.0            estimate D2E/DX2                !
 ! D2    D(4,1,2,6)              0.0            estimate D2E/DX2                !
 ! D3    D(5,1,2,3)              0.0            estimate D2E/DX2                !
 ! D4    D(5,1,2,6)            180.0            estimate D2E/DX2                !
 ! D5    D(1,2,3,7)            180.0            estimate D2E/DX2                !
 ! D6    D(1,2,3,8)              0.0            estimate D2E/DX2                !
 ! D7    D(6,2,3,7)              0.0            estimate D2E/DX2                !
 ! D8    D(6,2,3,8)            180.0            estimate D2E/DX2                !
 --------------------------------------------------------------------------------
 Trust Radius=3.00D-01 FncErr=1.00D-07 GrdErr=1.00D-06 EigMax=2.50D+02 EigMin=1.00D-04
 Number of steps in this run=     34 maximum allowed number of steps=    100.
 GradGradGradGradGradGradGradGradGradGradGradGradGradGradGradGradGradGrad

                          Input orientation:                          
 ---------------------------------------------------------------------
 Center     Atomic      Atomic             Coordinates (Angstroms)
 Number     Number       Type             X           Y           Z
 ---------------------------------------------------------------------
      1          6           0       -0.148695   -0.744616    0.000000
      2          6           0        0.000000    0.718288    0.000000
      3          6           0        1.205067    1.284796    0.000000
      4          8           0       -1.209203   -1.322280    0.000000
      5          1           0        0.806445   -1.309641    0.000000
      6          1           0       -0.914360    1.299314    0.000000
      7          1           0        1.338738    2.357699    0.000000
      8          1           0        2.104572    0.680054    0.000000
 ---------------------------------------------------------------------
                    Distance matrix (angstroms):
                    1          2          3          4          5
     1  C    0.000000
     2  C    1.470442   0.000000
     3  C    2.439505   1.331585   0.000000
     4  O    1.207631   2.371938   3.553244   0.000000
     5  H    1.109750   2.182395   2.624881   2.015688   0.000000
     6  H    2.182634   1.083349   2.119477   2.638122   3.125351
     7  H    3.440467   2.116575   1.081198   4.475963   3.705768
     8  H    2.665876   2.104919   1.083892   3.871750   2.375715
                    6          7          8
     6  H    0.000000
     7  H    2.489303   0.000000
     8  H    3.081791   1.844179   0.000000
 Stoichiometry    C3H4O
 Framework group  CS[SG(C3H4O)]
 Deg. of freedom    13
 Full point group                 CS      NOp   2
 Largest Abelian subgroup         CS      NOp   2
 Largest concise Abelian subgroup C1      NOp   1
                         Standard orientation:                         
 ---------------------------------------------------------------------
 Center     Atomic      Atomic             Coordinates (Angstroms)
 Number     Number       Type             X           Y           Z
 ---------------------------------------------------------------------
      1          6           0       -0.148695   -0.744616    0.000000
      2          6           0       -0.000000    0.718288   -0.000000
      3          6           0        1.205067    1.284796    0.000000
      4          8           0       -1.209203   -1.322280   -0.000000
      5          1           0        0.806445   -1.309641    0.000000
      6          1           0       -0.914360    1.299314   -0.000000
      7          1           0        1.338738    2.357699   -0.000000
      8          1           0        2.104572    0.680054    0.000000
 ---------------------------------------------------------------------
 Rotational constants (GHZ):          48.3075128           4.6730485           4.2608712
 General basis read from cards:  (5D, 7F)
 There are   140 symmetry adapted cartesian basis functions of A'  symmetry.
 There are    60 symmetry adapted cartesian basis functions of A"  symmetry.
 There are   120 symmetry adapted basis functions of A'  symmetry.
 There are    56 symmetry adapted basis functions of A"  symmetry.
   176 basis functions,   276 primitive gaussians,   200 cartesian basis functions
    15 alpha electrons       15 beta electrons
       nuclear repulsion energy       103.3094309337 Hartrees.
 NAtoms=    8 NActive=    8 NUniq=    8 SFac= 1.00D+00 NAtFMM=   60 NAOKFM=F Big=F
 Integral buffers will be    131072 words long.
 Raffenetti 2 integral format.
 Two-electron integral symmetry is turned on.
 One-electron integrals computed using PRISM.
 NBasis=   176 RedAO= T EigKep=  3.12D-04  NBF=   120    56
 NBsUse=   176 1.00D-06 EigRej= -1.00D+00 NBFU=   120    56
 ExpMin= 7.42D-02 ExpMax= 1.36D+04 ExpMxC= 4.64D+02 IAcc=3 IRadAn=         5 AccDes= 0.00D+00
 Harris functional with IExCor=  402 and IRadAn=       5 diagonalized for initial guess.
 HarFok:  IExCor=  402 AccDes= 0.00D+00 IRadAn=         5 IDoV= 1 UseB2=F ITyADJ=14
 ICtDFT=  3500011 ScaDFX=  1.000000  1.000000  1.000000  1.000000
 FoFCou: FMM=F IPFlag=           0 FMFlag=      100000 FMFlg1=           0
         NFxFlg=           0 DoJE=T BraDBF=F KetDBF=T FulRan=T
         wScrn=  0.000000 ICntrl=       500 IOpCl=  0 I1Cent=   200000004 NGrid=           0
         NMat0=    1 NMatS0=      1 NMatT0=    0 NMatD0=    1 NMtDS0=    0 NMtDT0=    0
 Petite list used in FoFCou.
 Initial guess orbital symmetries:
       Occupied  (A') (A') (A') (A') (A') (A') (A') (A') (A') (A')
                 (A') (A") (A') (A") (A')
       Virtual   (A") (A") (A') (A') (A') (A') (A') (A') (A") (A')
                 (A') (A") (A') (A") (A') (A') (A') (A') (A') (A')
                 (A') (A') (A") (A') (A') (A') (A') (A') (A") (A")
                 (A") (A') (A') (A') (A") (A') (A') (A') (A') (A")
                 (A') (A') (A') (A") (A") (A') (A") (A') (A") (A")
                 (A') (A') (A") (A') (A') (A") (A') (A') (A") (A')
                 (A') (A') (A') (A") (A') (A') (A") (A') (A') (A')
                 (A') (A') (A') (A") (A') (A') (A') (A') (A") (A')
                 (A") (A") (A') (A") (A') (A') (A") (A') (A") (A')
                 (A') (A") (A') (A') (A') (A") (A") (A') (A') (A")
                 (A') (A") (A') (A') (A") (A") (A") (A') (A') (A")
                 (A') (A") (A') (A') (A') (A") (A') (A") (A") (A')
                 (A") (A") (A') (A") (A') (A") (A') (A') (A') (A")
                 (A') (A") (A') (A') (A') (A") (A') (A') (A') (A")
                 (A') (A") (A') (A') (A") (A') (A') (A") (A') (A')
                 (A') (A') (A") (A') (A') (A') (A") (A') (A') (A')
                 (A')
 The electronic state of the initial guess is 1-A'.
 Keep R1 ints in memory in symmetry-blocked form, NReq=183150043.
 Requested convergence on RMS density matrix=1.00D-08 within 128 cycles.
 Requested convergence on MAX density matrix=1.00D-06.
 Requested convergence on             energy=1.00D-06.
 No special actions if energy rises.
 Integral accuracy reduced to 1.0D-05 until final iterations.
 Initial convergence to 1.0D-05 achieved.  Increase integral accuracy.
 SCF Done:  E(RB3LYP) =  -191.996328896     A.U. after   14 cycles
            NFock= 14  Conv=0.24D-08     -V/T= 2.0035

 **********************************************************************

            Population analysis using the SCF Density.

 **********************************************************************

 Orbital symmetries:
       Occupied  (A') (A') (A') (A') (A') (A') (A') (A') (A') (A')
                 (A') (A") (A') (A") (A')
       Virtual   (A") (A') (A") (A') (A') (A') (A') (A") (A') (A')
                 (A') (A") (A") (A') (A') (A') (A') (A') (A') (A')
                 (A') (A') (A") (A') (A') (A') (A') (A') (A") (A")
                 (A") (A') (A') (A') (A") (A') (A') (A') (A') (A")
                 (A') (A') (A") (A') (A') (A") (A") (A') (A") (A")
                 (A') (A') (A") (A') (A') (A") (A') (A') (A') (A")
                 (A') (A') (A') (A") (A') (A') (A') (A") (A') (A')
                 (A') (A') (A') (A") (A') (A') (A') (A') (A") (A")
                 (A') (A") (A") (A') (A') (A") (A') (A') (A") (A')
                 (A') (A") (A') (A') (A') (A") (A") (A') (A') (A")
                 (A') (A') (A") (A") (A') (A") (A') (A") (A') (A")
                 (A') (A") (A') (A') (A') (A") (A') (A") (A") (A')
                 (A") (A') (A") (A") (A') (A") (A') (A') (A') (A")
                 (A") (A') (A') (A') (A') (A") (A') (A') (A') (A")
                 (A') (A") (A') (A') (A") (A') (A') (A") (A') (A')
                 (A') (A') (A") (A') (A') (A') (A") (A') (A') (A')
                 (A')
 The electronic state is 1-A'.
 Alpha  occ. eigenvalues --  -19.12856 -10.26835 -10.21080 -10.20136  -1.05702
 Alpha  occ. eigenvalues --   -0.81534  -0.65869  -0.58438  -0.49105  -0.48799
 Alpha  occ. eigenvalues --   -0.43341  -0.41380  -0.40465  -0.30857  -0.27178
 Alpha virt. eigenvalues --   -0.08075   0.01801   0.02389   0.02933   0.05850
 Alpha virt. eigenvalues --    0.08473   0.11316   0.15096   0.15277   0.19015
 Alpha virt. eigenvalues --    0.20076   0.20421   0.24690   0.25874   0.27496
 Alpha virt. eigenvalues --    0.29647   0.30523   0.31395   0.33137   0.35573
 Alpha virt. eigenvalues --    0.37769   0.42319   0.43627   0.44666   0.48359
 Alpha virt. eigenvalues --    0.52862   0.56599   0.62554   0.64522   0.73690
 Alpha virt. eigenvalues --    0.74013   0.77072   0.84492   0.87397   0.88753
 Alpha virt. eigenvalues --    0.94526   0.96428   0.98948   1.02740   1.05369
 Alpha virt. eigenvalues --    1.07630   1.10346   1.13485   1.14497   1.19670
 Alpha virt. eigenvalues --    1.20814   1.23038   1.24545   1.26887   1.31965
 Alpha virt. eigenvalues --    1.34484   1.37677   1.43356   1.47981   1.51008
 Alpha virt. eigenvalues --    1.54878   1.57225   1.62843   1.66520   1.66765
 Alpha virt. eigenvalues --    1.73366   1.75023   1.80473   1.82071   1.86448
 Alpha virt. eigenvalues --    1.96460   1.99045   2.00591   2.09579   2.11064
 Alpha virt. eigenvalues --    2.20880   2.26688   2.37331   2.43559   2.48152
 Alpha virt. eigenvalues --    2.64181   2.72149   2.88760   2.94262   3.01009
 Alpha virt. eigenvalues --    3.01954   3.22128   3.25713   3.25913   3.32701
 Alpha virt. eigenvalues --    3.35751   3.36348   3.42788   3.48755   3.54692
 Alpha virt. eigenvalues --    3.60249   3.61888   3.67785   3.77070   3.80476
 Alpha virt. eigenvalues --    3.88021   3.92306   3.94460   3.95154   3.95324
 Alpha virt. eigenvalues --    4.01036   4.02061   4.02242   4.04410   4.04814
 Alpha virt. eigenvalues --    4.07341   4.16298   4.16582   4.18803   4.22257
 Alpha virt. eigenvalues --    4.23129   4.25810   4.26929   4.27633   4.31746
 Alpha virt. eigenvalues --    4.32646   4.38399   4.39113   4.41138   4.42771
 Alpha virt. eigenvalues --    4.45346   4.51484   4.51584   4.52521   4.54334
 Alpha virt. eigenvalues --    4.61749   4.68039   4.75737   4.80099   4.89053
 Alpha virt. eigenvalues --    4.92433   4.93242   4.98643   5.08812   5.14686
 Alpha virt. eigenvalues --    5.16913   5.19198   5.27804   5.34009   5.39112
 Alpha virt. eigenvalues --    5.41671   5.45429   5.50464   5.60296   5.60978
 Alpha virt. eigenvalues --    5.63692   5.74813   5.74927   5.81720   6.01400
 Alpha virt. eigenvalues --    6.02288   6.04910   6.10788   6.17889   6.19724
 Alpha virt. eigenvalues --    6.30831   6.45751   6.61317   6.79832   6.94232
 Alpha virt. eigenvalues --    7.20217
          Condensed to atoms (all electrons):
               1          2          3          4          5          6
     1  C    4.443685   0.310582  -0.039068   0.568292   0.446090  -0.023056
     2  C    0.310582   5.180335   0.470757  -0.084214  -0.185591   0.416580
     3  C   -0.039068   0.470757   4.773731   0.011097   0.034403  -0.033392
     4  O    0.568292  -0.084214   0.011097   7.945470  -0.072170   0.005340
     5  H    0.446090  -0.185591   0.034403  -0.072170   0.775264   0.006791
     6  H   -0.023056   0.416580  -0.033392   0.005340   0.006791   0.567833
     7  H    0.003980  -0.025040   0.418006  -0.000528  -0.000675  -0.006438
     8  H   -0.002617  -0.060634   0.433772   0.000476   0.010303   0.005470
               7          8
     1  C    0.003980  -0.002617
     2  C   -0.025040  -0.060634
     3  C    0.418006   0.433772
     4  O   -0.000528   0.000476
     5  H   -0.000675   0.010303
     6  H   -0.006438   0.005470
     7  H    0.568924  -0.027573
     8  H   -0.027573   0.582876
 Mulliken charges:
               1
     1  C    0.292112
     2  C   -0.022775
     3  C   -0.069305
     4  O   -0.373763
     5  H   -0.014416
     6  H    0.060873
     7  H    0.069345
     8  H    0.057928
 Sum of Mulliken charges =  -0.00000
 Mulliken charges with hydrogens summed into heavy atoms:
               1
     1  C    0.277696
     2  C    0.038098
     3  C    0.057969
     4  O   -0.373763
 Electronic spatial extent (au):  <R**2>=            298.2116
 Charge=             -0.0000 electrons
 Dipole moment (field-independent basis, Debye):
    X=              2.5883    Y=              2.1943    Z=             -0.0000  Tot=              3.3932
 Quadrupole moment (field-independent basis, Debye-Ang):
   XX=            -25.0109   YY=            -24.3872   ZZ=            -25.1391
   XY=             -2.8203   XZ=             -0.0000   YZ=              0.0000
 Traceless Quadrupole moment (field-independent basis, Debye-Ang):
   XX=             -0.1652   YY=              0.4585   ZZ=             -0.2934
   XY=             -2.8203   XZ=             -0.0000   YZ=              0.0000
 Octapole moment (field-independent basis, Debye-Ang**2):
  XXX=              3.5773  YYY=              5.9569  ZZZ=             -0.0000  XYY=              5.3493
  XXY=              4.8223  XXZ=             -0.0000  XZZ=             -2.6492  YZZ=             -3.4462
  YYZ=             -0.0000  XYZ=             -0.0000
 Hexadecapole moment (field-independent basis, Debye-Ang**3):
 XXXX=           -153.5415 YYYY=           -202.9072 ZZZZ=            -27.5420 XXXY=            -61.7464
 XXXZ=             -0.0000 YYYX=            -59.5242 YYYZ=             -0.0000 ZZZX=             -0.0000
 ZZZY=              0.0000 XXYY=            -61.8215 XXZZ=            -31.6504 YYZZ=            -41.5373
 XXYZ=             -0.0000 YYXZ=             -0.0000 ZZXY=            -20.1899
 N-N= 1.033094309337D+02 E-N=-6.551561493382D+02  KE= 1.913321525031D+02
 Symmetry A'   KE= 1.854631752413D+02
 Symmetry A"   KE= 5.868977261774D+00
 Calling FoFJK, ICntrl=      2127 FMM=F ISym2X=1 I1Cent= 0 IOpClX= 0 NMat=1 NMatS=1 NMatT=0.
 ***** Axes restored to original set *****
 -------------------------------------------------------------------
 Center     Atomic                   Forces (Hartrees/Bohr)
 Number     Number              X              Y              Z
 -------------------------------------------------------------------
      1        6           0.000512034   -0.000365469    0.000000000
      2        6           0.000539531    0.000465054   -0.000000000
      3        6          -0.000271706    0.000140089   -0.000000000
      4        8          -0.000753396   -0.000334288   -0.000000000
      5        1          -0.000093176    0.000285696   -0.000000000
      6        1           0.000135550   -0.000103026    0.000000000
      7        1          -0.000018403   -0.000141751    0.000000000
      8        1          -0.000050435    0.000053694   -0.000000000
 -------------------------------------------------------------------
 Cartesian Forces:  Max     0.000753396 RMS     0.000275459

 GradGradGradGradGradGradGradGradGradGradGradGradGradGradGradGradGradGrad
 Berny optimization.
 FormGI is forming the generalized inverse of G from B-inverse, IUseBI=4.
 Internal  Forces:  Max     0.000821561 RMS     0.000236189
 Search for a local minimum.
 Step number   1 out of a maximum of   34
 All quantities printed in internal units (Hartrees-Bohrs-Radians)
 Mixed Optimization -- En-DIIS/RFO-DIIS
 Second derivative matrix not updated -- first step.
 ITU=  0
     Eigenvalues ---    0.01157   0.01157   0.02128   0.02994   0.02994
     Eigenvalues ---    0.16000   0.16000   0.16000   0.16000   0.22000
     Eigenvalues ---    0.22000   0.32626   0.35528   0.35593   0.35687
     Eigenvalues ---    0.35850   0.59133   1.01080
 RFO step:  Lambda=-3.08502954D-06 EMin= 1.15694931D-02
 Linear search not attempted -- first point.
 Iteration  1 RMS(Cart)=  0.00109897 RMS(Int)=  0.00000038
 Iteration  2 RMS(Cart)=  0.00000052 RMS(Int)=  0.00000000
 ClnCor:  largest displacement from symmetrization is 7.21D-13 for atom     1.
 Variable       Old X    -DE/DX   Delta X   Delta X   Delta X     New X
                                 (Linear)    (Quad)   (Total)
    R1        2.77873   0.00045   0.00000   0.00125   0.00125   2.77998
    R2        2.28209   0.00082   0.00000   0.00081   0.00081   2.28290
    R3        2.09712  -0.00023   0.00000  -0.00069  -0.00069   2.09643
    R4        2.51633  -0.00029   0.00000  -0.00048  -0.00048   2.51585
    R5        2.04723  -0.00017   0.00000  -0.00048  -0.00048   2.04676
    R6        2.04317  -0.00014   0.00000  -0.00040  -0.00040   2.04277
    R7        2.04826  -0.00007   0.00000  -0.00020  -0.00020   2.04806
    A1        2.17086   0.00004   0.00000   0.00017   0.00017   2.17103
    A2        2.00369  -0.00023   0.00000  -0.00138  -0.00138   2.00231
    A3        2.10863   0.00019   0.00000   0.00122   0.00122   2.10985
    A4        2.11154   0.00035   0.00000   0.00161   0.00161   2.11315
    A5        2.03558  -0.00019   0.00000  -0.00090  -0.00090   2.03468
    A6        2.13607  -0.00016   0.00000  -0.00071  -0.00071   2.13536
    A7        2.13419  -0.00001   0.00000  -0.00007  -0.00007   2.13412
    A8        2.11025   0.00002   0.00000   0.00014   0.00014   2.11039
    A9        2.03874  -0.00001   0.00000  -0.00007  -0.00007   2.03868
    D1        3.14159  -0.00000   0.00000  -0.00000   0.00000   3.14159
    D2       -0.00000   0.00000   0.00000  -0.00000   0.00000   0.00000
    D3       -0.00000   0.00000   0.00000  -0.00000   0.00000   0.00000
    D4        3.14159  -0.00000   0.00000  -0.00000   0.00000   3.14159
    D5        3.14159   0.00000   0.00000  -0.00000   0.00000   3.14159
    D6        0.00000   0.00000   0.00000  -0.00000   0.00000   0.00000
    D7       -0.00000  -0.00000   0.00000  -0.00000   0.00000   0.00000
    D8        3.14159  -0.00000   0.00000  -0.00000   0.00000   3.14159
         Item               Value     Threshold  Converged?
 Maximum Force            0.000822     0.000450     NO 
 RMS     Force            0.000236     0.000300     YES
 Maximum Displacement     0.002463     0.001800     NO 
 RMS     Displacement     0.001099     0.001200     YES
 Predicted change in Energy=-1.542515D-06
 GradGradGradGradGradGradGradGradGradGradGradGradGradGradGradGradGradGrad

                          Input orientation:                          
 ---------------------------------------------------------------------
 Center     Atomic      Atomic             Coordinates (Angstroms)
 Number     Number       Type             X           Y           Z
 ---------------------------------------------------------------------
      1          6           0       -0.149194   -0.745446    0.000000
      2          6           0        0.000893    0.717980   -0.000000
      3          6           0        1.205328    1.285228   -0.000000
      4          8           0       -1.210506   -1.322533    0.000000
      5          1           0        0.805900   -1.309828    0.000000
      6          1           0       -0.913249    1.298879   -0.000000
      7          1           0        1.338136    2.358026   -0.000000
      8          1           0        2.105257    0.681308    0.000000
 ---------------------------------------------------------------------
                    Distance matrix (angstroms):
                    1          2          3          4          5
     1  C    0.000000
     2  C    1.471102   0.000000
     3  C    2.440978   1.331329   0.000000
     4  O    1.208061   2.373011   3.554810   0.000000
     5  H    1.109384   2.181752   2.625617   2.016447   0.000000
     6  H    2.182440   1.083097   2.118621   2.638212   3.124233
     7  H    3.441467   2.116122   1.080987   4.476840   3.706269
     8  H    2.667992   2.104684   1.083785   3.874231   2.377594
                    6          7          8
     6  H    0.000000
     7  H    2.488077   0.000000
     8  H    3.081034   1.843870   0.000000
 Stoichiometry    C3H4O
 Framework group  CS[SG(C3H4O)]
 Deg. of freedom    13
 Full point group                 CS      NOp   2
 Largest Abelian subgroup         CS      NOp   2
 Largest concise Abelian subgroup C1      NOp   1
                         Standard orientation:                         
 ---------------------------------------------------------------------
 Center     Atomic      Atomic             Coordinates (Angstroms)
 Number     Number       Type             X           Y           Z
 ---------------------------------------------------------------------
      1          6           0       -0.147871   -0.745494    0.000000
      2          6           0       -0.000000    0.718157    0.000000
      3          6           0        1.203575    1.287230   -0.000000
      4          8           0       -1.208308   -1.324187    0.000000
      5          1           0        0.808078   -1.308429   -0.000000
      6          1           0       -0.915020    1.297672    0.000000
      7          1           0        1.334758    2.360227   -0.000000
      8          1           0        2.104417    0.684673   -0.000000
 ---------------------------------------------------------------------
 Rotational constants (GHZ):          48.3536426           4.6686610           4.2575812
 Basis read from rwf:  (5D, 7F)
 There are   140 symmetry adapted cartesian basis functions of A'  symmetry.
 There are    60 symmetry adapted cartesian basis functions of A"  symmetry.
 There are   120 symmetry adapted basis functions of A'  symmetry.
 There are    56 symmetry adapted basis functions of A"  symmetry.
   176 basis functions,   276 primitive gaussians,   200 cartesian basis functions
    15 alpha electrons       15 beta electrons
       nuclear repulsion energy       103.2870911440 Hartrees.
 NAtoms=    8 NActive=    8 NUniq=    8 SFac= 1.00D+00 NAtFMM=   60 NAOKFM=F Big=F
 Integral buffers will be    131072 words long.
 Raffenetti 2 integral format.
 Two-electron integral symmetry is turned on.
 One-electron integrals computed using PRISM.
 NBasis=   176 RedAO= T EigKep=  3.11D-04  NBF=   120    56
 NBsUse=   176 1.00D-06 EigRej= -1.00D+00 NBFU=   120    56
 Initial guess from the checkpoint file:  "/wrk/irikura/Gau-21180.chk"
 B after Tr=     0.000000    0.000000   -0.000000
         Rot=    1.000000   -0.000000   -0.000000   -0.000658 Ang=  -0.08 deg.
 Initial guess orbital symmetries:
       Occupied  (A') (A') (A') (A') (A') (A') (A') (A') (A') (A')
                 (A') (A") (A') (A") (A')
       Virtual   (A") (A') (A") (A') (A') (A') (A') (A") (A') (A')
                 (A') (A") (A") (A') (A') (A') (A') (A') (A') (A')
                 (A') (A') (A") (A') (A') (A') (A') (A') (A") (A")
                 (A") (A') (A') (A') (A") (A') (A') (A') (A') (A")
                 (A') (A') (A") (A') (A') (A") (A") (A') (A") (A")
                 (A') (A') (A") (A') (A') (A") (A') (A') (A') (A")
                 (A') (A') (A') (A") (A') (A') (A') (A") (A') (A')
                 (A') (A') (A') (A") (A') (A') (A') (A') (A") (A")
                 (A') (A") (A") (A') (A') (A") (A') (A') (A") (A')
                 (A') (A") (A') (A') (A') (A") (A") (A') (A') (A")
                 (A') (A') (A") (A") (A') (A") (A') (A") (A') (A")
                 (A') (A") (A') (A') (A') (A") (A') (A") (A") (A')
                 (A") (A') (A") (A") (A') (A") (A') (A') (A') (A")
                 (A") (A') (A') (A') (A') (A") (A') (A') (A') (A")
                 (A') (A") (A') (A') (A") (A') (A') (A") (A') (A')
                 (A') (A') (A") (A') (A') (A') (A") (A') (A') (A')
                 (A')
 Keep R1 ints in memory in symmetry-blocked form, NReq=183150043.
 Requested convergence on RMS density matrix=1.00D-08 within 128 cycles.
 Requested convergence on MAX density matrix=1.00D-06.
 Requested convergence on             energy=1.00D-06.
 No special actions if energy rises.
 SCF Done:  E(RB3LYP) =  -191.996330522     A.U. after    8 cycles
            NFock=  8  Conv=0.22D-08     -V/T= 2.0035
 Calling FoFJK, ICntrl=      2127 FMM=F ISym2X=1 I1Cent= 0 IOpClX= 0 NMat=1 NMatS=1 NMatT=0.
 ***** Axes restored to original set *****
 -------------------------------------------------------------------
 Center     Atomic                   Forces (Hartrees/Bohr)
 Number     Number              X              Y              Z
 -------------------------------------------------------------------
      1        6           0.000063694   -0.000096403    0.000000000
      2        6           0.000075026    0.000057794   -0.000000000
      3        6          -0.000067314   -0.000032905    0.000000000
      4        8          -0.000014644    0.000045205   -0.000000000
      5        1          -0.000037900    0.000015279   -0.000000000
      6        1          -0.000033363    0.000006579   -0.000000000
      7        1          -0.000011568   -0.000002300   -0.000000000
      8        1           0.000026069    0.000006751    0.000000000
 -------------------------------------------------------------------
 Cartesian Forces:  Max     0.000096403 RMS     0.000037573

 GradGradGradGradGradGradGradGradGradGradGradGradGradGradGradGradGradGrad
 Berny optimization.
 Using GEDIIS/GDIIS optimizer.
 FormGI is forming the generalized inverse of G from B-inverse, IUseBI=4.
 Internal  Forces:  Max     0.000075648 RMS     0.000030212
 Search for a local minimum.
 Step number   2 out of a maximum of   34
 All quantities printed in internal units (Hartrees-Bohrs-Radians)
 Mixed Optimization -- En-DIIS/RFO-DIIS
 Swapping is turned off.
 Update second derivatives using D2CorX and points    1    2
 DE= -1.63D-06 DEPred=-1.54D-06 R= 1.05D+00
 TightC=F SS=  1.41D+00  RLast= 3.27D-03 DXNew= 5.0454D-01 9.8228D-03
 Trust test= 1.05D+00 RLast= 3.27D-03 DXMaxT set to 3.00D-01
 ITU=  1  0
     Eigenvalues ---    0.01157   0.01157   0.02128   0.02994   0.02994
     Eigenvalues ---    0.15413   0.16000   0.16000   0.16513   0.20107
     Eigenvalues ---    0.23099   0.32109   0.35071   0.35542   0.35831
     Eigenvalues ---    0.36452   0.58303   1.02944
 En-DIIS/RFO-DIIS/Sim-DIIS IScMMF=       -3 using points:     2    1
 RFO step:  Lambda=-9.56268848D-08.
 DidBck=F Rises=F RFO-DIIS coefs:    1.08348   -0.08348
 Iteration  1 RMS(Cart)=  0.00035428 RMS(Int)=  0.00000007
 Iteration  2 RMS(Cart)=  0.00000007 RMS(Int)=  0.00000000
 ClnCor:  largest displacement from symmetrization is 4.27D-13 for atom     1.
 Variable       Old X    -DE/DX   Delta X   Delta X   Delta X     New X
                                 (Linear)    (Quad)   (Total)
    R1        2.77998   0.00003   0.00010   0.00003   0.00014   2.78012
    R2        2.28290  -0.00001   0.00007  -0.00005   0.00001   2.28292
    R3        2.09643  -0.00004  -0.00006  -0.00009  -0.00015   2.09628
    R4        2.51585  -0.00006  -0.00004  -0.00008  -0.00012   2.51573
    R5        2.04676   0.00003  -0.00004   0.00012   0.00008   2.04684
    R6        2.04277  -0.00000  -0.00003   0.00001  -0.00002   2.04275
    R7        2.04806   0.00002  -0.00002   0.00006   0.00005   2.04810
    A1        2.17103  -0.00008   0.00001  -0.00037  -0.00036   2.17067
    A2        2.00231   0.00004  -0.00012   0.00030   0.00018   2.00249
    A3        2.10985   0.00003   0.00010   0.00007   0.00017   2.11002
    A4        2.11315   0.00004   0.00013   0.00013   0.00026   2.11341
    A5        2.03468  -0.00003  -0.00007  -0.00014  -0.00022   2.03446
    A6        2.13536  -0.00001  -0.00006   0.00001  -0.00005   2.13531
    A7        2.13412  -0.00003  -0.00001  -0.00019  -0.00019   2.13393
    A8        2.11039   0.00003   0.00001   0.00022   0.00023   2.11063
    A9        2.03868  -0.00001  -0.00001  -0.00004  -0.00004   2.03863
    D1        3.14159  -0.00000   0.00000   0.00000   0.00000   3.14159
    D2        0.00000  -0.00000   0.00000   0.00000   0.00000   0.00000
    D3        0.00000  -0.00000   0.00000   0.00000   0.00000   0.00000
    D4        3.14159  -0.00000   0.00000   0.00000   0.00000   3.14159
    D5        3.14159   0.00000   0.00000  -0.00000   0.00000   3.14159
    D6       -0.00000  -0.00000   0.00000  -0.00000   0.00000   0.00000
    D7        0.00000   0.00000   0.00000   0.00000   0.00000   0.00000
    D8        3.14159  -0.00000   0.00000   0.00000   0.00000   3.14159
         Item               Value     Threshold  Converged?
 Maximum Force            0.000076     0.000450     YES
 RMS     Force            0.000030     0.000300     YES
 Maximum Displacement     0.000760     0.001800     YES
 RMS     Displacement     0.000354     0.001200     YES
 Predicted change in Energy=-4.781346D-08
 Optimization completed.
    -- Stationary point found.
                           ----------------------------
                           !   Optimized Parameters   !
                           ! (Angstroms and Degrees)  !
 --------------------------                            --------------------------
 ! Name  Definition              Value          Derivative Info.                !
 --------------------------------------------------------------------------------
 ! R1    R(1,2)                  1.4711         -DE/DX =    0.0                 !
 ! R2    R(1,4)                  1.2081         -DE/DX =    0.0                 !
 ! R3    R(1,5)                  1.1094         -DE/DX =    0.0                 !
 ! R4    R(2,3)                  1.3313         -DE/DX =   -0.0001              !
 ! R5    R(2,6)                  1.0831         -DE/DX =    0.0                 !
 ! R6    R(3,7)                  1.081          -DE/DX =    0.0                 !
 ! R7    R(3,8)                  1.0838         -DE/DX =    0.0                 !
 ! A1    A(2,1,4)              124.3908         -DE/DX =   -0.0001              !
 ! A2    A(2,1,5)              114.7239         -DE/DX =    0.0                 !
 ! A3    A(4,1,5)              120.8854         -DE/DX =    0.0                 !
 ! A4    A(1,2,3)              121.0746         -DE/DX =    0.0                 !
 ! A5    A(1,2,6)              116.5786         -DE/DX =    0.0                 !
 ! A6    A(3,2,6)              122.3469         -DE/DX =    0.0                 !
 ! A7    A(2,3,7)              122.2759         -DE/DX =    0.0                 !
 ! A8    A(2,3,8)              120.9165         -DE/DX =    0.0                 !
 ! A9    A(7,3,8)              116.8075         -DE/DX =    0.0                 !
 ! D1    D(4,1,2,3)            180.0            -DE/DX =    0.0                 !
 ! D2    D(4,1,2,6)              0.0            -DE/DX =    0.0                 !
 ! D3    D(5,1,2,3)              0.0            -DE/DX =    0.0                 !
 ! D4    D(5,1,2,6)            180.0            -DE/DX =    0.0                 !
 ! D5    D(1,2,3,7)            180.0            -DE/DX =    0.0                 !
 ! D6    D(1,2,3,8)              0.0            -DE/DX =    0.0                 !
 ! D7    D(6,2,3,7)              0.0            -DE/DX =    0.0                 !
 ! D8    D(6,2,3,8)            180.0            -DE/DX =    0.0                 !
 --------------------------------------------------------------------------------
 GradGradGradGradGradGradGradGradGradGradGradGradGradGradGradGradGradGrad

                          Input orientation:                          
 ---------------------------------------------------------------------
 Center     Atomic      Atomic             Coordinates (Angstroms)
 Number     Number       Type             X           Y           Z
 ---------------------------------------------------------------------
      1          6           0       -0.149194   -0.745446    0.000000
      2          6           0        0.000893    0.717980   -0.000000
      3          6           0        1.205328    1.285228   -0.000000
      4          8           0       -1.210506   -1.322533    0.000000
      5          1           0        0.805900   -1.309828    0.000000
      6          1           0       -0.913249    1.298879   -0.000000
      7          1           0        1.338136    2.358026   -0.000000
      8          1           0        2.105257    0.681308    0.000000
 ---------------------------------------------------------------------
                    Distance matrix (angstroms):
                    1          2          3          4          5
     1  C    0.000000
     2  C    1.471102   0.000000
     3  C    2.440978   1.331329   0.000000
     4  O    1.208061   2.373011   3.554810   0.000000
     5  H    1.109384   2.181752   2.625617   2.016447   0.000000
     6  H    2.182440   1.083097   2.118621   2.638212   3.124233
     7  H    3.441467   2.116122   1.080987   4.476840   3.706269
     8  H    2.667992   2.104684   1.083785   3.874231   2.377594
                    6          7          8
     6  H    0.000000
     7  H    2.488077   0.000000
     8  H    3.081034   1.843870   0.000000
 Stoichiometry    C3H4O
 Framework group  CS[SG(C3H4O)]
 Deg. of freedom    13
 Full point group                 CS      NOp   2
 Largest Abelian subgroup         CS      NOp   2
 Largest concise Abelian subgroup C1      NOp   1
                         Standard orientation:                         
 ---------------------------------------------------------------------
 Center     Atomic      Atomic             Coordinates (Angstroms)
 Number     Number       Type             X           Y           Z
 ---------------------------------------------------------------------
      1          6           0       -0.147871   -0.745494    0.000000
      2          6           0       -0.000000    0.718157    0.000000
      3          6           0        1.203575    1.287230   -0.000000
      4          8           0       -1.208308   -1.324187    0.000000
      5          1           0        0.808078   -1.308429   -0.000000
      6          1           0       -0.915020    1.297672    0.000000
      7          1           0        1.334758    2.360227   -0.000000
      8          1           0        2.104417    0.684673   -0.000000
 ---------------------------------------------------------------------
 Rotational constants (GHZ):          48.3536426           4.6686610           4.2575812

 **********************************************************************

            Population analysis using the SCF Density.

 **********************************************************************

 Orbital symmetries:
       Occupied  (A') (A') (A') (A') (A') (A') (A') (A') (A') (A')
                 (A') (A") (A') (A") (A')
       Virtual   (A") (A') (A") (A') (A') (A') (A') (A") (A') (A')
                 (A') (A") (A") (A') (A') (A') (A') (A') (A') (A')
                 (A') (A') (A") (A') (A') (A') (A') (A') (A") (A")
                 (A") (A') (A') (A') (A") (A') (A') (A') (A') (A")
                 (A') (A') (A") (A') (A') (A") (A") (A') (A") (A")
                 (A') (A') (A") (A') (A') (A") (A') (A') (A') (A")
                 (A') (A') (A') (A") (A') (A') (A') (A") (A') (A')
                 (A') (A') (A') (A") (A') (A') (A') (A') (A") (A")
                 (A') (A") (A") (A') (A') (A") (A') (A') (A") (A')
                 (A') (A") (A') (A') (A') (A") (A") (A') (A') (A")
                 (A') (A') (A") (A") (A') (A") (A') (A") (A') (A")
                 (A') (A") (A') (A') (A') (A") (A') (A") (A") (A')
                 (A") (A') (A") (A") (A') (A") (A') (A') (A') (A")
                 (A") (A') (A') (A') (A') (A") (A') (A') (A') (A")
                 (A') (A") (A') (A') (A") (A') (A') (A") (A') (A')
                 (A') (A') (A") (A') (A') (A') (A") (A') (A') (A')
                 (A')
 The electronic state is 1-A'.
 Alpha  occ. eigenvalues --  -19.12869 -10.26851 -10.21073 -10.20133  -1.05684
 Alpha  occ. eigenvalues --   -0.81531  -0.65878  -0.58441  -0.49101  -0.48805
 Alpha  occ. eigenvalues --   -0.43352  -0.41369  -0.40454  -0.30860  -0.27185
 Alpha virt. eigenvalues --   -0.08082   0.01800   0.02385   0.02939   0.05851
 Alpha virt. eigenvalues --    0.08472   0.11309   0.15096   0.15282   0.19013
 Alpha virt. eigenvalues --    0.20083   0.20421   0.24694   0.25893   0.27479
 Alpha virt. eigenvalues --    0.29650   0.30517   0.31390   0.33143   0.35574
 Alpha virt. eigenvalues --    0.37758   0.42293   0.43620   0.44629   0.48362
 Alpha virt. eigenvalues --    0.52865   0.56596   0.62575   0.64518   0.73706
 Alpha virt. eigenvalues --    0.74013   0.77059   0.84477   0.87404   0.88726
 Alpha virt. eigenvalues --    0.94514   0.96430   0.98952   1.02743   1.05367
 Alpha virt. eigenvalues --    1.07619   1.10313   1.13520   1.14493   1.19669
 Alpha virt. eigenvalues --    1.20802   1.23046   1.24551   1.26881   1.31944
 Alpha virt. eigenvalues --    1.34431   1.37685   1.43363   1.47982   1.51003
 Alpha virt. eigenvalues --    1.54896   1.57206   1.62817   1.66542   1.66746
 Alpha virt. eigenvalues --    1.73357   1.75061   1.80442   1.82044   1.86432
 Alpha virt. eigenvalues --    1.96475   1.99090   2.00577   2.09606   2.11065
 Alpha virt. eigenvalues --    2.20811   2.26719   2.37366   2.43534   2.48116
 Alpha virt. eigenvalues --    2.64247   2.72088   2.88735   2.94260   3.01006
 Alpha virt. eigenvalues --    3.01912   3.22141   3.25712   3.25905   3.32728
 Alpha virt. eigenvalues --    3.35775   3.36284   3.42772   3.48716   3.54732
 Alpha virt. eigenvalues --    3.60219   3.61870   3.67755   3.77010   3.80442
 Alpha virt. eigenvalues --    3.88015   3.92304   3.94465   3.95156   3.95321
 Alpha virt. eigenvalues --    4.01057   4.02100   4.02222   4.04421   4.04796
 Alpha virt. eigenvalues --    4.07343   4.16316   4.16582   4.18763   4.22234
 Alpha virt. eigenvalues --    4.23139   4.25823   4.26966   4.27681   4.31735
 Alpha virt. eigenvalues --    4.32656   4.38421   4.39110   4.41106   4.42779
 Alpha virt. eigenvalues --    4.45340   4.51469   4.51587   4.52548   4.54335
 Alpha virt. eigenvalues --    4.61745   4.67976   4.75709   4.80097   4.89059
 Alpha virt. eigenvalues --    4.92398   4.93133   4.98613   5.08834   5.14834
 Alpha virt. eigenvalues --    5.16955   5.19202   5.27820   5.34025   5.39106
 Alpha virt. eigenvalues --    5.41722   5.45497   5.50472   5.60393   5.61016
 Alpha virt. eigenvalues --    5.63738   5.74819   5.74907   5.81690   6.01450
 Alpha virt. eigenvalues --    6.02293   6.04958   6.10767   6.17929   6.19708
 Alpha virt. eigenvalues --    6.30806   6.45764   6.61466   6.79803   6.94207
 Alpha virt. eigenvalues --    7.20048
          Condensed to atoms (all electrons):
               1          2          3          4          5          6
     1  C    4.443563   0.310882  -0.039047   0.568130   0.445798  -0.023111
     2  C    0.310882   5.179500   0.471246  -0.084120  -0.185433   0.416460
     3  C   -0.039047   0.471246   4.773246   0.011082   0.034305  -0.033443
     4  O    0.568130  -0.084120   0.011082   7.945596  -0.072017   0.005388
     5  H    0.445798  -0.185433   0.034305  -0.072017   0.775233   0.006833
     6  H   -0.023111   0.416460  -0.033443   0.005388   0.006833   0.568061
     7  H    0.003970  -0.025046   0.418094  -0.000527  -0.000682  -0.006472
     8  H   -0.002618  -0.060605   0.433722   0.000474   0.010287   0.005487
               7          8
     1  C    0.003970  -0.002618
     2  C   -0.025046  -0.060605
     3  C    0.418094   0.433722
     4  O   -0.000527   0.000474
     5  H   -0.000682   0.010287
     6  H   -0.006472   0.005487
     7  H    0.568891  -0.027573
     8  H   -0.027573   0.582982
 Mulliken charges:
               1
     1  C    0.292432
     2  C   -0.022884
     3  C   -0.069205
     4  O   -0.374006
     5  H   -0.014324
     6  H    0.060798
     7  H    0.069344
     8  H    0.057845
 Sum of Mulliken charges =  -0.00000
 Mulliken charges with hydrogens summed into heavy atoms:
               1
     1  C    0.278108
     2  C    0.037914
     3  C    0.057984
     4  O   -0.374006
 Electronic spatial extent (au):  <R**2>=            298.3841
 Charge=              0.0000 electrons
 Dipole moment (field-independent basis, Debye):
    X=              2.5877    Y=              2.1963    Z=              0.0000  Tot=              3.3941
 Quadrupole moment (field-independent basis, Debye-Ang):
   XX=            -25.0072   YY=            -24.3936   ZZ=            -25.1393
   XY=             -2.8200   XZ=              0.0000   YZ=              0.0000
 Traceless Quadrupole moment (field-independent basis, Debye-Ang):
   XX=             -0.1605   YY=              0.4531   ZZ=             -0.2926
   XY=             -2.8200   XZ=              0.0000   YZ=              0.0000
 Octapole moment (field-independent basis, Debye-Ang**2):
  XXX=              3.5684  YYY=              5.9887  ZZZ=              0.0000  XYY=              5.3615
  XXY=              4.8137  XXZ=              0.0000  XZZ=             -2.6446  YZZ=             -3.4498
  YYZ=              0.0000  XYZ=              0.0000
 Hexadecapole moment (field-independent basis, Debye-Ang**3):
 XXXX=           -153.2931 YYYY=           -203.3457 ZZZZ=            -27.5427 XXXY=            -61.7724
 XXXZ=              0.0000 YYYX=            -59.5698 YYYZ=             -0.0000 ZZZX=             -0.0000
 ZZZY=             -0.0000 XXYY=            -61.8729 XXZZ=            -31.6101 YYZZ=            -41.6135
 XXYZ=              0.0000 YYXZ=             -0.0000 ZZXY=            -20.2020
 N-N= 1.032870911440D+02 E-N=-6.551100559537D+02  KE= 1.913308392474D+02
 Symmetry A'   KE= 1.854620601161D+02
 Symmetry A"   KE= 5.868779131263D+00
 1\1\GINC-GAMBA\FOpt\RB3LYP\Gen\C3H4O1\IRIKURA\18-Jun-2022\0\\# b3lyp/g
 en opt freq\\propenal, B3LYP/pcseg-2\\0,1\C,-0.1491944177,-0.745446473
 7,0.\C,0.0008925479,0.7179797068,0.\C,1.2053281639,1.2852284924,0.\O,-
 1.2105063983,-1.3225329426,0.\H,0.8059004865,-1.3098283727,0.\H,-0.913
 2490312,1.2988791025,0.\H,1.338136081,2.3580260084,0.\H,2.1052565679,0
 .6813084789,0.\\Version=ES64L-G16RevB.01\State=1-A'\HF=-191.9963305\RM
 SD=2.183e-09\RMSF=3.757e-05\Dipole=1.0193817,0.8625633,0.\Quadrupole=-
 0.1256882,0.3432146,-0.2175264,-2.095928,0.,0.\PG=CS [SG(C3H4O1)]\\@


 WHAT, THEN, IS TIME?  IF NO ONE ASKS ME, I KNOW WHAT IT IS.
 IF I WISH TO EXPLAIN WHAT IT IS TO HIM WHO ASKS ME, I DO NOT KNOW.
                                   -- ST. AUGUSTINE (FIFTH CENTURY)
 Job cpu time:       0 days  0 hours  3 minutes 21.6 seconds.
 Elapsed time:       0 days  0 hours  0 minutes 18.2 seconds.
 File lengths (MBytes):  RWF=     19 Int=      0 D2E=      0 Chk=      3 Scr=      1
 Normal termination of Gaussian 16 at Sat Jun 18 10:45:13 2022.
 Link1:  Proceeding to internal job step number  2.
 ------------------------------------------------------------------
 #N Geom=AllCheck Guess=TCheck SCRF=Check GenChk RB3LYP/ChkBas Freq
 ------------------------------------------------------------------
 1/10=4,29=7,30=1,38=1,40=1/1,3;
 2/12=2,40=1/2;
 3/5=7,6=2,11=2,14=-4,25=1,30=1,67=1,70=2,71=2,74=-5,82=7,116=1,140=1/1,2,3;
 4/5=101/1;
 5/5=2,38=6,98=1/2;
 8/6=4,10=90,11=11/1;
 11/6=1,8=1,9=11,15=111,16=1/1,2,10;
 10/6=1/2;
 6/7=2,8=2,9=2,10=2,28=1/1;
 7/8=1,10=1,25=1/1,2,3,16;
 1/10=4,30=1/3;
 99//99;
 Structure from the checkpoint file:  "/wrk/irikura/Gau-21180.chk"
 -----------------------
 propenal, B3LYP/pcseg-2
 -----------------------
 Charge =  0 Multiplicity = 1
 Redundant internal coordinates found in file.  (old form).
 C,0,-0.1491944177,-0.7454464737,0.
 C,0,0.0008925479,0.7179797068,0.
 C,0,1.2053281639,1.2852284924,0.
 O,0,-1.2105063983,-1.3225329426,0.
 H,0,0.8059004865,-1.3098283727,0.
 H,0,-0.9132490312,1.2988791025,0.
 H,0,1.338136081,2.3580260084,0.
 H,0,2.1052565679,0.6813084789,0.
 Recover connectivity data from disk.

 GradGradGradGradGradGradGradGradGradGradGradGradGradGradGradGradGradGrad
 Berny optimization.
 Initialization pass.
                           ----------------------------
                           !    Initial Parameters    !
                           ! (Angstroms and Degrees)  !
 --------------------------                            --------------------------
 ! Name  Definition              Value          Derivative Info.                !
 --------------------------------------------------------------------------------
 ! R1    R(1,2)                  1.4711         calculate D2E/DX2 analytically  !
 ! R2    R(1,4)                  1.2081         calculate D2E/DX2 analytically  !
 ! R3    R(1,5)                  1.1094         calculate D2E/DX2 analytically  !
 ! R4    R(2,3)                  1.3313         calculate D2E/DX2 analytically  !
 ! R5    R(2,6)                  1.0831         calculate D2E/DX2 analytically  !
 ! R6    R(3,7)                  1.081          calculate D2E/DX2 analytically  !
 ! R7    R(3,8)                  1.0838         calculate D2E/DX2 analytically  !
 ! A1    A(2,1,4)              124.3908         calculate D2E/DX2 analytically  !
 ! A2    A(2,1,5)              114.7239         calculate D2E/DX2 analytically  !
 ! A3    A(4,1,5)              120.8854         calculate D2E/DX2 analytically  !
 ! A4    A(1,2,3)              121.0746         calculate D2E/DX2 analytically  !
 ! A5    A(1,2,6)              116.5786         calculate D2E/DX2 analytically  !
 ! A6    A(3,2,6)              122.3469         calculate D2E/DX2 analytically  !
 ! A7    A(2,3,7)              122.2759         calculate D2E/DX2 analytically  !
 ! A8    A(2,3,8)              120.9165         calculate D2E/DX2 analytically  !
 ! A9    A(7,3,8)              116.8075         calculate D2E/DX2 analytically  !
 ! D1    D(4,1,2,3)            180.0            calculate D2E/DX2 analytically  !
 ! D2    D(4,1,2,6)              0.0            calculate D2E/DX2 analytically  !
 ! D3    D(5,1,2,3)              0.0            calculate D2E/DX2 analytically  !
 ! D4    D(5,1,2,6)            180.0            calculate D2E/DX2 analytically  !
 ! D5    D(1,2,3,7)            180.0            calculate D2E/DX2 analytically  !
 ! D6    D(1,2,3,8)              0.0            calculate D2E/DX2 analytically  !
 ! D7    D(6,2,3,7)              0.0            calculate D2E/DX2 analytically  !
 ! D8    D(6,2,3,8)            180.0            calculate D2E/DX2 analytically  !
 --------------------------------------------------------------------------------
 Trust Radius=3.00D-01 FncErr=1.00D-07 GrdErr=1.00D-07 EigMax=2.50D+02 EigMin=1.00D-04
 Number of steps in this run=      2 maximum allowed number of steps=      2.
 GradGradGradGradGradGradGradGradGradGradGradGradGradGradGradGradGradGrad

                          Input orientation:                          
 ---------------------------------------------------------------------
 Center     Atomic      Atomic             Coordinates (Angstroms)
 Number     Number       Type             X           Y           Z
 ---------------------------------------------------------------------
      1          6           0       -0.149194   -0.745446    0.000000
      2          6           0        0.000893    0.717980   -0.000000
      3          6           0        1.205328    1.285228   -0.000000
      4          8           0       -1.210506   -1.322533    0.000000
      5          1           0        0.805900   -1.309828    0.000000
      6          1           0       -0.913249    1.298879   -0.000000
      7          1           0        1.338136    2.358026   -0.000000
      8          1           0        2.105257    0.681308    0.000000
 ---------------------------------------------------------------------
                    Distance matrix (angstroms):
                    1          2          3          4          5
     1  C    0.000000
     2  C    1.471102   0.000000
     3  C    2.440978   1.331329   0.000000
     4  O    1.208061   2.373011   3.554810   0.000000
     5  H    1.109384   2.181752   2.625617   2.016447   0.000000
     6  H    2.182440   1.083097   2.118621   2.638212   3.124233
     7  H    3.441467   2.116122   1.080987   4.476840   3.706269
     8  H    2.667992   2.104684   1.083785   3.874231   2.377594
                    6          7          8
     6  H    0.000000
     7  H    2.488077   0.000000
     8  H    3.081034   1.843870   0.000000
 Stoichiometry    C3H4O
 Framework group  CS[SG(C3H4O)]
 Deg. of freedom    13
 Full point group                 CS      NOp   2
 Largest Abelian subgroup         CS      NOp   2
 Largest concise Abelian subgroup C1      NOp   1
                         Standard orientation:                         
 ---------------------------------------------------------------------
 Center     Atomic      Atomic             Coordinates (Angstroms)
 Number     Number       Type             X           Y           Z
 ---------------------------------------------------------------------
      1          6           0       -0.147871   -0.745494    0.000000
      2          6           0       -0.000000    0.718157   -0.000000
      3          6           0        1.203575    1.287230   -0.000000
      4          8           0       -1.208308   -1.324187    0.000000
      5          1           0        0.808078   -1.308429    0.000000
      6          1           0       -0.915020    1.297672   -0.000000
      7          1           0        1.334758    2.360227   -0.000000
      8          1           0        2.104417    0.684673   -0.000000
 ---------------------------------------------------------------------
 Rotational constants (GHZ):          48.3536426           4.6686610           4.2575812
 Basis read from chk: "/wrk/irikura/Gau-21180.chk" (5D, 7F)
 There are   140 symmetry adapted cartesian basis functions of A'  symmetry.
 There are    60 symmetry adapted cartesian basis functions of A"  symmetry.
 There are   120 symmetry adapted basis functions of A'  symmetry.
 There are    56 symmetry adapted basis functions of A"  symmetry.
   176 basis functions,   276 primitive gaussians,   200 cartesian basis functions
    15 alpha electrons       15 beta electrons
       nuclear repulsion energy       103.2870911440 Hartrees.
 NAtoms=    8 NActive=    8 NUniq=    8 SFac= 1.00D+00 NAtFMM=   60 NAOKFM=F Big=F
 Integral buffers will be    131072 words long.
 Raffenetti 2 integral format.
 Two-electron integral symmetry is turned on.
 One-electron integrals computed using PRISM.
 NBasis=   176 RedAO= T EigKep=  3.11D-04  NBF=   120    56
 NBsUse=   176 1.00D-06 EigRej= -1.00D+00 NBFU=   120    56
 Initial guess from the checkpoint file:  "/wrk/irikura/Gau-21180.chk"
 B after Tr=    -0.000000   -0.000000    0.000000
         Rot=    1.000000    0.000000   -0.000000   -0.000000 Ang=   0.00 deg.
 Initial guess orbital symmetries:
       Occupied  (A') (A') (A') (A') (A') (A') (A') (A') (A') (A')
                 (A') (A") (A') (A") (A')
       Virtual   (A") (A') (A") (A') (A') (A') (A') (A") (A') (A')
                 (A') (A") (A") (A') (A') (A') (A') (A') (A') (A')
                 (A') (A') (A") (A') (A') (A') (A') (A') (A") (A")
                 (A") (A') (A') (A') (A") (A') (A') (A') (A') (A")
                 (A') (A') (A") (A') (A') (A") (A") (A') (A") (A")
                 (A') (A') (A") (A') (A') (A") (A') (A') (A') (A")
                 (A') (A') (A') (A") (A') (A') (A') (A") (A') (A')
                 (A') (A') (A') (A") (A') (A') (A') (A') (A") (A")
                 (A') (A") (A") (A') (A') (A") (A') (A') (A") (A')
                 (A') (A") (A') (A') (A') (A") (A") (A') (A') (A")
                 (A') (A') (A") (A") (A') (A") (A') (A") (A') (A")
                 (A') (A") (A') (A') (A') (A") (A') (A") (A") (A')
                 (A") (A') (A") (A") (A') (A") (A') (A') (A') (A")
                 (A") (A') (A') (A') (A') (A") (A') (A') (A') (A")
                 (A') (A") (A') (A') (A") (A') (A') (A") (A') (A')
                 (A') (A') (A") (A') (A') (A') (A") (A') (A') (A')
                 (A')
 Keep R1 ints in memory in symmetry-blocked form, NReq=183150043.
 Requested convergence on RMS density matrix=1.00D-08 within 128 cycles.
 Requested convergence on MAX density matrix=1.00D-06.
 Requested convergence on             energy=1.00D-06.
 No special actions if energy rises.
 SCF Done:  E(RB3LYP) =  -191.996330522     A.U. after    1 cycles
            NFock=  1  Conv=0.82D-09     -V/T= 2.0035
 DoSCS=F DFT=T ScalE2(SS,OS)=  1.000000  1.000000
 Range of M.O.s used for correlation:     1   176
 NBasis=   176 NAE=    15 NBE=    15 NFC=     0 NFV=     0
 NROrb=    176 NOA=    15 NOB=    15 NVA=   161 NVB=   161

 **** Warning!!: The largest alpha MO coefficient is  0.14463359D+02

 Symmetrizing basis deriv contribution to polar:
 IMax=3 JMax=2 DiffMx= 0.00D+00
 G2DrvN: will do     9 centers at a time, making    1 passes.
 Calling FoFCou, ICntrl=  3107 FMM=F I1Cent=   0 AccDes= 0.00D+00.
 End of G2Drv F.D. properties file   721 does not exist.
 End of G2Drv F.D. properties file   722 does not exist.
 End of G2Drv F.D. properties file   788 does not exist.
          IDoAtm=11111111
          Differentiating once with respect to electric field.
                with respect to dipole field.
          Differentiating once with respect to nuclear coordinates.
 Keep R1 ints in memory in symmetry-blocked form, NReq=183153833.
          There are    27 degrees of freedom in the 1st order CPHF.  IDoFFX=6 NUNeed=     3.
     24 vectors produced by pass  0 Test12= 8.94D-15 3.70D-09 XBig12= 6.26D+01 6.14D+00.
 AX will form    24 AO Fock derivatives at one time.
     24 vectors produced by pass  1 Test12= 8.94D-15 3.70D-09 XBig12= 1.60D+01 8.64D-01.
     24 vectors produced by pass  2 Test12= 8.94D-15 3.70D-09 XBig12= 5.25D-01 1.86D-01.
     24 vectors produced by pass  3 Test12= 8.94D-15 3.70D-09 XBig12= 2.98D-03 1.04D-02.
     24 vectors produced by pass  4 Test12= 8.94D-15 3.70D-09 XBig12= 8.73D-06 5.22D-04.
     18 vectors produced by pass  5 Test12= 8.94D-15 3.70D-09 XBig12= 9.93D-09 1.84D-05.
      4 vectors produced by pass  6 Test12= 8.94D-15 3.70D-09 XBig12= 8.45D-12 5.05D-07.
      1 vectors produced by pass  7 Test12= 8.94D-15 3.70D-09 XBig12= 7.26D-15 1.47D-08.
 InvSVY:  IOpt=1 It=  1 EMax= 1.78D-15
 Solved reduced A of dimension   143 with    27 vectors.
 Isotropic polarizability for W=    0.000000       40.71 Bohr**3.
 End of Minotr F.D. properties file   721 does not exist.
 End of Minotr F.D. properties file   722 does not exist.
 End of Minotr F.D. properties file   788 does not exist.

 **********************************************************************

            Population analysis using the SCF Density.

 **********************************************************************

 Orbital symmetries:
       Occupied  (A') (A') (A') (A') (A') (A') (A') (A') (A') (A')
                 (A') (A") (A') (A") (A')
       Virtual   (A") (A') (A") (A') (A') (A') (A') (A") (A') (A')
                 (A') (A") (A") (A') (A') (A') (A') (A') (A') (A')
                 (A') (A') (A") (A') (A') (A') (A') (A') (A") (A")
                 (A") (A') (A') (A') (A") (A') (A') (A') (A') (A")
                 (A') (A') (A") (A') (A') (A") (A") (A') (A") (A")
                 (A') (A') (A") (A') (A') (A") (A') (A') (A') (A")
                 (A') (A') (A') (A") (A') (A') (A') (A") (A') (A')
                 (A') (A') (A') (A") (A') (A') (A') (A') (A") (A")
                 (A') (A") (A") (A') (A') (A") (A') (A') (A") (A')
                 (A') (A") (A') (A') (A') (A") (A") (A') (A') (A")
                 (A') (A') (A") (A") (A') (A") (A') (A") (A') (A")
                 (A') (A") (A') (A') (A') (A") (A') (A") (A") (A')
                 (A") (A') (A") (A") (A') (A") (A') (A') (A') (A")
                 (A") (A') (A') (A') (A') (A") (A') (A') (A') (A")
                 (A') (A") (A') (A') (A") (A') (A') (A") (A') (A')
                 (A') (A') (A") (A') (A') (A') (A") (A') (A') (A')
                 (A')
 The electronic state is 1-A'.
 Alpha  occ. eigenvalues --  -19.12869 -10.26851 -10.21073 -10.20133  -1.05684
 Alpha  occ. eigenvalues --   -0.81531  -0.65878  -0.58441  -0.49101  -0.48805
 Alpha  occ. eigenvalues --   -0.43352  -0.41369  -0.40454  -0.30860  -0.27185
 Alpha virt. eigenvalues --   -0.08082   0.01800   0.02385   0.02939   0.05851
 Alpha virt. eigenvalues --    0.08472   0.11309   0.15096   0.15282   0.19013
[...]
 Frc consts  --      6.7722                17.7612                 5.2953
 IR Inten    --      2.0368               266.7064                92.9945
  Atom  AN      X      Y      Z        X      Y      Z        X      Y      Z
     1   6    -0.03  -0.01  -0.00     0.59   0.37   0.00    -0.07   0.05  -0.00
     2   6    -0.31  -0.21   0.00    -0.09  -0.06   0.00    -0.00  -0.00  -0.00
     3   6     0.32   0.17  -0.00     0.03   0.00  -0.00     0.00   0.00  -0.00
     4   8     0.06   0.04  -0.00    -0.40  -0.22  -0.00    -0.00  -0.00  -0.00
     5   1    -0.11  -0.11   0.00    -0.01  -0.46  -0.00     0.85  -0.53   0.00
     6   1    -0.00   0.36   0.00     0.13   0.25   0.00    -0.01   0.01   0.00
     7   1    -0.40   0.29   0.00    -0.02   0.01  -0.00     0.01  -0.00   0.00
     8   1    -0.12  -0.55   0.00    -0.02  -0.05   0.00    -0.00   0.01  -0.00
                     16                     17                     18
                     A'                     A'                     A'
 Frequencies --   3137.9158              3175.3749              3228.5699
 Red. masses --      1.0596                 1.0932                 1.1150
 Frc consts  --      6.1470                 6.4946                 6.8474
 IR Inten    --      5.1803                 1.6913                 4.4973
  Atom  AN      X      Y      Z        X      Y      Z        X      Y      Z
     1   6    -0.00   0.00   0.00    -0.00  -0.00   0.00     0.00   0.00   0.00
     2   6    -0.00   0.01  -0.00    -0.07   0.04  -0.00     0.02  -0.01  -0.00
     3   6    -0.07  -0.01   0.00     0.02  -0.01   0.00     0.03  -0.09   0.00
     4   8    -0.00  -0.00   0.00     0.00   0.00   0.00    -0.00  -0.00   0.00
     5   1     0.01  -0.01  -0.00     0.01  -0.00  -0.00    -0.00   0.01  -0.00
     6   1     0.07  -0.05  -0.00     0.82  -0.53  -0.00    -0.15   0.09  -0.00
     7   1     0.06   0.57  -0.00     0.01   0.10   0.00     0.10   0.81  -0.00
     8   1     0.67  -0.46  -0.00    -0.14   0.09  -0.00    -0.46   0.30  -0.00

 -------------------
 - Thermochemistry -
 -------------------
 Temperature   298.150 Kelvin.  Pressure   1.00000 Atm.
 Atom     1 has atomic number  6 and mass  12.00000
 Atom     2 has atomic number  6 and mass  12.00000
 Atom     3 has atomic number  6 and mass  12.00000
 Atom     4 has atomic number  8 and mass  15.99491
 Atom     5 has atomic number  1 and mass   1.00783
 Atom     6 has atomic number  1 and mass   1.00783
 Atom     7 has atomic number  1 and mass   1.00783
 Atom     8 has atomic number  1 and mass   1.00783
 Molecular mass:    56.02621 amu.
 Principal axes and moments of inertia in atomic units:
                           1         2         3
     Eigenvalues --    37.32379 386.56506 423.88885
           X            0.62427   0.78121   0.00000
           Y            0.78121  -0.62427   0.00000
           Z            0.00000   0.00000   1.00000
 This molecule is an asymmetric top.
 Rotational symmetry number  1.
 Rotational temperatures (Kelvin)      2.32061     0.22406     0.20433
 Rotational constants (GHZ):          48.35364     4.66866     4.25758
 Zero-point vibrational energy     160743.1 (Joules/Mol)
                                   38.41853 (Kcal/Mol)
 Warning -- explicit consideration of   4 degrees of freedom as
           vibrations may cause significant error
 Vibrational temperatures:    240.90   465.69   825.76   882.50  1328.65
          (Kelvin)           1444.95  1483.00  1493.64  1687.45  1874.54
                             2004.60  2099.31  2413.75  2547.25  4145.32
                             4514.76  4568.66  4645.19
 
 Zero-point correction=                           0.061224 (Hartree/Particle)
 Thermal correction to Energy=                    0.065586
 Thermal correction to Enthalpy=                  0.066530
 Thermal correction to Gibbs Free Energy=         0.034936
 Sum of electronic and zero-point Energies=           -191.935107
 Sum of electronic and thermal Energies=              -191.930744
 Sum of electronic and thermal Enthalpies=            -191.929800
 Sum of electronic and thermal Free Energies=         -191.961395
 
                     E (Thermal)             CV                S
                      KCal/Mol        Cal/Mol-Kelvin    Cal/Mol-Kelvin
 Total                   41.156             13.720             66.497
 Electronic               0.000              0.000              0.000
 Translational            0.889              2.981             37.991
 Rotational               0.889              2.981             23.329
 Vibrational             39.379              7.758              5.176
 Vibration     1          0.624              1.883              2.464
 Vibration     2          0.708              1.628              1.291
 Vibration     3          0.930              1.088              0.497
 Vibration     4          0.973              1.004              0.427
                       Q            Log10(Q)             Ln(Q)
 Total Bot       0.852597D-16        -16.069256        -37.000829
 Total V=0       0.123516D+13         12.091724         27.842223
 Vib (Bot)       0.184768D-27        -27.733373        -63.858450
 Vib (Bot)    1  0.120460D+01          0.080842          0.186147
 Vib (Bot)    2  0.579506D+00         -0.236942         -0.545579
 Vib (Bot)    3  0.267115D+00         -0.573302         -1.320077
 Vib (Bot)    4  0.240087D+00         -0.619631         -1.426753
 Vib (V=0)       0.267675D+01          0.427607          0.984602
 Vib (V=0)    1  0.180425D+01          0.256296          0.590143
 Vib (V=0)    2  0.126539D+01          0.102226          0.235383
 Vib (V=0)    3  0.106688D+01          0.028115          0.064736
 Vib (V=0)    4  0.105465D+01          0.023110          0.053213
 Electronic      0.100000D+01          0.000000          0.000000
 Translational   0.164832D+08          7.217041         16.617851
 Rotational      0.279947D+05          4.447076         10.239770
 ***** Axes restored to original set *****
 -------------------------------------------------------------------
 Center     Atomic                   Forces (Hartrees/Bohr)
 Number     Number              X              Y              Z
 -------------------------------------------------------------------
      1        6           0.000063700   -0.000096401    0.000000000
      2        6           0.000075033    0.000057789   -0.000000000
      3        6          -0.000067285   -0.000032893    0.000000000
      4        8          -0.000014661    0.000045194   -0.000000000
      5        1          -0.000037893    0.000015276   -0.000000000
      6        1          -0.000033382    0.000006589   -0.000000000
      7        1          -0.000011570   -0.000002314   -0.000000000
      8        1           0.000026058    0.000006760    0.000000000
 -------------------------------------------------------------------
 Cartesian Forces:  Max     0.000096401 RMS     0.000037571
 FormGI is forming the generalized inverse of G from B-inverse, IUseBI=4.

 GradGradGradGradGradGradGradGradGradGradGradGradGradGradGradGradGradGrad
 Berny optimization.
 Internal  Forces:  Max     0.000075645 RMS     0.000030211
 Search for a local minimum.
 Step number   1 out of a maximum of    2
 All quantities printed in internal units (Hartrees-Bohrs-Radians)
 Second derivative matrix not updated -- analytic derivatives used.
 ITU=  0
     Eigenvalues ---    0.00637   0.02191   0.03043   0.04356   0.07570
     Eigenvalues ---    0.10022   0.10522   0.11326   0.13905   0.16392
     Eigenvalues ---    0.22301   0.29791   0.30391   0.35528   0.35762
     Eigenvalues ---    0.36177   0.61326   0.84323
 Angle between quadratic step and forces=  26.03 degrees.
 Linear search not attempted -- first point.
 Iteration  1 RMS(Cart)=  0.00054001 RMS(Int)=  0.00000014
 Iteration  2 RMS(Cart)=  0.00000015 RMS(Int)=  0.00000000
 ClnCor:  largest displacement from symmetrization is 6.10D-15 for atom     6.
 Variable       Old X    -DE/DX   Delta X   Delta X   Delta X     New X
                                 (Linear)    (Quad)   (Total)
    R1        2.77998   0.00003   0.00000   0.00013   0.00013   2.78011
    R2        2.28290  -0.00001   0.00000   0.00001   0.00001   2.28292
    R3        2.09643  -0.00004   0.00000  -0.00017  -0.00017   2.09626
    R4        2.51585  -0.00006   0.00000  -0.00012  -0.00012   2.51572
    R5        2.04676   0.00003   0.00000   0.00010   0.00010   2.04685
    R6        2.04277  -0.00000   0.00000   0.00000   0.00000   2.04277
    R7        2.04806   0.00002   0.00000   0.00005   0.00005   2.04810
    A1        2.17103  -0.00008   0.00000  -0.00046  -0.00046   2.17057
    A2        2.00231   0.00004   0.00000   0.00034   0.00034   2.00265
    A3        2.10985   0.00003   0.00000   0.00012   0.00012   2.10996
    A4        2.11315   0.00004   0.00000   0.00042   0.00042   2.11357
    A5        2.03468  -0.00003   0.00000  -0.00041  -0.00041   2.03427
    A6        2.13536  -0.00001   0.00000  -0.00001  -0.00001   2.13534
    A7        2.13412  -0.00003   0.00000  -0.00024  -0.00024   2.13388
    A8        2.11039   0.00003   0.00000   0.00032   0.00032   2.11071
    A9        2.03868  -0.00001   0.00000  -0.00008  -0.00008   2.03860
    D1        3.14159  -0.00000   0.00000   0.00000   0.00000   3.14159
    D2       -0.00000   0.00000   0.00000   0.00000   0.00000   0.00000
    D3        0.00000   0.00000   0.00000   0.00000   0.00000   0.00000
    D4        3.14159   0.00000   0.00000   0.00000   0.00000   3.14159
    D5        3.14159  -0.00000   0.00000  -0.00000   0.00000   3.14159
    D6       -0.00000   0.00000   0.00000  -0.00000   0.00000   0.00000
    D7        0.00000   0.00000   0.00000  -0.00000  -0.00000   0.00000
    D8        3.14159   0.00000   0.00000  -0.00000   0.00000   3.14159
         Item               Value     Threshold  Converged?
 Maximum Force            0.000076     0.000450     YES
 RMS     Force            0.000030     0.000300     YES
 Maximum Displacement     0.001233     0.001800     YES
 RMS     Displacement     0.000540     0.001200     YES
 Predicted change in Energy=-6.391586D-08
 Optimization completed.
    -- Stationary point found.
                           ----------------------------
                           !   Optimized Parameters   !
                           ! (Angstroms and Degrees)  !
 --------------------------                            --------------------------
 ! Name  Definition              Value          Derivative Info.                !
 --------------------------------------------------------------------------------
 ! R1    R(1,2)                  1.4711         -DE/DX =    0.0                 !
 ! R2    R(1,4)                  1.2081         -DE/DX =    0.0                 !
 ! R3    R(1,5)                  1.1094         -DE/DX =    0.0                 !
 ! R4    R(2,3)                  1.3313         -DE/DX =   -0.0001              !
 ! R5    R(2,6)                  1.0831         -DE/DX =    0.0                 !
 ! R6    R(3,7)                  1.081          -DE/DX =    0.0                 !
 ! R7    R(3,8)                  1.0838         -DE/DX =    0.0                 !
 ! A1    A(2,1,4)              124.3908         -DE/DX =   -0.0001              !
 ! A2    A(2,1,5)              114.7239         -DE/DX =    0.0                 !
 ! A3    A(4,1,5)              120.8854         -DE/DX =    0.0                 !
 ! A4    A(1,2,3)              121.0746         -DE/DX =    0.0                 !
 ! A5    A(1,2,6)              116.5786         -DE/DX =    0.0                 !
 ! A6    A(3,2,6)              122.3469         -DE/DX =    0.0                 !
 ! A7    A(2,3,7)              122.2759         -DE/DX =    0.0                 !
 ! A8    A(2,3,8)              120.9165         -DE/DX =    0.0                 !
 ! A9    A(7,3,8)              116.8075         -DE/DX =    0.0                 !
 ! D1    D(4,1,2,3)            180.0            -DE/DX =    0.0                 !
 ! D2    D(4,1,2,6)              0.0            -DE/DX =    0.0                 !
 ! D3    D(5,1,2,3)              0.0            -DE/DX =    0.0                 !
 ! D4    D(5,1,2,6)            180.0            -DE/DX =    0.0                 !
 ! D5    D(1,2,3,7)            180.0            -DE/DX =    0.0                 !
 ! D6    D(1,2,3,8)              0.0            -DE/DX =    0.0                 !
 ! D7    D(6,2,3,7)              0.0            -DE/DX =    0.0                 !
 ! D8    D(6,2,3,8)            180.0            -DE/DX =    0.0                 !
 --------------------------------------------------------------------------------
 GradGradGradGradGradGradGradGradGradGradGradGradGradGradGradGradGradGrad


 ----------------------------------------------------------------------

 Electric dipole moment (input orientation):
 (Debye = 10**-18 statcoulomb cm , SI units = C m)
                  (au)            (Debye)         (10**-30 SI)
   Tot        0.133535D+01      0.339412D+01      0.113216D+02
   x          0.101938D+01      0.259101D+01      0.864268D+01
   y          0.862564D+00      0.219242D+01      0.731312D+01
   z          0.000000D+00      0.000000D+00      0.000000D+00

 Dipole polarizability, Alpha (input orientation).
 (esu units = cm**3 , SI units = C**2 m**2 J**-1)
 Alpha(0;0):
               (au)            (10**-24 esu)      (10**-40 SI)
   iso        0.407083D+02      0.603235D+01      0.671190D+01
   aniso      0.329197D+02      0.487819D+01      0.542772D+01
   xx         0.510594D+02      0.756622D+01      0.841856D+01
   yx         0.123629D+02      0.183200D+01      0.203838D+01
   yy         0.468480D+02      0.694216D+01      0.772420D+01
   zx         0.000000D+00      0.000000D+00      0.000000D+00
   zy         0.000000D+00      0.000000D+00      0.000000D+00
   zz         0.242176D+02      0.358868D+01      0.399294D+01

 ----------------------------------------------------------------------

 Dipole orientation:
     6          0.57699388         -0.68189443         -1.12516350
     6         -0.66833282          0.78983926          0.87769790
     6         -0.24723772          0.29218685          3.30761684
     8          0.27791626         -0.32844291         -3.36062299
     1          1.85597818         -2.19340484         -0.43627781
     1         -1.93041769          2.28137784          0.26805311
     1         -1.14218829          1.34984416          4.80872630
     1          1.02509168         -1.21145877          3.86865753

 Electric dipole moment (dipole orientation):
 (Debye = 10**-18 statcoulomb cm , SI units = C m)
                  (au)            (Debye)         (10**-30 SI)
   Tot        0.133535D+01      0.339412D+01      0.113216D+02
   x          0.000000D+00      0.000000D+00      0.000000D+00
   y          0.000000D+00      0.000000D+00      0.000000D+00
   z          0.133535D+01      0.339412D+01      0.113216D+02

 Dipole polarizability, Alpha (dipole orientation).
 (esu units = cm**3 , SI units = C**2 m**2 J**-1)
 Alpha(0;0):
               (au)            (10**-24 esu)      (10**-40 SI)
   iso        0.407083D+02      0.603235D+01      0.671190D+01
   aniso      0.329197D+02      0.487819D+01      0.542772D+01
   xx         0.293060D+02      0.434270D+01      0.483190D+01
   yx        -0.601349D+01     -0.891107D+00     -0.991490D+00
   yy         0.313244D+02      0.464179D+01      0.516469D+01
   zx         0.196977D-01      0.291890D-02      0.324771D-02
   zy        -0.232789D-01     -0.344957D-02     -0.383817D-02
   zz         0.614947D+02      0.911257D+01      0.101391D+02

 ----------------------------------------------------------------------
 1\1\GINC-GAMBA\Freq\RB3LYP\Gen\C3H4O1\IRIKURA\18-Jun-2022\0\\#N Geom=A
 llCheck Guess=TCheck SCRF=Check GenChk RB3LYP/ChkBas Freq\\propenal, B
 3LYP/pcseg-2\\0,1\C,-0.1491944177,-0.7454464737,0.\C,0.0008925479,0.71
 79797068,0.\C,1.2053281639,1.2852284924,0.\O,-1.2105063983,-1.32253294
 26,0.\H,0.8059004865,-1.3098283727,0.\H,-0.9132490312,1.2988791025,0.\
 H,1.338136081,2.3580260084,0.\H,2.1052565679,0.6813084789,0.\\Version=
 ES64L-G16RevB.01\State=1-A'\HF=-191.9963305\RMSD=8.226e-10\RMSF=3.757e
 -05\ZeroPoint=0.0612238\Thermal=0.0655862\Dipole=1.0193821,0.8625635,0
 .\DipoleDeriv=1.0569403,0.2354515,0.,0.5290296,1.243107,0.,0.,0.,0.214
 2521,-0.0707197,-0.1547798,0.,-0.3317044,-0.4663943,0.,0.,0.,-0.142974
 1,0.1311682,0.0648335,0.,-0.0302201,0.0899709,0.,0.,0.,-0.2184962,-0.9
 670814,-0.3849786,0.,-0.3635926,-0.7690292,0.,0.,0.,-0.3593979,-0.1943
 064,0.1465214,0.,0.0852612,-0.0610402,0.,0.,0.,0.0694235,-0.0183997,0.
 0513583,0.,0.0349838,0.0008828,0.,0.,0.,0.1576664,0.0686057,0.0060452,
 0.,-0.0245732,-0.0442773,0.,0.,0.,0.1311991,-0.0062069,0.0355485,0.,0.
 1008157,0.0067804,0.,0.,0.,0.1483271\Polar=51.0593892,12.3629495,46.84
 80198,0.,0.,24.2175852\Quadrupole=-0.1256874,0.3432148,-0.2175274,-2.0
 959268,0.,0.\PG=CS [SG(C3H4O1)]\NImag=0\\0.88258721,0.13629378,0.61438
 043,0.,0.,0.18709399,-0.09158842,0.03110830,0.,0.84779802,0.04189646,-
 0.21245533,0.,0.04449373,0.58780236,0.,0.,-0.07885799,0.,0.,0.11666459
 ,-0.01503666,-0.02468002,0.,-0.46296926,-0.14871011,0.,0.78834926,-0.0
 4107775,-0.01648178,0.,-0.15839471,-0.18980076,0.,0.08360677,0.6881680
 1,0.,0.,0.00305973,0.,0.,-0.05091370,0.,0.,0.12017395,-0.59417462,-0.2
 4900495,0.,-0.01950649,-0.04795384,0.,0.01129591,0.00075107,0.,0.65548
 327,-0.25451824,-0.23936191,0.,-0.06358898,-0.03431167,0.,0.00625670,-
 0.00773708,0.,0.31522457,0.25453259,0.,0.,-0.06192381,0.,0.,0.02194554
 ,0.,0.,0.00219600,0.,0.,0.02286537,-0.18102095,0.10424989,0.,0.0002325
 8,-0.00197345,0.,0.00152628,-0.00003665,0.,-0.05467521,-0.00126733,0.,
 0.23259867,0.09286063,-0.13372213,0.,0.02754709,-0.01558346,0.,0.00153
 760,0.00060974,0.,-0.01720945,0.02277623,0.,-0.10147803,0.13065791,0.,
 0.,-0.05851381,0.,0.,0.01643713,0.,0.,-0.00115520,0.,0.,0.01877612,0.,
 0.,0.02276011,0.00329994,-0.00423318,0.,-0.25149319,0.12708113,0.,-0.0
 1982888,0.01642586,0.,0.00149918,0.00116188,0.,0.00021233,-0.00105894,
 0.,0.26779347,0.03076194,-0.01376574,0.,0.12784293,-0.14008796,0.,-0.0
 1537935,0.01202256,0.,-0.00341698,0.00465977,0.,-0.00055190,-0.0053111
 2,0.,-0.13681937,0.14237383,0.,0.,0.00374013,0.,0.,-0.04083742,0.,0.,0
 .00573191,0.,0.,-0.00198541,0.,0.,0.00245541,0.,0.,0.02696235,-0.00466
 292,0.00254100,0.,0.00086275,-0.03243258,0.,-0.06022796,-0.02758903,0.
 ,-0.00057827,-0.00262645,0.,0.00057038,-0.00071319,0.,0.00117882,0.000
 56107,0.,0.05721130,-0.00208536,0.00131706,0.,0.00128109,-0.00837475,0
 .,-0.03210629,-0.33884570,0.,-0.00019003,-0.00077963,0.,0.00020912,0.0
 0035644,0.,-0.00022402,0.00102720,0.,0.03689040,0.35626207,0.,0.,0.014
 99000,0.,0.,0.00945253,0.,0.,-0.04042669,0.,0.,-0.00362337,0.,0.,-0.00
 116882,0.,0.,-0.00737747,0.,0.,0.02410781,0.00059642,0.00372518,0.,-0.
 02333600,0.01759866,0.,-0.24310868,0.12631443,0.,0.00065624,-0.0006421
 4,0.,0.00055592,-0.00148571,0.,-0.00266165,-0.00299834,0.,0.00564590,-
 0.00377493,0.,0.26165185,-0.00413145,0.00008938,0.,-0.01028946,0.01281
 158,0.,0.12947470,-0.14793500,0.,0.00179961,0.00022170,0.,0.00084835,0
 .00021638,0.,-0.00233337,-0.00091856,0.,0.02336878,-0.01096268,0.,-0.1
 3873716,0.14647720,0.,0.,-0.00958824,0.,0.,0.00610932,0.,0.,-0.0386660
 0,0.,0.,0.00174957,0.,0.,0.00040906,0.,0.,0.01131049,0.,0.,0.00404601,
 0.,0.,0.02462979\\-0.00006370,0.00009640,0.,-0.00007503,-0.00005779,0.
 ,0.00006728,0.00003289,0.,0.00001466,-0.00004519,0.,0.00003789,-0.0000
 1528,0.,0.00003338,-0.00000659,0.,0.00001157,0.00000231,0.,-0.00002606
 ,-0.00000676,0.\\\@


 IF I HAVE SEEN FARTHER, IT IS BY STANDING ON THE
 SHOULDERS OF GIANTS. -- SIR ISAAC NEWTON
 Job cpu time:       0 days  0 hours  8 minutes 46.5 seconds.
 Elapsed time:       0 days  0 hours  0 minutes 44.1 seconds.
 File lengths (MBytes):  RWF=     27 Int=      0 D2E=      0 Chk=      4 Scr=      1
 Normal termination of Gaussian 16 at Sat Jun 18 10:45:58 2022.
