 Entering Gaussian System, Link 0=g16
 AtFile(1): pcseg2.gbs
            -H     0
            S   4   1.00
                  0.754732D+02           0.427821D-02
                  0.113575D+02           0.328672D-01
                  0.260081D+01           0.159578D+00
                  0.735503D+00           0.500000D+00
            S   1   1.00
                  0.231761D+00           1.0000000
            S   1   1.00
                  0.741675D-01           1.0000000
            P   1   1.00
                  0.160000D+01           1.0000000
            P   1   1.00
                  0.450000D+00           1.0000000
            D   1   1.00
                  0.125000D+01           1.0000000
            ****
            -C     0
            S   7   1.00
                  0.731999D+04           0.695369D-03
                  0.109818D+04           0.537138D-02
                  0.250014D+03           0.274734D-01
                  0.707586D+02           0.105078D+00
                  0.228595D+02           0.291262D+00
                  0.803936D+01           0.500000D+00
                  0.289309D+01           0.362224D+00
            S   2   1.00
                  0.521640D+01          -0.957844D-01
                  0.556124D+00           0.500000D+00
            S   1   1.00
                  0.228813D+00           1.0000000
            S   1   1.00
                  0.936338D-01           1.0000000
            P   4   1.00
                  0.339855D+02           0.818395D-02
                  0.772957D+01           0.586921D-01
                  0.224954D+01           0.222514D+00
                  0.767681D+00           0.500000D+00
            P   1   1.00
                  0.263283D+00           1.0000000
            P   1   1.00
                  0.848744D-01           1.0000000
            D   1   1.00
                  0.140000D+01           1.0000000
            D   1   1.00
                  0.450000D+00           1.0000000
            F   1   1.00
                  0.950000D+00           1.0000000
            ****
            -O     0
            S   7   1.00
                  0.135887D+05           0.665492D-03
                  0.203847D+04           0.514222D-02
                  0.464041D+03           0.263472D-01
                  0.131339D+03           0.101500D+00
                  0.425340D+02           0.285877D+00
                  0.150429D+02           0.500000D+00
                  0.546616D+01           0.368211D+00
            S   2   1.00
                  0.100915D+02          -0.100084D+00
                  0.110429D+01           0.500000D+00
            S   1   1.00
                  0.448082D+00           1.0000000
            S   1   1.00
                  0.175325D+00           1.0000000
            P   4   1.00
                  0.608220D+02           0.908253D-02
                  0.140332D+02           0.645878D-01
                  0.418244D+01           0.241502D+00
                  0.142490D+01           0.500000D+00
            P   1   1.00
                  0.478741D+00           1.0000000
            P   1   1.00
                  0.146257D+00           1.0000000
            D   1   1.00
                  0.220000D+01           1.0000000
            D   1   1.00
                  0.650000D+00           1.0000000
            F   1   1.00
                  0.110000D+01           1.0000000
            ****
            -N     0
            S   7   1.00
                  0.101643D+05           0.682757D-03
                  0.152481D+04           0.527488D-02
                  0.347119D+03           0.270037D-01
                  0.982389D+02           0.103673D+00
                  0.317799D+02           0.289575D+00
                  0.112240D+02           0.500000D+00
                  0.406611D+01           0.364621D+00
            S   2   1.00
                  0.747898D+01          -0.975681D-01
                  0.805040D+00           0.500000D+00
            S   1   1.00
                  0.324626D+00           1.0000000
            S   1   1.00
                  0.128132D+00           1.0000000
            P   4   1.00
                  0.482704D+02           0.829547D-02
                  0.110815D+02           0.596223D-01
                  0.326643D+01           0.227889D+00
                  0.111680D+01           0.500000D+00
            P   1   1.00
                  0.382049D+00           1.0000000
            P   1   1.00
                  0.121222D+00           1.0000000
            D   1   1.00
                  0.180000D+01           1.0000000
            D   1   1.00
                  0.550000D+00           1.0000000
            F   1   1.00
                  0.102000D+01           1.0000000
            ****
            -F     0
            S   7   1.00
                  0.174507D+05           0.655972D-03
                  0.261768D+04           0.506944D-02
                  0.595857D+03           0.259899D-01
                  0.168651D+03           0.100353D+00
                  0.546654D+02           0.284095D+00
                  0.193717D+02           0.500000D+00
                  0.706202D+01           0.370721D+00
            S   2   1.00
                  0.131197D+02          -0.101997D+00
                  0.145046D+01           0.500000D+00
            S   1   1.00
                  0.588255D+00           1.0000000
            S   1   1.00
                  0.227960D+00           1.0000000
            P   4   1.00
                  0.779407D+02           0.931135D-02
                  0.180425D+02           0.663964D-01
                  0.542342D+01           0.246386D+00
                  0.184876D+01           0.500000D+00
            P   1   1.00
                  0.617455D+00           1.0000000
            P   1   1.00
                  0.185496D+00           1.0000000
            D   1   1.00
                  0.280000D+01           1.0000000
            D   1   1.00
                  0.800000D+00           1.0000000
            F   1   1.00
                  0.120000D+01           1.0000000
            ****
            -Cl     0
            S   8   1.00
                  0.154272D+06           0.222473D-03
                  0.231232D+05           0.172590D-02
                  0.526257D+04           0.899286D-02
                  0.148995D+04           0.367724D-01
                  0.485417D+03           0.121446D+00
                  0.174634D+03           0.304148D+00
                  0.672393D+02           0.500000D+00
                  0.265780D+02           0.360252D+00
            S   3   1.00
                  0.131826D+03          -0.531330D-01
                  0.400703D+02          -0.233346D+00
                  0.789448D+01           0.500000D+00
            S   2   1.00
                  0.427711D+01           0.500000D+00
                  0.196233D+01           0.370517D+00
            S   1   1.00
                  0.520793D+00           1.0000000
            S   1   1.00
                  0.181633D+00           1.0000000
            P   7   1.00
                  0.124440D+04           0.988206D-03
                  0.295109D+03           0.829674D-02
                  0.947224D+02           0.430906D-01
                  0.352588D+02           0.148443D+00
                  0.144211D+02           0.344744D+00
                  0.610371D+01           0.500000D+00
                  0.258886D+01           0.348278D+00
            P   2   1.00
                  0.109447D+02          -0.196768D-01
                  0.104413D+01           0.500000D+00
            P   1   1.00
                  0.376184D+00           1.0000000
            P   1   1.00
                  0.120613D+00           1.0000000
            D   1   1.00
                  0.231000D+01           1.0000000
            D   1   1.00
                  0.520000D+00           1.0000000
            F   1   1.00
                  0.720000D+00           1.0000000
            ****
            -S     0
            S   8   1.00
                  0.134700D+06           0.226231D-03
                  0.201904D+05           0.175488D-02
                  0.459528D+04           0.914190D-02
                  0.130109D+04           0.373551D-01
                  0.423902D+03           0.123121D+00
                  0.152485D+03           0.306801D+00
                  0.586925D+02           0.500000D+00
                  0.231461D+02           0.354358D+00
            S   3   1.00
                  0.116327D+03          -0.491772D-01
                  0.352841D+02          -0.215962D+00
                  0.677831D+01           0.500000D+00
            S   2   1.00
                  0.360404D+01           0.500000D+00
                  0.164871D+01           0.366278D+00
            S   1   1.00
                  0.421821D+00           1.0000000
            S   1   1.00
                  0.147554D+00           1.0000000
            P   7   1.00
                  0.104863D+04           0.105273D-02
                  0.248717D+03           0.879338D-02
                  0.797887D+02           0.453358D-01
                  0.296023D+02           0.154476D+00
                  0.120627D+02           0.352366D+00
                  0.507628D+01           0.500000D+00
                  0.213375D+01           0.346429D+00
            P   2   1.00
                  0.928958D+01          -0.185932D-01
                  0.837819D+00           0.500000D+00
            P   1   1.00
                  0.301495D+00           1.0000000
            P   1   1.00
                  0.974740D-01           1.0000000
            D   1   1.00
                  0.210000D+01           1.0000000
            D   1   1.00
                  0.480000D+00           1.0000000
            F   1   1.00
                  0.660000D+00           1.0000000
            ****
            -Si     0
            S    8   1.00
                  0.996133D+05           0.235546D-03
                  0.149311D+05           0.182707D-02
                  0.339820D+04           0.951425D-02
                  0.962140D+03           0.388172D-01
                  0.313430D+03           0.127328D+00
                  0.112683D+03           0.313522D+00
                  0.433372D+02           0.500000D+00
                  0.170029D+02           0.340347D+00
            S    3   1.00
                  0.884208D+02          -0.404451D-01
                  0.266756D+02          -0.178059D+00
                  0.479640D+01           0.500000D+00
            S    2   1.00
                  0.239385D+01           0.500000D+00
                  0.108333D+01           0.338016D+00
            S    1   1.00
                  0.252420D+00           1.0000000
            S    1   1.00
                  0.891210D-01           1.0000000
            P    7   1.00
                  0.709901D+03           0.123028D-02
                  0.168426D+03           0.101366D-01
                  0.539946D+02           0.511840D-01
                  0.198646D+02           0.169967D+00
                  0.801369D+01           0.370717D+00
                  0.331870D+01           0.500000D+00
                  0.136112D+01           0.344128D+00
            P    2   1.00
                  0.622158D+01          -0.166609D-01
                  0.503049D+00           0.500000D+00
            P    1   1.00
                  0.179848D+00           1.0000000
            P    1   1.00
                  0.591912D-01           1.0000000
            D    1   1.00
                  0.168000D+01           1.0000000
            D    1   1.00
                  0.380000D+00           1.0000000
            F    1   1.00
                  0.540000D+00           1.0000000
            ****
            -P     0
            S    8   1.00
                  0.116416D+06           0.230715D-03
                  0.174500D+05           0.178960D-02
                  0.397149D+04           0.932116D-02
                  0.112447D+04           0.380591D-01
                  0.366347D+03           0.125148D+00
                  0.131757D+03           0.310022D+00
                  0.506988D+02           0.500000D+00
                  0.199436D+02           0.347528D+00
            S    3   1.00
                  0.101878D+03          -0.446755D-01
                  0.308249D+02          -0.196376D+00
                  0.573688D+01           0.500000D+00
            S    2   1.00
                  0.296868D+01           0.500000D+00
                  0.135315D+01           0.355098D+00
            S    1   1.00
                  0.332196D+00           1.0000000
            S    1   1.00
                  0.116229D+00           1.0000000
            P    7   1.00
                  0.873928D+03           0.112375D-02
                  0.207298D+03           0.933330D-02
                  0.664628D+02           0.477213D-01
                  0.245665D+02           0.160733D+00
                  0.996820D+01           0.359760D+00
                  0.416536D+01           0.500000D+00
                  0.173022D+01           0.346593D+00
            P    2   1.00
                  0.772530D+01          -0.175718D-01
                  0.657252D+00           0.500000D+00
            P    1   1.00
                  0.239903D+00           1.0000000
            P    1   1.00
                  0.800988D-01           1.0000000
            D    1   1.00
                  0.189000D+01           1.0000000
            D    1   1.00
                  0.430000D+00           1.0000000
            F    1   1.00
                  0.600000D+00           1.0000000
            ****
            
 Initial command:
 /usr/local/apps/g16_b01_avx/g16/l1.exe "/wrk/irikura/Gau-24867.inp" -scrdir="/wrk/irikura/"
 Entering Link 1 = /usr/local/apps/g16_b01_avx/g16/l1.exe PID=     24869.
  
 Copyright (c) 1988-2017, Gaussian, Inc.  All Rights Reserved.
  
 This is part of the Gaussian(R) 16 program.  It is based on
 the Gaussian(R) 09 system (copyright 2009, Gaussian, Inc.),
 the Gaussian(R) 03 system (copyright 2003, Gaussian, Inc.),
 the Gaussian(R) 98 system (copyright 1998, Gaussian, Inc.),
 the Gaussian(R) 94 system (copyright 1995, Gaussian, Inc.),
 the Gaussian 92(TM) system (copyright 1992, Gaussian, Inc.),
 the Gaussian 90(TM) system (copyright 1990, Gaussian, Inc.),
 the Gaussian 88(TM) system (copyright 1988, Gaussian, Inc.),
 the Gaussian 86(TM) system (copyright 1986, Carnegie Mellon
 University), and the Gaussian 82(TM) system (copyright 1983,
 Carnegie Mellon University). Gaussian is a federally registered
 trademark of Gaussian, Inc.
  
 This software contains proprietary and confidential information,
 including trade secrets, belonging to Gaussian, Inc.
  
 This software is provided under written license and may be
 used, copied, transmitted, or stored only in accord with that
 written license.
  
 The following legend is applicable only to US Government
 contracts under FAR:
  
                    RESTRICTED RIGHTS LEGEND
  
 Use, reproduction and disclosure by the US Government is
 subject to restrictions as set forth in subparagraphs (a)
 and (c) of the Commercial Computer Software - Restricted
 Rights clause in FAR 52.227-19.
  
 Gaussian, Inc.
 340 Quinnipiac St., Bldg. 40, Wallingford CT 06492
  
  
 ---------------------------------------------------------------
 Warning -- This program may not be used in any manner that
 competes with the business of Gaussian, Inc. or will provide
 assistance to any competitor of Gaussian, Inc.  The licensee
 of this program is prohibited from giving any competitor of
 Gaussian, Inc. access to this program.  By using this program,
 the user acknowledges that Gaussian, Inc. is engaged in the
 business of creating and licensing software in the field of
 computational chemistry and represents and warrants to the
 licensee that it is not a competitor of Gaussian, Inc. and that
 it will not use this program in any manner prohibited above.
 ---------------------------------------------------------------
  

 Cite this work as:
 Gaussian 16, Revision B.01,
 M. J. Frisch, G. W. Trucks, H. B. Schlegel, G. E. Scuseria, 
 M. A. Robb, J. R. Cheeseman, G. Scalmani, V. Barone, 
 G. A. Petersson, H. Nakatsuji, X. Li, M. Caricato, A. V. Marenich, 
 J. Bloino, B. G. Janesko, R. Gomperts, B. Mennucci, H. P. Hratchian, 
 J. V. Ortiz, A. F. Izmaylov, J. L. Sonnenberg, D. Williams-Young, 
 F. Ding, F. Lipparini, F. Egidi, J. Goings, B. Peng, A. Petrone, 
 T. Henderson, D. Ranasinghe, V. G. Zakrzewski, J. Gao, N. Rega, 
 G. Zheng, W. Liang, M. Hada, M. Ehara, K. Toyota, R. Fukuda, 
 J. Hasegawa, M. Ishida, T. Nakajima, Y. Honda, O. Kitao, H. Nakai, 
 T. Vreven, K. Throssell, J. A. Montgomery, Jr., J. E. Peralta, 
 F. Ogliaro, M. J. Bearpark, J. J. Heyd, E. N. Brothers, K. N. Kudin, 
 V. N. Staroverov, T. A. Keith, R. Kobayashi, J. Normand, 
 K. Raghavachari, A. P. Rendell, J. C. Burant, S. S. Iyengar, 
 J. Tomasi, M. Cossi, J. M. Millam, M. Klene, C. Adamo, R. Cammi, 
 J. W. Ochterski, R. L. Martin, K. Morokuma, O. Farkas, 
 J. B. Foresman, and D. J. Fox, Gaussian, Inc., Wallingford CT, 2016.
 
 ******************************************
 Gaussian 16:  ES64L-G16RevB.01 20-Dec-2017
                24-Feb-2022 
 ******************************************
 %mem=500mw
 %nprocs=8
 Will use up to    8 processors via shared memory.
 --------------------
 # b3lyp/gen opt freq
 --------------------
 1/18=20,19=15,26=3,38=1/1,3;
 2/9=110,12=2,17=6,18=5,40=1/2;
 3/5=7,11=2,25=1,30=1,71=1,74=-5/1,2,3;
 4//1;
 5/5=2,38=5/2;
 6/7=2,8=2,9=2,10=2,28=1/1;
 7//1,2,3,16;
 1/18=20,19=15,26=3/3(2);
 2/9=110/2;
 99//99;
 2/9=110/2;
 3/5=7,6=1,11=2,25=1,30=1,71=1,74=-5,82=7/1,2,3;
 4/5=5,16=3,69=1/1;
 5/5=2,38=5/2;
 7//1,2,3,16;
 1/18=20,19=15,26=3/3(-5);
 2/9=110/2;
 6/7=2,8=2,9=2,10=2,19=2,28=1/1;
 99/9=1/99;
 ----------------------
 benzene, B3LYP/pcseg-2
 ----------------------
 Symbolic Z-matrix:
 Charge =  0 Multiplicity = 1
 C                     0.        1.39392   0. 
 C                     1.20717   0.69696   0. 
 C                     1.20717  -0.69696   0. 
 C                     0.       -1.39392   0. 
 C                    -1.20717  -0.69696   0. 
 C                    -1.20717   0.69696   0. 
 H                     0.        2.47833   0. 
 H                     2.1463    1.23917   0. 
 H                     2.1463   -1.23917   0. 
 H                     0.       -2.47833   0. 
 H                    -2.1463   -1.23917   0. 
 H                    -2.1463    1.23917   0. 
 

 GradGradGradGradGradGradGradGradGradGradGradGradGradGradGradGradGradGrad
 Berny optimization.
 Initialization pass.
                           ----------------------------
                           !    Initial Parameters    !
                           ! (Angstroms and Degrees)  !
 --------------------------                            --------------------------
 ! Name  Definition              Value          Derivative Info.                !
 --------------------------------------------------------------------------------
 ! R1    R(1,2)                  1.3939         estimate D2E/DX2                !
 ! R2    R(1,6)                  1.3939         estimate D2E/DX2                !
 ! R3    R(1,7)                  1.0844         estimate D2E/DX2                !
 ! R4    R(2,3)                  1.3939         estimate D2E/DX2                !
 ! R5    R(2,8)                  1.0844         estimate D2E/DX2                !
 ! R6    R(3,4)                  1.3939         estimate D2E/DX2                !
 ! R7    R(3,9)                  1.0844         estimate D2E/DX2                !
 ! R8    R(4,5)                  1.3939         estimate D2E/DX2                !
 ! R9    R(4,10)                 1.0844         estimate D2E/DX2                !
 ! R10   R(5,6)                  1.3939         estimate D2E/DX2                !
 ! R11   R(5,11)                 1.0844         estimate D2E/DX2                !
 ! R12   R(6,12)                 1.0844         estimate D2E/DX2                !
 ! A1    A(2,1,6)              119.9999         estimate D2E/DX2                !
 ! A2    A(2,1,7)              120.0            estimate D2E/DX2                !
 ! A3    A(6,1,7)              120.0            estimate D2E/DX2                !
 ! A4    A(1,2,3)              120.0            estimate D2E/DX2                !
 ! A5    A(1,2,8)              120.0            estimate D2E/DX2                !
 ! A6    A(3,2,8)              120.0            estimate D2E/DX2                !
 ! A7    A(2,3,4)              120.0            estimate D2E/DX2                !
 ! A8    A(2,3,9)              120.0            estimate D2E/DX2                !
 ! A9    A(4,3,9)              120.0            estimate D2E/DX2                !
 ! A10   A(3,4,5)              119.9999         estimate D2E/DX2                !
 ! A11   A(3,4,10)             120.0            estimate D2E/DX2                !
 ! A12   A(5,4,10)             120.0            estimate D2E/DX2                !
 ! A13   A(4,5,6)              120.0            estimate D2E/DX2                !
 ! A14   A(4,5,11)             120.0            estimate D2E/DX2                !
 ! A15   A(6,5,11)             120.0            estimate D2E/DX2                !
 ! A16   A(1,6,5)              120.0            estimate D2E/DX2                !
 ! A17   A(1,6,12)             120.0            estimate D2E/DX2                !
 ! A18   A(5,6,12)             120.0            estimate D2E/DX2                !
 ! D1    D(6,1,2,3)              0.0            estimate D2E/DX2                !
 ! D2    D(6,1,2,8)            180.0            estimate D2E/DX2                !
 ! D3    D(7,1,2,3)            180.0            estimate D2E/DX2                !
 ! D4    D(7,1,2,8)              0.0            estimate D2E/DX2                !
 ! D5    D(2,1,6,5)              0.0            estimate D2E/DX2                !
 ! D6    D(2,1,6,12)           180.0            estimate D2E/DX2                !
 ! D7    D(7,1,6,5)            180.0            estimate D2E/DX2                !
 ! D8    D(7,1,6,12)             0.0            estimate D2E/DX2                !
 ! D9    D(1,2,3,4)              0.0            estimate D2E/DX2                !
 ! D10   D(1,2,3,9)            180.0            estimate D2E/DX2                !
 ! D11   D(8,2,3,4)            180.0            estimate D2E/DX2                !
 ! D12   D(8,2,3,9)              0.0            estimate D2E/DX2                !
 ! D13   D(2,3,4,5)              0.0            estimate D2E/DX2                !
 ! D14   D(2,3,4,10)           180.0            estimate D2E/DX2                !
 ! D15   D(9,3,4,5)            180.0            estimate D2E/DX2                !
 ! D16   D(9,3,4,10)             0.0            estimate D2E/DX2                !
 ! D17   D(3,4,5,6)              0.0            estimate D2E/DX2                !
 ! D18   D(3,4,5,11)           180.0            estimate D2E/DX2                !
 ! D19   D(10,4,5,6)           180.0            estimate D2E/DX2                !
 ! D20   D(10,4,5,11)            0.0            estimate D2E/DX2                !
 ! D21   D(4,5,6,1)              0.0            estimate D2E/DX2                !
 ! D22   D(4,5,6,12)           180.0            estimate D2E/DX2                !
 ! D23   D(11,5,6,1)           180.0            estimate D2E/DX2                !
 ! D24   D(11,5,6,12)            0.0            estimate D2E/DX2                !
 --------------------------------------------------------------------------------
 Trust Radius=3.00D-01 FncErr=1.00D-07 GrdErr=1.00D-06 EigMax=2.50D+02 EigMin=1.00D-04
 Number of steps in this run=     64 maximum allowed number of steps=    100.
 GradGradGradGradGradGradGradGradGradGradGradGradGradGradGradGradGradGrad

                          Input orientation:                          
 ---------------------------------------------------------------------
 Center     Atomic      Atomic             Coordinates (Angstroms)
 Number     Number       Type             X           Y           Z
 ---------------------------------------------------------------------
      1          6           0        0.000000    1.393923    0.000000
      2          6           0        1.207172    0.696961    0.000000
      3          6           0        1.207172   -0.696961    0.000000
      4          6           0        0.000000   -1.393923    0.000000
      5          6           0       -1.207172   -0.696961    0.000000
      6          6           0       -1.207172    0.696961    0.000000
      7          1           0        0.000000    2.478334    0.000000
      8          1           0        2.146301    1.239167    0.000000
      9          1           0        2.146301   -1.239167    0.000000
     10          1           0        0.000000   -2.478334    0.000000
     11          1           0       -2.146301   -1.239167    0.000000
     12          1           0       -2.146301    1.239167    0.000000
 ---------------------------------------------------------------------
                    Distance matrix (angstroms):
                    1          2          3          4          5
     1  C    0.000000
     2  C    1.393923   0.000000
     3  C    2.414345   1.393922   0.000000
     4  C    2.787846   2.414345   1.393923   0.000000
     5  C    2.414345   2.787844   2.414344   1.393923   0.000000
     6  C    1.393923   2.414344   2.787844   2.414345   1.393922
     7  H    1.084411   2.151872   3.397023   3.872257   3.397023
     8  H    2.151873   1.084413   2.151872   3.397024   3.872257
     9  H    3.397024   2.151872   1.084413   2.151873   3.397023
    10  H    3.872257   3.397023   2.151872   1.084411   2.151872
    11  H    3.397024   3.872257   3.397023   2.151873   1.084413
    12  H    2.151873   3.397023   3.872257   3.397024   2.151872
                    6          7          8          9         10
     6  C    0.000000
     7  H    2.151872   0.000000
     8  H    3.397023   2.478335   0.000000
     9  H    3.872257   4.292601   2.478334   0.000000
    10  H    3.397023   4.956668   4.292601   2.478335   0.000000
    11  H    2.151872   4.292601   4.956669   4.292602   2.478335
    12  H    1.084413   2.478335   4.292602   4.956669   4.292601
                   11         12
    11  H    0.000000
    12  H    2.478334   0.000000
 Stoichiometry    C6H6
 Framework group  D6H[3C2'(HC.CH)]
 Deg. of freedom     2
 Full point group                 D6H     NOp  24
 Largest Abelian subgroup         D2H     NOp   8
 Largest concise Abelian subgroup D2      NOp   4
                         Standard orientation:                         
 ---------------------------------------------------------------------
 Center     Atomic      Atomic             Coordinates (Angstroms)
 Number     Number       Type             X           Y           Z
 ---------------------------------------------------------------------
      1          6           0        0.000000    1.393923    0.000000
      2          6           0        1.207173    0.696961    0.000000
      3          6           0        1.207173   -0.696962    0.000000
      4          6           0       -0.000000   -1.393923    0.000000
      5          6           0       -1.207173   -0.696961    0.000000
      6          6           0       -1.207173    0.696962    0.000000
      7          1           0        0.000000    2.478334    0.000000
      8          1           0        2.146300    1.239167    0.000000
      9          1           0        2.146300   -1.239167    0.000000
     10          1           0       -0.000000   -2.478334    0.000000
     11          1           0       -2.146300   -1.239167    0.000000
     12          1           0       -2.146300    1.239167    0.000000
 ---------------------------------------------------------------------
 Rotational constants (GHZ):           5.7092475           5.7092475           2.8546237
 General basis read from cards:  (5D, 7F)
 There are    59 symmetry adapted cartesian basis functions of AG  symmetry.
 There are    46 symmetry adapted cartesian basis functions of B1G symmetry.
 There are    19 symmetry adapted cartesian basis functions of B2G symmetry.
 There are    26 symmetry adapted cartesian basis functions of B3G symmetry.
 There are    19 symmetry adapted cartesian basis functions of AU  symmetry.
 There are    26 symmetry adapted cartesian basis functions of B1U symmetry.
 There are    59 symmetry adapted cartesian basis functions of B2U symmetry.
 There are    46 symmetry adapted cartesian basis functions of B3U symmetry.
 There are    50 symmetry adapted basis functions of AG  symmetry.
 There are    40 symmetry adapted basis functions of B1G symmetry.
 There are    18 symmetry adapted basis functions of B2G symmetry.
 There are    24 symmetry adapted basis functions of B3G symmetry.
 There are    18 symmetry adapted basis functions of AU  symmetry.
 There are    24 symmetry adapted basis functions of B1U symmetry.
 There are    50 symmetry adapted basis functions of B2U symmetry.
 There are    40 symmetry adapted basis functions of B3U symmetry.
   264 basis functions,   414 primitive gaussians,   300 cartesian basis functions
    21 alpha electrons       21 beta electrons
       nuclear repulsion energy       203.5935572876 Hartrees.
 NAtoms=   12 NActive=   12 NUniq=    2 SFac= 4.00D+00 NAtFMM=   60 NAOKFM=F Big=F
 Integral buffers will be    131072 words long.
 Raffenetti 2 integral format.
 Two-electron integral symmetry is turned on.
 One-electron integrals computed using PRISM.
 NBasis=   264 RedAO= T EigKep=  2.02D-05  NBF=    50    40    18    24    18    24    50    40
 NBsUse=   264 1.00D-06 EigRej= -1.00D+00 NBFU=    50    40    18    24    18    24    50    40
 ExpMin= 7.42D-02 ExpMax= 7.32D+03 ExpMxC= 2.50D+02 IAcc=3 IRadAn=         5 AccDes= 0.00D+00
 Harris functional with IExCor=  402 and IRadAn=       5 diagonalized for initial guess.
 HarFok:  IExCor=  402 AccDes= 0.00D+00 IRadAn=         5 IDoV= 1 UseB2=F ITyADJ=14
 ICtDFT=  3500011 ScaDFX=  1.000000  1.000000  1.000000  1.000000
 FoFCou: FMM=F IPFlag=           0 FMFlag=      100000 FMFlg1=           0
         NFxFlg=           0 DoJE=T BraDBF=F KetDBF=T FulRan=T
         wScrn=  0.000000 ICntrl=       500 IOpCl=  0 I1Cent=   200000004 NGrid=           0
         NMat0=    1 NMatS0=      1 NMatT0=    0 NMatD0=    1 NMtDS0=    0 NMtDT0=    0
 Petite list used in FoFCou.
 Initial guess orbital symmetries:
       Occupied  (A1G) (E1U) (E1U) (E2G) (E2G) (B1U) (A1G) (E1U)
                 (E1U) (E2G) (E2G) (A1G) (B2U) (B1U) (E1U) (E1U)
                 (A2U) (E2G) (E2G) (E1G) (E1G)
       Virtual   (E2U) (E2U) (A1G) (B2G) (E1U) (E1U) (E2G) (E2G)
                 (B1U) (A1G) (A2U) (E2G) (E2G) (E1U) (E1U) (B2U)
                 (E1G) (E1G) (A1G) (E1U) (E1U) (E2U) (E2U) (B1U)
                 (E2G) (E2G) (E1U) (E1U) (E2G) (E2G) (B2G) (A1G)
                 (B1U) (A2G) (E2G) (E2G) (E1U) (E1U) (A2G) (A2U)
                 (E1U) (E1U) (B1U) (E2G) (E2G) (E1G) (E1G) (B1G)
                 (B1U) (A1G) (B2U) (E2U) (E2U) (E2G) (E2G) (A1G)
                 (E1U) (E1U) (A1G) (B2G) (E1U) (E1U) (A2U) (E2U)
                 (E2U) (A2G) (E2G) (E2G) (A2U) (B1U) (E1G) (E1G)
                 (E1G) (E1G) (E1U) (E1U) (B2U) (E1U) (E1U) (E2U)
                 (E2U) (E2G) (E2G) (B2G) (E1U) (E1U) (E1G) (E1G)
                 (E2U) (E2U) (E2G) (E2G) (A1G) (B1U) (E2G) (E2G)
                 (A1G) (B2U) (E1U) (E1U) (B1U) (E2G) (E2G) (A1U)
                 (B2G) (A2G) (A1G) (E2G) (E2G) (E1U) (E1U) (E1U)
                 (E1U) (A2G) (B1U) (E2G) (E2G) (E1U) (E1U) (B1G)
                 (A2U) (E2U) (E2U) (B2U) (E1G) (E1G) (B1U) (A2U)
                 (B2U) (A1G) (E1G) (E1G) (E2G) (E2G) (E1U) (E1U)
                 (A1G) (E2U) (E2U) (E2G) (E2G) (B1U) (E2G) (E2G)
                 (E1U) (E1U) (A2U) (A1U) (B2G) (E1G) (E1G) (E2G)
                 (E2G) (A1G) (B1G) (E1U) (E1U) (E2G) (E2G) (E2U)
                 (E2U) (E1U) (E1U) (E1G) (E1G) (E1U) (E1U) (A1G)
                 (E2U) (E2U) (A2G) (B1G) (B1U) (E1G) (E1G) (A2U)
                 (B1U) (E2G) (E2G) (E2U) (E2U) (B2G) (E1G) (E1G)
                 (B2U) (E2U) (E2U) (E1U) (E1U) (A2G) (A1U) (B2G)
                 (E2U) (E2U) (E2G) (E2G) (E1G) (E1G) (B1U) (E1U)
                 (E1U) (B2U) (B2G) (E2G) (E2G) (A2G) (E1U) (E1U)
                 (E2G) (E2G) (A1G) (A2U) (E1G) (E1G) (B2U) (A1G)
                 (A1U) (B1U) (E2G) (E2G) (E1U) (E1U) (E2U) (E2U)
                 (A2G) (E1U) (E1U) (A1G) (E2G) (E2G) (B2G) (E1U)
                 (E1U) (E2G) (E2G) (B1U) (E1U) (E1U) (B1U) (E2G)
                 (E2G) (A2G) (B1U)
 The electronic state of the initial guess is 1-A1G.
 Requested convergence on RMS density matrix=1.00D-08 within 128 cycles.
 Requested convergence on MAX density matrix=1.00D-06.
 Requested convergence on             energy=1.00D-06.
 No special actions if energy rises.
 Integral accuracy reduced to 1.0D-05 until final iterations.
 Initial convergence to 1.0D-05 achieved.  Increase integral accuracy.
 SCF Done:  E(RB3LYP) =  -232.339776031     A.U. after   10 cycles
            NFock= 10  Conv=0.12D-08     -V/T= 2.0042

 **********************************************************************

            Population analysis using the SCF Density.

 **********************************************************************

 Orbital symmetries:
       Occupied  (A1G) (E1U) (E1U) (E2G) (E2G) (B1U) (A1G) (E1U)
                 (E1U) (E2G) (E2G) (A1G) (B1U) (B2U) (E1U) (E1U)
                 (A2U) (E2G) (E2G) (E1G) (E1G)
       Virtual   (E2U) (E2U) (A1G) (E1U) (E1U) (E2G) (E2G) (B1U)
                 (B2G) (A1G) (A2U) (B2U) (E2G) (E2G) (E1G) (E1G)
                 (E1U) (E1U) (A1G) (E2U) (E2U) (B1U) (E1U) (E1U)
                 (E1U) (E1U) (E2G) (E2G) (B2G) (E2G) (E2G) (A1G)
                 (A2G) (B1U) (E1U) (E1U) (E2G) (E2G) (A2U) (E1U)
                 (E1U) (A2G) (E2G) (E2G) (B1U) (B1U) (E1G) (E1G)
                 (B1G) (A1G) (B2U) (E2U) (E2U) (E2G) (E2G) (A1G)
                 (E1U) (E1U) (B2G) (A1G) (E1U) (E1U) (A2U) (E2U)
                 (E2U) (A2G) (E2G) (E2G) (B1U) (E1G) (E1G) (A2U)
                 (E1G) (E1G) (E1U) (E1U) (B2U) (E1U) (E1U) (E2U)
                 (E2U) (E2G) (E2G) (B2G) (E1U) (E1U) (E1G) (E1G)
                 (E2G) (E2G) (E2U) (E2U) (A1G) (B1U) (E2G) (E2G)
                 (A1G) (E1U) (E1U) (B1U) (A1U) (B2U) (E2G) (E2G)
                 (A2G) (B2G) (A1G) (E2G) (E2G) (E1U) (E1U) (E1U)
                 (E1U) (A2G) (B1U) (E2G) (E2G) (E1U) (E1U) (B1G)
                 (A2U) (E2U) (E2U) (B2U) (E1G) (E1G) (B1U) (A2U)
                 (B2U) (A1G) (E1G) (E1G) (E2G) (E2G) (E1U) (E1U)
                 (E2U) (E2U) (A1G) (E2G) (E2G) (B1U) (E2G) (E2G)
                 (E1U) (E1U) (A1U) (B2G) (A2U) (E2G) (E2G) (E1G)
                 (E1G) (B1G) (A1G) (E1U) (E1U) (E2U) (E2U) (E2G)
                 (E2G) (E1U) (E1U) (E1U) (E1U) (E1G) (E1G) (A1G)
                 (A2G) (E2U) (E2U) (B1G) (B1U) (A2U) (E1G) (E1G)
                 (B1U) (E2G) (E2G) (E2U) (E2U) (E1G) (E1G) (B2G)
                 (B2U) (E2U) (E2U) (E1U) (E1U) (A2G) (A1U) (B2G)
                 (E2U) (E2U) (E2G) (E2G) (E1G) (E1G) (B1U) (E1U)
                 (E1U) (B2U) (B2G) (E2G) (E2G) (E1U) (E1U) (E2G)
                 (E2G) (A2G) (A2U) (A1G) (E1G) (E1G) (A1G) (B2U)
                 (B1U) (A1U) (E2G) (E2G) (E1U) (E1U) (E2U) (E2U)
                 (A2G) (E1U) (E1U) (A1G) (E2G) (E2G) (B2G) (E1U)
                 (E1U) (E2G) (E2G) (B1U) (E1U) (E1U) (B1U) (E2G)
                 (E2G) (A2G) (B1U)
 The electronic state is 1-A1G.
 Alpha  occ. eigenvalues --  -10.17836 -10.17808 -10.17808 -10.17749 -10.17749
 Alpha  occ. eigenvalues --  -10.17720  -0.85776  -0.74949  -0.74949  -0.60664
 Alpha  occ. eigenvalues --   -0.60664  -0.52863  -0.46510  -0.45211  -0.42659
 Alpha  occ. eigenvalues --   -0.42659  -0.37351  -0.34968  -0.34968  -0.26029
 Alpha  occ. eigenvalues --   -0.26029
 Alpha virt. eigenvalues --   -0.01710  -0.01710   0.01535   0.04036   0.04036
 Alpha virt. eigenvalues --    0.06779   0.06779   0.09810   0.13446   0.15090
 Alpha virt. eigenvalues --    0.16616   0.17751   0.18758   0.18758   0.20039
 Alpha virt. eigenvalues --    0.20039   0.21721   0.21721   0.25775   0.27600
 Alpha virt. eigenvalues --    0.27600   0.28767   0.30183   0.30183   0.30803
 Alpha virt. eigenvalues --    0.30803   0.32716   0.32716   0.34933   0.36917
 Alpha virt. eigenvalues --    0.36917   0.38570   0.41860   0.42821   0.45593
 Alpha virt. eigenvalues --    0.45593   0.45757   0.45757   0.59457   0.59710
 Alpha virt. eigenvalues --    0.59710   0.63258   0.65052   0.65052   0.68883
 Alpha virt. eigenvalues --    0.72324   0.76331   0.76331   0.80054   0.83932
 Alpha virt. eigenvalues --    0.84368   0.84520   0.84520   0.97290   0.97290
 Alpha virt. eigenvalues --    0.98878   1.00298   1.00298   1.02667   1.04526
 Alpha virt. eigenvalues --    1.07590   1.07590   1.10206   1.14179   1.14179
 Alpha virt. eigenvalues --    1.14502   1.15955   1.15955   1.21631   1.24370
 Alpha virt. eigenvalues --    1.24370   1.25434   1.29739   1.29739   1.31909
 Alpha virt. eigenvalues --    1.31909   1.36142   1.38427   1.38427   1.45260
 Alpha virt. eigenvalues --    1.45260   1.49317   1.49317   1.55411   1.57405
 Alpha virt. eigenvalues --    1.57405   1.58619   1.58619   1.63312   1.63312
 Alpha virt. eigenvalues --    1.64641   1.64641   1.68851   1.72061   1.75767
 Alpha virt. eigenvalues --    1.75767   1.84974   1.90498   1.90498   1.90948
 Alpha virt. eigenvalues --    1.93484   1.94080   1.94764   1.94764   2.01691
 Alpha virt. eigenvalues --    2.05968   2.15944   2.17085   2.17085   2.21298
 Alpha virt. eigenvalues --    2.21298   2.30081   2.30081   2.42216   2.51551
 Alpha virt. eigenvalues --    2.66057   2.66057   2.73324   2.73324   2.82797
 Alpha virt. eigenvalues --    2.90480   3.14765   3.14765   3.18605   3.20134
 Alpha virt. eigenvalues --    3.20134   3.22559   3.27481   3.31099   3.32005
 Alpha virt. eigenvalues --    3.32700   3.32700   3.43632   3.43632   3.54083
 Alpha virt. eigenvalues --    3.54083   3.61042   3.61042   3.62627   3.63006
 Alpha virt. eigenvalues --    3.63006   3.75120   3.79712   3.79712   3.83530
 Alpha virt. eigenvalues --    3.83530   3.93301   3.95685   3.95927   3.99426
 Alpha virt. eigenvalues --    3.99426   3.99489   3.99489   4.00015   4.02630
 Alpha virt. eigenvalues --    4.06989   4.06989   4.12018   4.12018   4.13566
 Alpha virt. eigenvalues --    4.13566   4.20178   4.20178   4.21713   4.21713
 Alpha virt. eigenvalues --    4.22601   4.22601   4.23611   4.28353   4.30280
 Alpha virt. eigenvalues --    4.30280   4.31180   4.32933   4.34399   4.35669
 Alpha virt. eigenvalues --    4.35669   4.41732   4.43273   4.43273   4.46683
 Alpha virt. eigenvalues --    4.46683   4.48191   4.48191   4.49411   4.54171
 Alpha virt. eigenvalues --    4.55315   4.55315   4.60290   4.60290   4.65793
 Alpha virt. eigenvalues --    4.67420   4.72400   4.76663   4.76663   4.76770
 Alpha virt. eigenvalues --    4.76770   4.86219   4.86219   4.90396   4.95053
 Alpha virt. eigenvalues --    4.95053   4.97059   5.04520   5.07827   5.07827
 Alpha virt. eigenvalues --    5.12014   5.12014   5.14898   5.14898   5.15726
 Alpha virt. eigenvalues --    5.22659   5.22727   5.32035   5.32035   5.33833
 Alpha virt. eigenvalues --    5.34948   5.37658   5.38303   5.48632   5.48632
 Alpha virt. eigenvalues --    5.50830   5.50830   5.55719   5.55719   5.64418
 Alpha virt. eigenvalues --    5.68604   5.68604   5.73101   5.73730   5.73730
 Alpha virt. eigenvalues --    5.87581   5.99024   5.99024   6.02694   6.02694
 Alpha virt. eigenvalues --    6.28160   6.47924   6.47924   6.48073   6.60283
 Alpha virt. eigenvalues --    6.60283   7.18336  11.17047
          Condensed to atoms (all electrons):
               1          2          3          4          5          6
     1  C    4.864527   0.464588  -0.034713  -0.073159  -0.034713   0.464588
     2  C    0.464588   4.864527   0.464588  -0.034713  -0.073159  -0.034713
     3  C   -0.034713   0.464588   4.864527   0.464588  -0.034713  -0.073159
     4  C   -0.073159  -0.034713   0.464588   4.864527   0.464588  -0.034713
     5  C   -0.034713  -0.073159  -0.034713   0.464588   4.864527   0.464588
     6  C    0.464588  -0.034713  -0.073159  -0.034713   0.464588   4.864527
     7  H    0.457453  -0.055034   0.014467  -0.005066   0.014467  -0.055034
     8  H   -0.055034   0.457453  -0.055034   0.014467  -0.005066   0.014467
     9  H    0.014467  -0.055034   0.457453  -0.055034   0.014467  -0.005066
    10  H   -0.005066   0.014467  -0.055034   0.457453  -0.055034   0.014467
    11  H    0.014467  -0.005066   0.014467  -0.055034   0.457453  -0.055034
    12  H   -0.055034   0.014467  -0.005066   0.014467  -0.055034   0.457453
               7          8          9         10         11         12
     1  C    0.457453  -0.055034   0.014467  -0.005066   0.014467  -0.055034
     2  C   -0.055034   0.457453  -0.055034   0.014467  -0.005066   0.014467
     3  C    0.014467  -0.055034   0.457453  -0.055034   0.014467  -0.005066
     4  C   -0.005066   0.014467  -0.055034   0.457453  -0.055034   0.014467
     5  C    0.014467  -0.005066   0.014467  -0.055034   0.457453  -0.055034
     6  C   -0.055034   0.014467  -0.005066   0.014467  -0.055034   0.457453
     7  H    0.628173  -0.010842  -0.000106   0.000099  -0.000106  -0.010842
     8  H   -0.010842   0.628173  -0.010842  -0.000106   0.000099  -0.000106
     9  H   -0.000106  -0.010842   0.628173  -0.010842  -0.000106   0.000099
    10  H    0.000099  -0.000106  -0.010842   0.628173  -0.010842  -0.000106
    11  H   -0.000106   0.000099  -0.000106  -0.010842   0.628173  -0.010842
    12  H   -0.010842  -0.000106   0.000099  -0.000106  -0.010842   0.628173
 Mulliken charges:
               1
     1  C   -0.022371
     2  C   -0.022371
     3  C   -0.022371
     4  C   -0.022371
     5  C   -0.022371
     6  C   -0.022371
     7  H    0.022371
     8  H    0.022371
     9  H    0.022371
    10  H    0.022371
    11  H    0.022371
    12  H    0.022371
 Sum of Mulliken charges =   0.00000
 Mulliken charges with hydrogens summed into heavy atoms:
               1
     1  C    0.000000
     2  C    0.000000
     3  C    0.000000
     4  C    0.000000
     5  C    0.000000
     6  C    0.000000
 Electronic spatial extent (au):  <R**2>=            459.1762
 Charge=              0.0000 electrons
 Dipole moment (field-independent basis, Debye):
    X=             -0.0000    Y=              0.0000    Z=             -0.0000  Tot=              0.0000
 Quadrupole moment (field-independent basis, Debye-Ang):
   XX=            -32.2840   YY=            -32.2840   ZZ=            -40.0497
   XY=              0.0000   XZ=             -0.0000   YZ=             -0.0000
 Traceless Quadrupole moment (field-independent basis, Debye-Ang):
   XX=              2.5885   YY=              2.5885   ZZ=             -5.1771
   XY=              0.0000   XZ=             -0.0000   YZ=             -0.0000
 Octapole moment (field-independent basis, Debye-Ang**2):
  XXX=             -0.0000  YYY=              0.0000  ZZZ=             -0.0000  XYY=              0.0000
  XXY=             -0.0000  XXZ=             -0.0000  XZZ=              0.0000  YZZ=              0.0000
  YYZ=              0.0000  XYZ=             -0.0000
 Hexadecapole moment (field-independent basis, Debye-Ang**3):
 XXXX=           -277.1972 YYYY=           -277.1972 ZZZZ=            -49.5973 XXXY=              0.0000
 XXXZ=             -0.0000 YYYX=              0.0000 YYYZ=             -0.0000 ZZZX=             -0.0000
 ZZZY=             -0.0000 XXYY=            -92.3991 XXZZ=            -65.0331 YYZZ=            -65.0331
 XXYZ=             -0.0000 YYXZ=             -0.0000 ZZXY=              0.0000
 N-N= 2.035935572876D+02 E-N=-9.459035800541D+02  KE= 2.313677006972D+02
 Symmetry AG   KE= 7.455180391669D+01
 Symmetry B1G  KE= 3.770800534408D+01
 Symmetry B2G  KE= 2.238146996742D+00
 Symmetry B3G  KE= 2.238146996742D+00
 Symmetry AU   KE=-1.758614367652D-16
 Symmetry B1U  KE= 1.884295434071D+00
 Symmetry B2U  KE= 7.212609988952D+01
 Symmetry B3U  KE= 4.062120211940D+01
 Calling FoFJK, ICntrl=      2127 FMM=F ISym2X=1 I1Cent= 0 IOpClX= 0 NMat=1 NMatS=1 NMatT=0.
 ***** Axes restored to original set *****
 -------------------------------------------------------------------
 Center     Atomic                   Forces (Hartrees/Bohr)
 Number     Number              X              Y              Z
 -------------------------------------------------------------------
      1        6          -0.000000000   -0.001076959   -0.000000000
      2        6          -0.000932673   -0.000538479   -0.000000000
      3        6          -0.000932673    0.000538479   -0.000000000
      4        6           0.000000000    0.001076959    0.000000000
      5        6           0.000932673    0.000538479    0.000000000
      6        6           0.000932673   -0.000538479    0.000000000
      7        1           0.000000000   -0.001740856    0.000000000
      8        1          -0.001507626   -0.000870428    0.000000000
      9        1          -0.001507626    0.000870428   -0.000000000
     10        1          -0.000000000    0.001740856   -0.000000000
     11        1           0.001507626    0.000870428    0.000000000
     12        1           0.001507626   -0.000870428    0.000000000
 -------------------------------------------------------------------
 Cartesian Forces:  Max     0.001740856 RMS     0.000835705

 GradGradGradGradGradGradGradGradGradGradGradGradGradGradGradGradGradGrad
 Berny optimization.
 FormGI is forming the generalized inverse of G from B-inverse, IUseBI=4.
 Internal  Forces:  Max     0.002817815 RMS     0.001104066
 Search for a local minimum.
 Step number   1 out of a maximum of   64
 All quantities printed in internal units (Hartrees-Bohrs-Radians)
 Mixed Optimization -- RFO/linear search
 Second derivative matrix not updated -- first step.
 ITU=  0
     Eigenvalues ---    0.02169   0.02169   0.02169   0.02169   0.02169
     Eigenvalues ---    0.02169   0.02169   0.02169   0.02169   0.16000
     Eigenvalues ---    0.16000   0.16000   0.16000   0.16000   0.16000
     Eigenvalues ---    0.22000   0.22000   0.22000   0.35467   0.35467
     Eigenvalues ---    0.35467   0.35467   0.35467   0.35467   0.42262
     Eigenvalues ---    0.42262   0.46643   0.46643   0.46643   0.46643
 RFO step:  Lambda=-1.53352888D-04 EMin= 2.16914287D-02
 Linear search not attempted -- first point.
 Iteration  1 RMS(Cart)=  0.00416706 RMS(Int)=  0.00000000
 Iteration  2 RMS(Cart)=  0.00000000 RMS(Int)=  0.00000000
 ClnCor:  largest displacement from symmetrization is 2.72D-13 for atom     3.
 Variable       Old X    -DE/DX   Delta X   Delta X   Delta X     New X
                                 (Linear)    (Quad)   (Total)
    R1        2.63413  -0.00282   0.00000  -0.00604  -0.00604   2.62809
    R2        2.63413  -0.00282   0.00000  -0.00604  -0.00604   2.62809
    R3        2.04924  -0.00174   0.00000  -0.00491  -0.00491   2.04433
    R4        2.63413  -0.00282   0.00000  -0.00604  -0.00604   2.62809
    R5        2.04924  -0.00174   0.00000  -0.00491  -0.00491   2.04433
    R6        2.63413  -0.00282   0.00000  -0.00604  -0.00604   2.62809
    R7        2.04924  -0.00174   0.00000  -0.00491  -0.00491   2.04433
    R8        2.63413  -0.00282   0.00000  -0.00604  -0.00604   2.62809
    R9        2.04924  -0.00174   0.00000  -0.00491  -0.00491   2.04433
   R10        2.63413  -0.00282   0.00000  -0.00604  -0.00604   2.62809
   R11        2.04924  -0.00174   0.00000  -0.00491  -0.00491   2.04433
   R12        2.04924  -0.00174   0.00000  -0.00491  -0.00491   2.04433
    A1        2.09440   0.00000   0.00000   0.00000   0.00000   2.09440
    A2        2.09440  -0.00000   0.00000  -0.00000  -0.00000   2.09440
    A3        2.09440  -0.00000   0.00000   0.00000   0.00000   2.09440
    A4        2.09440  -0.00000   0.00000  -0.00000  -0.00000   2.09440
    A5        2.09440   0.00000   0.00000   0.00000   0.00000   2.09440
    A6        2.09440  -0.00000   0.00000  -0.00000   0.00000   2.09440
    A7        2.09440  -0.00000   0.00000  -0.00000   0.00000   2.09440
    A8        2.09440   0.00000   0.00000   0.00000  -0.00000   2.09440
    A9        2.09440  -0.00000   0.00000  -0.00000   0.00000   2.09440
   A10        2.09440   0.00000   0.00000   0.00000   0.00000   2.09440
   A11        2.09440   0.00000   0.00000   0.00000   0.00000   2.09440
   A12        2.09440  -0.00000   0.00000  -0.00000   0.00000   2.09440
   A13        2.09440  -0.00000   0.00000  -0.00000   0.00000   2.09440
   A14        2.09440   0.00000   0.00000   0.00000   0.00000   2.09440
   A15        2.09440  -0.00000   0.00000  -0.00000   0.00000   2.09440
   A16        2.09440  -0.00000   0.00000  -0.00000   0.00000   2.09440
   A17        2.09440  -0.00000   0.00000  -0.00000   0.00000   2.09440
   A18        2.09440   0.00000   0.00000   0.00000   0.00000   2.09440
    D1        0.00000   0.00000   0.00000   0.00000   0.00000   0.00000
    D2        3.14159   0.00000   0.00000   0.00000   0.00000   3.14159
    D3        3.14159   0.00000   0.00000   0.00000   0.00000   3.14159
    D4        0.00000   0.00000   0.00000   0.00000   0.00000   0.00000
    D5        0.00000   0.00000   0.00000   0.00000   0.00000   0.00000
    D6        3.14159  -0.00000   0.00000  -0.00000   0.00000   3.14159
    D7        3.14159   0.00000   0.00000   0.00000   0.00000   3.14159
    D8        0.00000   0.00000   0.00000   0.00000   0.00000   0.00000
    D9        0.00000  -0.00000   0.00000  -0.00000   0.00000   0.00000
   D10        3.14159  -0.00000   0.00000  -0.00000   0.00000   3.14159
   D11        3.14159  -0.00000   0.00000  -0.00000   0.00000   3.14159
   D12        0.00000  -0.00000   0.00000  -0.00000   0.00000   0.00000
   D13        0.00000   0.00000   0.00000   0.00000   0.00000   0.00000
   D14        3.14159   0.00000   0.00000   0.00000   0.00000   3.14159
   D15        3.14159   0.00000   0.00000   0.00000   0.00000   3.14159
   D16        0.00000  -0.00000   0.00000  -0.00000  -0.00000   0.00000
   D17        0.00000   0.00000   0.00000   0.00000   0.00000   0.00000
   D18        3.14159  -0.00000   0.00000  -0.00000   0.00000   3.14159
   D19        3.14159   0.00000   0.00000   0.00000   0.00000   3.14159
   D20        0.00000   0.00000   0.00000   0.00000   0.00000   0.00000
   D21        0.00000  -0.00000   0.00000  -0.00000   0.00000   0.00000
   D22        3.14159  -0.00000   0.00000  -0.00000   0.00000   3.14159
   D23        3.14159  -0.00000   0.00000  -0.00000   0.00000   3.14159
   D24        0.00000   0.00000   0.00000   0.00000  -0.00000   0.00000
         Item               Value     Threshold  Converged?
 Maximum Force            0.002818     0.000450     NO 
 RMS     Force            0.001104     0.000300     NO 
 Maximum Displacement     0.010946     0.001800     NO 
 RMS     Displacement     0.004167     0.001200     NO 
 Predicted change in Energy=-7.670431D-05
 GradGradGradGradGradGradGradGradGradGradGradGradGradGradGradGradGradGrad

                          Input orientation:                          
 ---------------------------------------------------------------------
 Center     Atomic      Atomic             Coordinates (Angstroms)
 Number     Number       Type             X           Y           Z
 ---------------------------------------------------------------------
      1          6           0       -0.000000    1.390727    0.000000
      2          6           0        1.204405    0.695364    0.000000
      3          6           0        1.204405   -0.695364    0.000000
      4          6           0        0.000000   -1.390727    0.000000
      5          6           0       -1.204405   -0.695364    0.000000
      6          6           0       -1.204405    0.695364    0.000000
      7          1           0       -0.000000    2.472542   -0.000000
      8          1           0        2.141284    1.236271   -0.000000
      9          1           0        2.141284   -1.236271   -0.000000
     10          1           0        0.000000   -2.472542   -0.000000
     11          1           0       -2.141284   -1.236271   -0.000000
     12          1           0       -2.141284    1.236271   -0.000000
 ---------------------------------------------------------------------
                    Distance matrix (angstroms):
                    1          2          3          4          5
     1  C    0.000000
     2  C    1.390727   0.000000
     3  C    2.408810   1.390727   0.000000
     4  C    2.781454   2.408810   1.390727   0.000000
     5  C    2.408810   2.781454   2.408810   1.390727   0.000000
     6  C    1.390727   2.408810   2.781454   2.408810   1.390727
     7  H    1.081815   2.146847   3.389132   3.863269   3.389132
     8  H    2.146847   1.081815   2.146847   3.389132   3.863269
     9  H    3.389132   2.146847   1.081815   2.146847   3.389132
    10  H    3.863269   3.389132   2.146847   1.081815   2.146847
    11  H    3.389132   3.863269   3.389132   2.146847   1.081815
    12  H    2.146847   3.389132   3.863269   3.389132   2.146847
                    6          7          8          9         10
     6  C    0.000000
     7  H    2.146847   0.000000
     8  H    3.389132   2.472542   0.000000
     9  H    3.863269   4.282568   2.472542   0.000000
    10  H    3.389132   4.945084   4.282568   2.472542   0.000000
    11  H    2.146847   4.282568   4.945084   4.282568   2.472542
    12  H    1.081815   2.472542   4.282568   4.945084   4.282568
                   11         12
    11  H    0.000000
    12  H    2.472542   0.000000
 Stoichiometry    C6H6
 Framework group  D6H[3C2'(HC.CH)]
 Deg. of freedom     2
 Full point group                 D6H     NOp  24
 Largest Abelian subgroup         D2H     NOp   8
 Largest concise Abelian subgroup D2      NOp   4
                         Standard orientation:                         
 ---------------------------------------------------------------------
 Center     Atomic      Atomic             Coordinates (Angstroms)
 Number     Number       Type             X           Y           Z
 ---------------------------------------------------------------------
      1          6           0        0.000000    1.390727    0.000000
      2          6           0        1.204405    0.695364    0.000000
      3          6           0        1.204405   -0.695364    0.000000
      4          6           0       -0.000000   -1.390727    0.000000
      5          6           0       -1.204405   -0.695364    0.000000
      6          6           0       -1.204405    0.695364    0.000000
      7          1           0        0.000000    2.472542    0.000000
      8          1           0        2.141284    1.236271    0.000000
      9          1           0        2.141284   -1.236271    0.000000
     10          1           0       -0.000000   -2.472542    0.000000
     11          1           0       -2.141284   -1.236271    0.000000
     12          1           0       -2.141284    1.236271    0.000000
 ---------------------------------------------------------------------
 Rotational constants (GHZ):           5.7356242           5.7356242           2.8678121
 Basis read from rwf:  (5D, 7F)
 There are    59 symmetry adapted cartesian basis functions of AG  symmetry.
 There are    46 symmetry adapted cartesian basis functions of B1G symmetry.
 There are    19 symmetry adapted cartesian basis functions of B2G symmetry.
 There are    26 symmetry adapted cartesian basis functions of B3G symmetry.
 There are    19 symmetry adapted cartesian basis functions of AU  symmetry.
 There are    26 symmetry adapted cartesian basis functions of B1U symmetry.
 There are    59 symmetry adapted cartesian basis functions of B2U symmetry.
 There are    46 symmetry adapted cartesian basis functions of B3U symmetry.
 There are    50 symmetry adapted basis functions of AG  symmetry.
 There are    40 symmetry adapted basis functions of B1G symmetry.
 There are    18 symmetry adapted basis functions of B2G symmetry.
 There are    24 symmetry adapted basis functions of B3G symmetry.
 There are    18 symmetry adapted basis functions of AU  symmetry.
 There are    24 symmetry adapted basis functions of B1U symmetry.
 There are    50 symmetry adapted basis functions of B2U symmetry.
 There are    40 symmetry adapted basis functions of B3U symmetry.
   264 basis functions,   414 primitive gaussians,   300 cartesian basis functions
    21 alpha electrons       21 beta electrons
       nuclear repulsion energy       204.0645416385 Hartrees.
 NAtoms=   12 NActive=   12 NUniq=    2 SFac= 4.00D+00 NAtFMM=   60 NAOKFM=F Big=F
 Integral buffers will be    131072 words long.
 Raffenetti 2 integral format.
 Two-electron integral symmetry is turned on.
 One-electron integrals computed using PRISM.
 NBasis=   264 RedAO= T EigKep=  1.98D-05  NBF=    50    40    18    24    18    24    50    40
 NBsUse=   264 1.00D-06 EigRej= -1.00D+00 NBFU=    50    40    18    24    18    24    50    40
 Initial guess from the checkpoint file:  "/wrk/irikura/Gau-24869.chk"
 B after Tr=     0.000000    0.000000    0.000000
         Rot=    1.000000    0.000000    0.000000    0.000000 Ang=   0.00 deg.
 Initial guess orbital symmetries:
       Occupied  (A1G) (E1U) (E1U) (E2G) (E2G) (B1U) (A1G) (E1U)
                 (E1U) (E2G) (E2G) (A1G) (B1U) (B2U) (E1U) (E1U)
                 (A2U) (E2G) (E2G) (E1G) (E1G)
       Virtual   (E2U) (E2U) (A1G) (E1U) (E1U) (E2G) (E2G) (B1U)
                 (B2G) (A1G) (A2U) (B2U) (E2G) (E2G) (E1G) (E1G)
                 (E1U) (E1U) (A1G) (E2U) (E2U) (B1U) (E1U) (E1U)
                 (E1U) (E1U) (E2G) (E2G) (B2G) (E2G) (E2G) (A1G)
                 (A2G) (B1U) (E1U) (E1U) (E2G) (E2G) (A2U) (E1U)
                 (E1U) (A2G) (E2G) (E2G) (B1U) (B1U) (E1G) (E1G)
                 (B1G) (A1G) (B2U) (E2U) (E2U) (E2G) (E2G) (A1G)
                 (E1U) (E1U) (B2G) (A1G) (E1U) (E1U) (A2U) (E2U)
                 (E2U) (A2G) (E2G) (E2G) (B1U) (E1G) (E1G) (A2U)
                 (E1G) (E1G) (E1U) (E1U) (B2U) (E1U) (E1U) (E2U)
                 (E2U) (E2G) (E2G) (B2G) (E1U) (E1U) (E1G) (E1G)
                 (E2G) (E2G) (E2U) (E2U) (A1G) (B1U) (E2G) (E2G)
                 (A1G) (E1U) (E1U) (B1U) (A1U) (B2U) (E2G) (E2G)
                 (A2G) (B2G) (A1G) (E2G) (E2G) (E1U) (E1U) (E1U)
                 (E1U) (A2G) (B1U) (E2G) (E2G) (E1U) (E1U) (B1G)
                 (A2U) (E2U) (E2U) (B2U) (E1G) (E1G) (B1U) (A2U)
                 (B2U) (A1G) (E1G) (E1G) (E2G) (E2G) (E1U) (E1U)
                 (E2U) (E2U) (A1G) (E2G) (E2G) (B1U) (E2G) (E2G)
                 (E1U) (E1U) (A1U) (B2G) (A2U) (E2G) (E2G) (E1G)
                 (E1G) (B1G) (A1G) (E1U) (E1U) (E2U) (E2U) (E2G)
                 (E2G) (E1U) (E1U) (E1U) (E1U) (E1G) (E1G) (A1G)
                 (A2G) (E2U) (E2U) (B1G) (B1U) (A2U) (E1G) (E1G)
                 (B1U) (E2G) (E2G) (E2U) (E2U) (E1G) (E1G) (B2G)
                 (B2U) (E2U) (E2U) (E1U) (E1U) (A2G) (A1U) (B2G)
                 (E2U) (E2U) (E2G) (E2G) (E1G) (E1G) (B1U) (E1U)
                 (E1U) (B2U) (B2G) (E2G) (E2G) (E1U) (E1U) (E2G)
                 (E2G) (A2G) (A2U) (A1G) (E1G) (E1G) (A1G) (B2U)
                 (B1U) (A1U) (E2G) (E2G) (E1U) (E1U) (E2U) (E2U)
                 (A2G) (E1U) (E1U) (A1G) (E2G) (E2G) (B2G) (E1U)
                 (E1U) (E2G) (E2G) (B1U) (E1U) (E1U) (B1U) (E2G)
                 (E2G) (A2G) (B1U)
 Requested convergence on RMS density matrix=1.00D-08 within 128 cycles.
 Requested convergence on MAX density matrix=1.00D-06.
 Requested convergence on             energy=1.00D-06.
 No special actions if energy rises.
 SCF Done:  E(RB3LYP) =  -232.339846625     A.U. after    6 cycles
            NFock=  6  Conv=0.31D-08     -V/T= 2.0039
 Calling FoFJK, ICntrl=      2127 FMM=F ISym2X=1 I1Cent= 0 IOpClX= 0 NMat=1 NMatS=1 NMatT=0.
 ***** Axes restored to original set *****
 -------------------------------------------------------------------
 Center     Atomic                   Forces (Hartrees/Bohr)
 Number     Number              X              Y              Z
 -------------------------------------------------------------------
      1        6          -0.000000000    0.000217321   -0.000000000
      2        6           0.000188206    0.000108661   -0.000000000
      3        6           0.000188206   -0.000108661   -0.000000000
      4        6          -0.000000000   -0.000217321    0.000000000
      5        6          -0.000188206   -0.000108661    0.000000000
      6        6          -0.000188206    0.000108661    0.000000000
      7        1           0.000000000    0.000072222    0.000000000
      8        1           0.000062546    0.000036111    0.000000000
      9        1           0.000062546   -0.000036111   -0.000000000
     10        1          -0.000000000   -0.000072222   -0.000000000
     11        1          -0.000062546   -0.000036111    0.000000000
     12        1          -0.000062546    0.000036111    0.000000000
 -------------------------------------------------------------------
 Cartesian Forces:  Max     0.000217321 RMS     0.000093492

 GradGradGradGradGradGradGradGradGradGradGradGradGradGradGradGradGradGrad
 Berny optimization.
 Using GEDIIS/GDIIS optimizer.
 FormGI is forming the generalized inverse of G from B-inverse, IUseBI=4.
 Internal  Forces:  Max     0.000289544 RMS     0.000099472
 Search for a local minimum.
 Step number   2 out of a maximum of   64
 All quantities printed in internal units (Hartrees-Bohrs-Radians)
 Mixed Optimization -- En-DIIS/RFO-DIIS
 Update second derivatives using D2CorX and points    1    2
 DE= -7.06D-05 DEPred=-7.67D-05 R= 9.20D-01
 TightC=F SS=  1.41D+00  RLast= 1.91D-02 DXNew= 5.0454D-01 5.7179D-02
 Trust test= 9.20D-01 RLast= 1.91D-02 DXMaxT set to 3.00D-01
 ITU=  1  0
 Use linear search instead of GDIIS.
     Eigenvalues ---    0.02169   0.02169   0.02169   0.02169   0.02169
     Eigenvalues ---    0.02169   0.02169   0.02169   0.02169   0.16000
     Eigenvalues ---    0.16000   0.16000   0.16000   0.16000   0.16000
     Eigenvalues ---    0.22000   0.22000   0.22000   0.35406   0.35467
     Eigenvalues ---    0.35467   0.35467   0.35467   0.35467   0.42246
     Eigenvalues ---    0.42246   0.46643   0.46643   0.46643   0.50585
 RFO step:  Lambda=-1.10212410D-07 EMin= 2.16914287D-02
 Quartic linear search produced a step of -0.07545.
 Iteration  1 RMS(Cart)=  0.00031244 RMS(Int)=  0.00000000
 Iteration  2 RMS(Cart)=  0.00000000 RMS(Int)=  0.00000000
 ClnCor:  largest displacement from symmetrization is 3.57D-13 for atom     8.
 Variable       Old X    -DE/DX   Delta X   Delta X   Delta X     New X
                                 (Linear)    (Quad)   (Total)
    R1        2.62809   0.00029   0.00046   0.00011   0.00057   2.62866
    R2        2.62809   0.00029   0.00046   0.00011   0.00057   2.62866
    R3        2.04433   0.00007   0.00037  -0.00019   0.00018   2.04451
    R4        2.62809   0.00029   0.00046   0.00011   0.00057   2.62866
    R5        2.04433   0.00007   0.00037  -0.00019   0.00018   2.04451
    R6        2.62809   0.00029   0.00046   0.00011   0.00057   2.62866
    R7        2.04433   0.00007   0.00037  -0.00019   0.00018   2.04451
    R8        2.62809   0.00029   0.00046   0.00011   0.00057   2.62866
    R9        2.04433   0.00007   0.00037  -0.00019   0.00018   2.04451
   R10        2.62809   0.00029   0.00046   0.00011   0.00057   2.62866
   R11        2.04433   0.00007   0.00037  -0.00019   0.00018   2.04451
   R12        2.04433   0.00007   0.00037  -0.00019   0.00018   2.04451
    A1        2.09440  -0.00000   0.00000  -0.00000   0.00000   2.09440
    A2        2.09440  -0.00000   0.00000  -0.00000   0.00000   2.09440
    A3        2.09440   0.00000   0.00000   0.00000   0.00000   2.09440
    A4        2.09440   0.00000   0.00000   0.00000   0.00000   2.09440
    A5        2.09440   0.00000   0.00000   0.00000   0.00000   2.09440
    A6        2.09440  -0.00000   0.00000  -0.00000   0.00000   2.09440
    A7        2.09440   0.00000   0.00000   0.00000   0.00000   2.09440
    A8        2.09440  -0.00000   0.00000  -0.00000   0.00000   2.09440
    A9        2.09440   0.00000   0.00000   0.00000   0.00000   2.09440
   A10        2.09440  -0.00000   0.00000  -0.00000   0.00000   2.09440
   A11        2.09440   0.00000   0.00000   0.00000   0.00000   2.09440
   A12        2.09440   0.00000   0.00000   0.00000   0.00000   2.09440
   A13        2.09440   0.00000   0.00000   0.00000   0.00000   2.09440
   A14        2.09440  -0.00000   0.00000  -0.00000   0.00000   2.09440
   A15        2.09440  -0.00000   0.00000  -0.00000   0.00000   2.09440
   A16        2.09440   0.00000  -0.00000   0.00000   0.00000   2.09440
   A17        2.09440   0.00000   0.00000   0.00000   0.00000   2.09440
   A18        2.09440  -0.00000  -0.00000  -0.00000   0.00000   2.09440
    D1        0.00000   0.00000   0.00000   0.00000   0.00000   0.00000
    D2        3.14159   0.00000   0.00000   0.00000   0.00000   3.14159
    D3        3.14159   0.00000   0.00000   0.00000   0.00000   3.14159
    D4        0.00000   0.00000   0.00000   0.00000  -0.00000   0.00000
    D5        0.00000   0.00000   0.00000   0.00000   0.00000   0.00000
    D6        3.14159  -0.00000   0.00000  -0.00000   0.00000   3.14159
    D7        3.14159   0.00000   0.00000   0.00000   0.00000   3.14159
    D8        0.00000   0.00000   0.00000   0.00000   0.00000   0.00000
    D9        0.00000  -0.00000   0.00000  -0.00000   0.00000   0.00000
   D10        3.14159  -0.00000   0.00000  -0.00000   0.00000   3.14159
   D11        3.14159  -0.00000   0.00000  -0.00000   0.00000   3.14159
   D12        0.00000  -0.00000   0.00000  -0.00000   0.00000   0.00000
   D13        0.00000   0.00000   0.00000   0.00000   0.00000   0.00000
   D14        3.14159   0.00000   0.00000   0.00000   0.00000   3.14159
   D15        3.14159   0.00000   0.00000   0.00000   0.00000   3.14159
   D16        0.00000  -0.00000   0.00000  -0.00000  -0.00000   0.00000
   D17        0.00000   0.00000   0.00000   0.00000   0.00000   0.00000
   D18        3.14159  -0.00000   0.00000  -0.00000   0.00000   3.14159
   D19        3.14159   0.00000   0.00000   0.00000   0.00000   3.14159
   D20        0.00000   0.00000   0.00000   0.00000   0.00000   0.00000
   D21        0.00000  -0.00000   0.00000  -0.00000   0.00000   0.00000
   D22        3.14159  -0.00000   0.00000  -0.00000   0.00000   3.14159
   D23        3.14159  -0.00000   0.00000  -0.00000   0.00000   3.14159
   D24        0.00000   0.00000   0.00000   0.00000   0.00000   0.00000
         Item               Value     Threshold  Converged?
 Maximum Force            0.000290     0.000450     YES
 RMS     Force            0.000099     0.000300     YES
 Maximum Displacement     0.000747     0.001800     YES
 RMS     Displacement     0.000312     0.001200     YES
 Predicted change in Energy=-5.343066D-07
 Optimization completed.
    -- Stationary point found.
                           ----------------------------
                           !   Optimized Parameters   !
                           ! (Angstroms and Degrees)  !
 --------------------------                            --------------------------
 ! Name  Definition              Value          Derivative Info.                !
 --------------------------------------------------------------------------------
 ! R1    R(1,2)                  1.3907         -DE/DX =    0.0003              !
 ! R2    R(1,6)                  1.3907         -DE/DX =    0.0003              !
 ! R3    R(1,7)                  1.0818         -DE/DX =    0.0001              !
 ! R4    R(2,3)                  1.3907         -DE/DX =    0.0003              !
 ! R5    R(2,8)                  1.0818         -DE/DX =    0.0001              !
 ! R6    R(3,4)                  1.3907         -DE/DX =    0.0003              !
 ! R7    R(3,9)                  1.0818         -DE/DX =    0.0001              !
 ! R8    R(4,5)                  1.3907         -DE/DX =    0.0003              !
 ! R9    R(4,10)                 1.0818         -DE/DX =    0.0001              !
 ! R10   R(5,6)                  1.3907         -DE/DX =    0.0003              !
 ! R11   R(5,11)                 1.0818         -DE/DX =    0.0001              !
 ! R12   R(6,12)                 1.0818         -DE/DX =    0.0001              !
 ! A1    A(2,1,6)              120.0            -DE/DX =    0.0                 !
 ! A2    A(2,1,7)              120.0            -DE/DX =    0.0                 !
 ! A3    A(6,1,7)              120.0            -DE/DX =    0.0                 !
 ! A4    A(1,2,3)              120.0            -DE/DX =    0.0                 !
 ! A5    A(1,2,8)              120.0            -DE/DX =    0.0                 !
 ! A6    A(3,2,8)              120.0            -DE/DX =    0.0                 !
 ! A7    A(2,3,4)              120.0            -DE/DX =    0.0                 !
 ! A8    A(2,3,9)              120.0            -DE/DX =    0.0                 !
 ! A9    A(4,3,9)              120.0            -DE/DX =    0.0                 !
 ! A10   A(3,4,5)              120.0            -DE/DX =    0.0                 !
 ! A11   A(3,4,10)             120.0            -DE/DX =    0.0                 !
 ! A12   A(5,4,10)             120.0            -DE/DX =    0.0                 !
 ! A13   A(4,5,6)              120.0            -DE/DX =    0.0                 !
 ! A14   A(4,5,11)             120.0            -DE/DX =    0.0                 !
 ! A15   A(6,5,11)             120.0            -DE/DX =    0.0                 !
 ! A16   A(1,6,5)              120.0            -DE/DX =    0.0                 !
 ! A17   A(1,6,12)             120.0            -DE/DX =    0.0                 !
 ! A18   A(5,6,12)             120.0            -DE/DX =    0.0                 !
 ! D1    D(6,1,2,3)              0.0            -DE/DX =    0.0                 !
 ! D2    D(6,1,2,8)            180.0            -DE/DX =    0.0                 !
 ! D3    D(7,1,2,3)            180.0            -DE/DX =    0.0                 !
 ! D4    D(7,1,2,8)              0.0            -DE/DX =    0.0                 !
 ! D5    D(2,1,6,5)              0.0            -DE/DX =    0.0                 !
 ! D6    D(2,1,6,12)           180.0            -DE/DX =    0.0                 !
 ! D7    D(7,1,6,5)            180.0            -DE/DX =    0.0                 !
 ! D8    D(7,1,6,12)             0.0            -DE/DX =    0.0                 !
 ! D9    D(1,2,3,4)              0.0            -DE/DX =    0.0                 !
 ! D10   D(1,2,3,9)            180.0            -DE/DX =    0.0                 !
 ! D11   D(8,2,3,4)            180.0            -DE/DX =    0.0                 !
 ! D12   D(8,2,3,9)              0.0            -DE/DX =    0.0                 !
 ! D13   D(2,3,4,5)              0.0            -DE/DX =    0.0                 !
 ! D14   D(2,3,4,10)           180.0            -DE/DX =    0.0                 !
 ! D15   D(9,3,4,5)            180.0            -DE/DX =    0.0                 !
 ! D16   D(9,3,4,10)             0.0            -DE/DX =    0.0                 !
 ! D17   D(3,4,5,6)              0.0            -DE/DX =    0.0                 !
 ! D18   D(3,4,5,11)           180.0            -DE/DX =    0.0                 !
 ! D19   D(10,4,5,6)           180.0            -DE/DX =    0.0                 !
 ! D20   D(10,4,5,11)            0.0            -DE/DX =    0.0                 !
 ! D21   D(4,5,6,1)              0.0            -DE/DX =    0.0                 !
 ! D22   D(4,5,6,12)           180.0            -DE/DX =    0.0                 !
 ! D23   D(11,5,6,1)           180.0            -DE/DX =    0.0                 !
 ! D24   D(11,5,6,12)            0.0            -DE/DX =    0.0                 !
 --------------------------------------------------------------------------------
 GradGradGradGradGradGradGradGradGradGradGradGradGradGradGradGradGradGrad

                          Input orientation:                          
 ---------------------------------------------------------------------
 Center     Atomic      Atomic             Coordinates (Angstroms)
 Number     Number       Type             X           Y           Z
 ---------------------------------------------------------------------
      1          6           0        0.000000    1.390727    0.000000
      2          6           0        1.204405    0.695364    0.000000
      3          6           0        1.204405   -0.695364    0.000000
      4          6           0       -0.000000   -1.390727    0.000000
      5          6           0       -1.204405   -0.695364    0.000000
      6          6           0       -1.204405    0.695364    0.000000
      7          1           0        0.000000    2.472542    0.000000
      8          1           0        2.141284    1.236271    0.000000
      9          1           0        2.141284   -1.236271    0.000000
     10          1           0       -0.000000   -2.472542    0.000000
     11          1           0       -2.141284   -1.236271    0.000000
     12          1           0       -2.141284    1.236271    0.000000
 ---------------------------------------------------------------------
                    Distance matrix (angstroms):
                    1          2          3          4          5
     1  C    0.000000
     2  C    1.390727   0.000000
     3  C    2.408810   1.390727   0.000000
     4  C    2.781454   2.408810   1.390727   0.000000
     5  C    2.408810   2.781454   2.408810   1.390727   0.000000
     6  C    1.390727   2.408810   2.781454   2.408810   1.390727
     7  H    1.081815   2.146847   3.389132   3.863269   3.389132
     8  H    2.146847   1.081815   2.146847   3.389132   3.863269
     9  H    3.389132   2.146847   1.081815   2.146847   3.389132
    10  H    3.863269   3.389132   2.146847   1.081815   2.146847
    11  H    3.389132   3.863269   3.389132   2.146847   1.081815
    12  H    2.146847   3.389132   3.863269   3.389132   2.146847
                    6          7          8          9         10
     6  C    0.000000
     7  H    2.146847   0.000000
     8  H    3.389132   2.472542   0.000000
     9  H    3.863269   4.282568   2.472542   0.000000
    10  H    3.389132   4.945084   4.282568   2.472542   0.000000
    11  H    2.146847   4.282568   4.945084   4.282568   2.472542
    12  H    1.081815   2.472542   4.282568   4.945084   4.282568
                   11         12
    11  H    0.000000
    12  H    2.472542   0.000000
 Stoichiometry    C6H6
 Framework group  D6H[3C2'(HC.CH)]
 Deg. of freedom     2
 Full point group                 D6H     NOp  24
 Largest Abelian subgroup         D2H     NOp   8
 Largest concise Abelian subgroup D2      NOp   4
                         Standard orientation:                         
 ---------------------------------------------------------------------
 Center     Atomic      Atomic             Coordinates (Angstroms)
 Number     Number       Type             X           Y           Z
 ---------------------------------------------------------------------
      1          6           0        0.000000    1.390727    0.000000
      2          6           0        1.204405    0.695364    0.000000
      3          6           0        1.204405   -0.695364    0.000000
      4          6           0       -0.000000   -1.390727    0.000000
      5          6           0       -1.204405   -0.695364    0.000000
      6          6           0       -1.204405    0.695364    0.000000
      7          1           0        0.000000    2.472542    0.000000
      8          1           0        2.141284    1.236271    0.000000
      9          1           0        2.141284   -1.236271    0.000000
     10          1           0       -0.000000   -2.472542    0.000000
     11          1           0       -2.141284   -1.236271    0.000000
     12          1           0       -2.141284    1.236271    0.000000
 ---------------------------------------------------------------------
 Rotational constants (GHZ):           5.7356242           5.7356242           2.8678121

 **********************************************************************

            Population analysis using the SCF Density.

 **********************************************************************

 Orbital symmetries:
       Occupied  (A1G) (E1U) (E1U) (E2G) (E2G) (B1U) (A1G) (E1U)
                 (E1U) (E2G) (E2G) (A1G) (B1U) (B2U) (E1U) (E1U)
                 (A2U) (E2G) (E2G) (E1G) (E1G)
       Virtual   (E2U) (E2U) (A1G) (E1U) (E1U) (E2G) (E2G) (B1U)
                 (B2G) (A1G) (A2U) (B2U) (E2G) (E2G) (E1G) (E1G)
                 (E1U) (E1U) (A1G) (E2U) (E2U) (B1U) (E1U) (E1U)
                 (E1U) (E1U) (E2G) (E2G) (B2G) (E2G) (E2G) (A1G)
                 (A2G) (B1U) (E1U) (E1U) (E2G) (E2G) (A2U) (E1U)
                 (E1U) (A2G) (E2G) (E2G) (B1U) (B1U) (E1G) (E1G)
                 (B1G) (A1G) (B2U) (E2U) (E2U) (E2G) (E2G) (A1G)
                 (E1U) (E1U) (B2G) (A1G) (E1U) (E1U) (A2U) (E2U)
                 (E2U) (A2G) (E2G) (E2G) (B1U) (E1G) (E1G) (A2U)
                 (E1G) (E1G) (E1U) (E1U) (B2U) (E1U) (E1U) (E2U)
                 (E2U) (E2G) (E2G) (B2G) (E1U) (E1U) (E1G) (E1G)
                 (E2G) (E2G) (E2U) (E2U) (A1G) (B1U) (E2G) (E2G)
                 (A1G) (E1U) (E1U) (B1U) (A1U) (B2U) (E2G) (E2G)
                 (A2G) (B2G) (A1G) (E2G) (E2G) (E1U) (E1U) (E1U)
                 (E1U) (A2G) (B1U) (E2G) (E2G) (E1U) (E1U) (B1G)
                 (A2U) (E2U) (E2U) (B2U) (E1G) (E1G) (B1U) (A2U)
                 (B2U) (A1G) (E1G) (E1G) (E2G) (E2G) (E1U) (E1U)
                 (E2U) (E2U) (A1G) (E2G) (E2G) (B1U) (E2G) (E2G)
                 (E1U) (E1U) (A1U) (A2U) (B2G) (E2G) (E2G) (E1G)
                 (E1G) (B1G) (A1G) (E1U) (E1U) (E2U) (E2U) (E2G)
                 (E2G) (E1U) (E1U) (E1U) (E1U) (E1G) (E1G) (A1G)
                 (A2G) (E2U) (E2U) (B1G) (B1U) (A2U) (E1G) (E1G)
                 (B1U) (E2G) (E2G) (E2U) (E2U) (E1G) (E1G) (B2G)
                 (B2U) (E2U) (E2U) (E1U) (E1U) (A2G) (A1U) (B2G)
                 (E2U) (E2U) (E2G) (E2G) (E1G) (E1G) (B1U) (E1U)
                 (E1U) (B2U) (B2G) (E2G) (E2G) (E1U) (E1U) (E2G)
                 (E2G) (A2G) (A2U) (A1G) (E1G) (E1G) (A1G) (B2U)
                 (B1U) (A1U) (E2G) (E2G) (E1U) (E1U) (E2U) (E2U)
                 (A2G) (E1U) (E1U) (A1G) (E2G) (E2G) (B2G) (E1U)
                 (E1U) (E2G) (E2G) (B1U) (B1U) (E1U) (E1U) (E2G)
                 (E2G) (A2G) (B1U)
 The electronic state is 1-A1G.
 Alpha  occ. eigenvalues --  -10.17707 -10.17677 -10.17677 -10.17617 -10.17617
 Alpha  occ. eigenvalues --  -10.17587  -0.85924  -0.75032  -0.75032  -0.60722
 Alpha  occ. eigenvalues --   -0.60722  -0.52979  -0.46504  -0.45287  -0.42705
 Alpha  occ. eigenvalues --   -0.42705  -0.37445  -0.34967  -0.34967  -0.26059
 Alpha  occ. eigenvalues --   -0.26059
 Alpha virt. eigenvalues --   -0.01636  -0.01636   0.01555   0.04051   0.04051
 Alpha virt. eigenvalues --    0.06811   0.06811   0.09861   0.13594   0.15067
 Alpha virt. eigenvalues --    0.16590   0.17765   0.18823   0.18823   0.20025
 Alpha virt. eigenvalues --    0.20025   0.21799   0.21799   0.25872   0.27628
 Alpha virt. eigenvalues --    0.27628   0.28883   0.30287   0.30287   0.30844
 Alpha virt. eigenvalues --    0.30844   0.32836   0.32836   0.35007   0.37020
 Alpha virt. eigenvalues --    0.37020   0.38615   0.41961   0.42998   0.45685
 Alpha virt. eigenvalues --    0.45685   0.45920   0.45920   0.59429   0.59911
 Alpha virt. eigenvalues --    0.59911   0.63617   0.65155   0.65155   0.69363
 Alpha virt. eigenvalues --    0.72380   0.76431   0.76431   0.80162   0.84004
[...]
      5        6          -0.000188218   -0.000108668    0.000000000
      6        6          -0.000188218    0.000108668   -0.000000000
      7        1          -0.000000000    0.000072226   -0.000000000
      8        1           0.000062549    0.000036113   -0.000000000
      9        1           0.000062549   -0.000036113    0.000000000
     10        1           0.000000000   -0.000072226    0.000000000
     11        1          -0.000062549   -0.000036113    0.000000000
     12        1          -0.000062549    0.000036113   -0.000000000
 -------------------------------------------------------------------
 Cartesian Forces:  Max     0.000217336 RMS     0.000093498
 FormGI is forming the generalized inverse of G from B-inverse, IUseBI=4.

 GradGradGradGradGradGradGradGradGradGradGradGradGradGradGradGradGradGrad
 Berny optimization.
 Internal  Forces:  Max     0.000289561 RMS     0.000099478
 Search for a local minimum.
 Step number   1 out of a maximum of    2
 All quantities printed in internal units (Hartrees-Bohrs-Radians)
 Second derivative matrix not updated -- analytic derivatives used.
 ITU=  0
     Eigenvalues ---    0.01713   0.01713   0.01842   0.02376   0.02376
     Eigenvalues ---    0.02634   0.02917   0.02917   0.02951   0.10709
     Eigenvalues ---    0.11239   0.11239   0.12175   0.12645   0.12645
     Eigenvalues ---    0.19491   0.19491   0.19648   0.27811   0.35400
     Eigenvalues ---    0.35400   0.35741   0.35772   0.35772   0.35961
     Eigenvalues ---    0.41144   0.41144   0.46474   0.46474   0.51061
 Angle between quadratic step and forces=   4.04 degrees.
 Linear search not attempted -- first point.
 Iteration  1 RMS(Cart)=  0.00031217 RMS(Int)=  0.00000000
 Iteration  2 RMS(Cart)=  0.00000000 RMS(Int)=  0.00000000
 ClnCor:  largest displacement from symmetrization is 4.06D-13 for atom     8.
 Variable       Old X    -DE/DX   Delta X   Delta X   Delta X     New X
                                 (Linear)    (Quad)   (Total)
    R1        2.62809   0.00029   0.00000   0.00056   0.00056   2.62866
    R2        2.62809   0.00029   0.00000   0.00056   0.00056   2.62866
    R3        2.04433   0.00007   0.00000   0.00018   0.00018   2.04452
    R4        2.62809   0.00029   0.00000   0.00056   0.00056   2.62866
    R5        2.04433   0.00007   0.00000   0.00018   0.00018   2.04452
    R6        2.62809   0.00029   0.00000   0.00056   0.00056   2.62866
    R7        2.04433   0.00007   0.00000   0.00018   0.00018   2.04452
    R8        2.62809   0.00029   0.00000   0.00056   0.00056   2.62866
    R9        2.04433   0.00007   0.00000   0.00018   0.00018   2.04452
   R10        2.62809   0.00029   0.00000   0.00056   0.00056   2.62866
   R11        2.04433   0.00007   0.00000   0.00018   0.00018   2.04452
   R12        2.04433   0.00007   0.00000   0.00018   0.00018   2.04452
    A1        2.09440  -0.00000   0.00000  -0.00000   0.00000   2.09440
    A2        2.09440   0.00000   0.00000   0.00000   0.00000   2.09440
    A3        2.09440   0.00000   0.00000   0.00000   0.00000   2.09440
    A4        2.09440   0.00000   0.00000   0.00000   0.00000   2.09440
    A5        2.09440  -0.00000   0.00000  -0.00000   0.00000   2.09440
    A6        2.09440  -0.00000   0.00000  -0.00000   0.00000   2.09440
    A7        2.09440  -0.00000   0.00000  -0.00000   0.00000   2.09440
    A8        2.09440   0.00000   0.00000   0.00000   0.00000   2.09440
    A9        2.09440   0.00000   0.00000   0.00000  -0.00000   2.09440
   A10        2.09440  -0.00000   0.00000  -0.00000   0.00000   2.09440
   A11        2.09440   0.00000   0.00000   0.00000   0.00000   2.09440
   A12        2.09440   0.00000   0.00000  -0.00000   0.00000   2.09440
   A13        2.09440   0.00000   0.00000   0.00000   0.00000   2.09440
   A14        2.09440  -0.00000   0.00000  -0.00000   0.00000   2.09440
   A15        2.09440  -0.00000   0.00000  -0.00000   0.00000   2.09440
   A16        2.09440  -0.00000   0.00000  -0.00000   0.00000   2.09440
   A17        2.09440  -0.00000   0.00000  -0.00000   0.00000   2.09440
   A18        2.09440   0.00000   0.00000   0.00000   0.00000   2.09440
    D1        0.00000   0.00000   0.00000   0.00000   0.00000   0.00000
    D2        3.14159   0.00000   0.00000   0.00000   0.00000   3.14159
    D3        3.14159  -0.00000   0.00000  -0.00000   0.00000   3.14159
    D4        0.00000  -0.00000   0.00000  -0.00000  -0.00000   0.00000
    D5        0.00000  -0.00000   0.00000  -0.00000   0.00000   0.00000
    D6        3.14159  -0.00000   0.00000  -0.00000   0.00000   3.14159
    D7        3.14159   0.00000   0.00000   0.00000   0.00000   3.14159
    D8        0.00000   0.00000   0.00000   0.00000   0.00000   0.00000
    D9        0.00000  -0.00000   0.00000  -0.00000   0.00000   0.00000
   D10        3.14159  -0.00000   0.00000  -0.00000   0.00000   3.14159
   D11        3.14159  -0.00000   0.00000  -0.00000   0.00000   3.14159
   D12        0.00000  -0.00000   0.00000  -0.00000  -0.00000   0.00000
   D13        0.00000   0.00000   0.00000   0.00000   0.00000   0.00000
   D14        3.14159  -0.00000   0.00000  -0.00000   0.00000   3.14159
   D15        3.14159   0.00000   0.00000   0.00000   0.00000   3.14159
   D16        0.00000  -0.00000   0.00000  -0.00000   0.00000   0.00000
   D17        0.00000   0.00000   0.00000   0.00000   0.00000   0.00000
   D18        3.14159  -0.00000   0.00000  -0.00000   0.00000   3.14159
   D19        3.14159   0.00000   0.00000   0.00000   0.00000   3.14159
   D20        0.00000   0.00000   0.00000   0.00000   0.00000   0.00000
   D21        0.00000  -0.00000   0.00000  -0.00000   0.00000   0.00000
   D22        3.14159   0.00000   0.00000   0.00000   0.00000   3.14159
   D23        3.14159   0.00000   0.00000   0.00000   0.00000   3.14159
   D24        0.00000   0.00000   0.00000   0.00000  -0.00000   0.00000
         Item               Value     Threshold  Converged?
 Maximum Force            0.000290     0.000450     YES
 RMS     Force            0.000099     0.000300     YES
 Maximum Displacement     0.000748     0.001800     YES
 RMS     Displacement     0.000312     0.001200     YES
 Predicted change in Energy=-5.296991D-07
 Optimization completed.
    -- Stationary point found.
                           ----------------------------
                           !   Optimized Parameters   !
                           ! (Angstroms and Degrees)  !
 --------------------------                            --------------------------
 ! Name  Definition              Value          Derivative Info.                !
 --------------------------------------------------------------------------------
 ! R1    R(1,2)                  1.3907         -DE/DX =    0.0003              !
 ! R2    R(1,6)                  1.3907         -DE/DX =    0.0003              !
 ! R3    R(1,7)                  1.0818         -DE/DX =    0.0001              !
 ! R4    R(2,3)                  1.3907         -DE/DX =    0.0003              !
 ! R5    R(2,8)                  1.0818         -DE/DX =    0.0001              !
 ! R6    R(3,4)                  1.3907         -DE/DX =    0.0003              !
 ! R7    R(3,9)                  1.0818         -DE/DX =    0.0001              !
 ! R8    R(4,5)                  1.3907         -DE/DX =    0.0003              !
 ! R9    R(4,10)                 1.0818         -DE/DX =    0.0001              !
 ! R10   R(5,6)                  1.3907         -DE/DX =    0.0003              !
 ! R11   R(5,11)                 1.0818         -DE/DX =    0.0001              !
 ! R12   R(6,12)                 1.0818         -DE/DX =    0.0001              !
 ! A1    A(2,1,6)              120.0            -DE/DX =    0.0                 !
 ! A2    A(2,1,7)              120.0            -DE/DX =    0.0                 !
 ! A3    A(6,1,7)              120.0            -DE/DX =    0.0                 !
 ! A4    A(1,2,3)              120.0            -DE/DX =    0.0                 !
 ! A5    A(1,2,8)              120.0            -DE/DX =    0.0                 !
 ! A6    A(3,2,8)              120.0            -DE/DX =    0.0                 !
 ! A7    A(2,3,4)              120.0            -DE/DX =    0.0                 !
 ! A8    A(2,3,9)              120.0            -DE/DX =    0.0                 !
 ! A9    A(4,3,9)              120.0            -DE/DX =    0.0                 !
 ! A10   A(3,4,5)              120.0            -DE/DX =    0.0                 !
 ! A11   A(3,4,10)             120.0            -DE/DX =    0.0                 !
 ! A12   A(5,4,10)             120.0            -DE/DX =    0.0                 !
 ! A13   A(4,5,6)              120.0            -DE/DX =    0.0                 !
 ! A14   A(4,5,11)             120.0            -DE/DX =    0.0                 !
 ! A15   A(6,5,11)             120.0            -DE/DX =    0.0                 !
 ! A16   A(1,6,5)              120.0            -DE/DX =    0.0                 !
 ! A17   A(1,6,12)             120.0            -DE/DX =    0.0                 !
 ! A18   A(5,6,12)             120.0            -DE/DX =    0.0                 !
 ! D1    D(6,1,2,3)              0.0            -DE/DX =    0.0                 !
 ! D2    D(6,1,2,8)            180.0            -DE/DX =    0.0                 !
 ! D3    D(7,1,2,3)            180.0            -DE/DX =    0.0                 !
 ! D4    D(7,1,2,8)              0.0            -DE/DX =    0.0                 !
 ! D5    D(2,1,6,5)              0.0            -DE/DX =    0.0                 !
 ! D6    D(2,1,6,12)           180.0            -DE/DX =    0.0                 !
 ! D7    D(7,1,6,5)            180.0            -DE/DX =    0.0                 !
 ! D8    D(7,1,6,12)             0.0            -DE/DX =    0.0                 !
 ! D9    D(1,2,3,4)              0.0            -DE/DX =    0.0                 !
 ! D10   D(1,2,3,9)            180.0            -DE/DX =    0.0                 !
 ! D11   D(8,2,3,4)            180.0            -DE/DX =    0.0                 !
 ! D12   D(8,2,3,9)              0.0            -DE/DX =    0.0                 !
 ! D13   D(2,3,4,5)              0.0            -DE/DX =    0.0                 !
 ! D14   D(2,3,4,10)           180.0            -DE/DX =    0.0                 !
 ! D15   D(9,3,4,5)            180.0            -DE/DX =    0.0                 !
 ! D16   D(9,3,4,10)             0.0            -DE/DX =    0.0                 !
 ! D17   D(3,4,5,6)              0.0            -DE/DX =    0.0                 !
 ! D18   D(3,4,5,11)           180.0            -DE/DX =    0.0                 !
 ! D19   D(10,4,5,6)           180.0            -DE/DX =    0.0                 !
 ! D20   D(10,4,5,11)            0.0            -DE/DX =    0.0                 !
 ! D21   D(4,5,6,1)              0.0            -DE/DX =    0.0                 !
 ! D22   D(4,5,6,12)           180.0            -DE/DX =    0.0                 !
 ! D23   D(11,5,6,1)           180.0            -DE/DX =    0.0                 !
 ! D24   D(11,5,6,12)            0.0            -DE/DX =    0.0                 !
 --------------------------------------------------------------------------------
 GradGradGradGradGradGradGradGradGradGradGradGradGradGradGradGradGradGrad

 Dipole is zero, so no output in dipole orientation.

 ----------------------------------------------------------------------

 Electric dipole moment (input orientation):
 (Debye = 10**-18 statcoulomb cm , SI units = C m)
                  (au)            (Debye)         (10**-30 SI)
   Tot        0.000000D+00      0.000000D+00      0.000000D+00
   x          0.000000D+00      0.000000D+00      0.000000D+00
   y          0.000000D+00      0.000000D+00      0.000000D+00
   z          0.000000D+00      0.000000D+00      0.000000D+00

 Dipole polarizability, Alpha (input orientation).
 (esu units = cm**3 , SI units = C**2 m**2 J**-1)
 Alpha(0;0):
               (au)            (10**-24 esu)      (10**-40 SI)
   iso        0.653534D+02      0.968437D+01      0.107753D+02
   aniso      0.392585D+02      0.581752D+01      0.647286D+01
   xx         0.784390D+02      0.116235D+02      0.129328D+02
   yx         0.000000D+00      0.000000D+00      0.000000D+00
   yy         0.784401D+02      0.116236D+02      0.129330D+02
   zx         0.000000D+00      0.000000D+00      0.000000D+00
   zy         0.000000D+00      0.000000D+00      0.000000D+00
   zz         0.391810D+02      0.580602D+01      0.646007D+01

 ----------------------------------------------------------------------
 1\1\GINC-GAMBA\Freq\RB3LYP\Gen\C6H6\IRIKURA\24-Feb-2022\0\\#N Geom=All
 Check Guess=TCheck SCRF=Check GenChk RB3LYP/ChkBas Freq\\benzene, B3LY
 P/pcseg-2\\0,1\C,0.,1.3907271411,0.\C,1.2044050339,0.6953635706,0.\C,1
 .2044050339,-0.6953635706,0.\C,0.,-1.3907271411,0.\C,-1.2044050339,-0.
 6953635706,0.\C,-1.2044050339,0.6953635706,0.\H,0.,2.4725418294,0.\H,2
 .1412840362,1.2362709147,0.\H,2.1412840362,-1.2362709147,0.\H,0.,-2.47
 25418294,0.\H,-2.1412840362,-1.2362709147,0.\H,-2.1412840362,1.2362709
 147,0.\\Version=ES64L-G16RevB.01\State=1-A1G\HF=-232.3398466\RMSD=3.94
 8e-10\RMSF=9.350e-05\ZeroPoint=0.1004825\Thermal=0.1048606\Dipole=0.,0
 .,0.\DipoleDeriv=-0.0555955,0.,0.,0.,0.096314,0.,0.,0.,-0.1362536,0.05
 83336,0.0657752,0.,0.0657581,-0.0176196,0.,0.,0.,-0.1362486,0.0583336,
 -0.0657752,0.,-0.0657581,-0.0176196,0.,0.,0.,-0.1362486,-0.0555955,0.,
 0.,0.,0.096314,0.,0.,0.,-0.1362536,0.0583336,0.0657752,0.,0.0657581,-0
 .0176196,0.,0.,0.,-0.1362486,0.0583336,-0.0657752,0.,-0.0657581,-0.017
 6196,0.,0.,0.,-0.1362486,0.0648718,0.,0.,0.,-0.1055923,0.,0.,0.,0.1362
 402,-0.0629725,-0.0738142,0.,-0.0738123,0.022258,0.,0.,0.,0.1362453,-0
 .0629725,0.0738142,0.,0.0738123,0.022258,0.,0.,0.,0.1362453,0.0648718,
 0.,0.,0.,-0.1055923,0.,0.,0.,0.1362402,-0.0629725,-0.0738142,0.,-0.073
 8123,0.022258,0.,0.,0.,0.1362453,-0.0629725,0.0738142,0.,0.0738123,0.0
 22258,0.,0.,0.,0.1362453\Polar=78.4390153,0.,78.4400544,0.,0.,39.18099
 25\Quadrupole=1.9058721,1.9058721,-3.8117442,0.,0.,0.\PG=D06H [3C2'(H1
 C1.C1H1)]\NImag=0\\0.65584615,0.,0.73876526,0.,0.,0.13833912,-0.279438
 61,0.11839649,0.,0.71803548,0.05394017,-0.17993999,0.,0.03590503,0.676
 57592,0.,0.,-0.06552242,0.,0.,0.13833912,0.03390913,0.03041223,0.,-0.1
 3019068,0.03222816,0.,0.71803548,0.07730161,-0.02827949,0.,-0.03222816
 ,-0.32918791,0.,-0.03590503,0.67657592,0.,0.,0.00838511,0.,0.,-0.06552
 242,0.,0.,0.13833912,-0.06883083,0.,0.,0.03390913,-0.07730161,0.,-0.27
 943861,-0.05394017,0.,0.65584615,0.,-0.00046939,0.,-0.03041223,-0.0282
 7949,0.,-0.11839649,-0.17993999,0.,0.,0.73876526,0.,0.,-0.00729071,0.,
 0.,0.00838511,0.,0.,-0.06552242,0.,0.,0.13833912,0.03390913,-0.0304122
 3,0.,-0.01755975,0.02960137,0.,-0.05937379,-0.02344469,0.,-0.27943861,
 0.11839649,0.,0.71803548,-0.07730161,-0.02827949,0.,0.02960137,-0.0517
 4047,0.,0.02344469,0.06500344,0.,0.05394017,-0.17993999,0.,0.03590503,
 0.67657592,0.,0.,0.00838511,0.,0.,-0.00729071,0.,0.,0.00838511,0.,0.,-
 0.06552242,0.,0.,0.13833912,-0.27943861,-0.11839649,0.,-0.05937379,0.0
 2344469,0.,-0.01755975,-0.02960137,0.,0.03390913,0.03041223,0.,-0.1301
 9068,0.03222816,0.,0.71803548,-0.05394017,-0.17993999,0.,-0.02344469,0
 .06500344,0.,-0.02960137,-0.05174047,0.,0.07730161,-0.02827949,0.,-0.0
 3222816,-0.32918791,0.,-0.03590503,0.67657592,0.,0.,-0.06552242,0.,0.,
 0.00838511,0.,0.,-0.00729071,0.,0.,0.00838511,0.,0.,-0.06552242,0.,0.,
 0.13833912,-0.05989805,0.,0.,0.00461216,0.02882314,0.,-0.00451532,0.00
 239663,0.,-0.00129057,0.,0.,-0.00451532,-0.00239663,0.,0.00461216,-0.0
 2882314,0.,0.05869534,0.,-0.33509121,0.,-0.00239512,-0.01192071,0.,0.0
 0327551,0.00069522,0.,0.,0.00072359,0.,-0.00327551,0.00069522,0.,0.002
 39512,-0.01192071,0.,0.,0.35647559,0.,0.,-0.03760749,0.,0.,0.00356205,
 0.,0.,0.00733578,0.,0.,-0.00096189,0.,0.,0.00733578,0.,0.,0.00356205,0
 .,0.,0.02585421,-0.01923115,-0.01616107,0.,-0.26629292,-0.11916213,0.,
 0.00365617,0.00184319,0.,0.00184869,0.00039876,0.,0.00022005,0.0008721
 6,0.,-0.00306353,0.00411370,0.,0.00106274,0.00029302,0.,0.28203053,0.0
 1505719,0.01192261,0.,-0.11916213,-0.12869634,0.,-0.02937507,-0.010964
 72,0.,0.00127763,-0.00566880,0.,0.00087216,-0.00078703,0.,0.00323483,-
 0.00075658,0.,-0.00061167,0.00087877,0.,0.12894263,0.13314040,0.,0.,0.
 00356205,0.,0.,-0.03760749,0.,0.,0.00356205,0.,0.,0.00733578,0.,0.,-0.
 00096189,0.,0.,0.00733578,0.,0.,-0.00413154,0.,0.,0.02585421,0.0018486
 9,-0.00039876,0.,0.00365617,-0.00184319,0.,-0.26629292,0.11916213,0.,-
 0.01923115,0.01616107,0.,-0.00306353,-0.00411370,0.,0.00022005,-0.0008
 7216,0.,0.00002233,-0.00020090,0.,0.00078678,0.00045235,0.,0.28203053,
 -0.00127763,-0.00566880,0.,0.02937507,-0.01096472,0.,0.11916213,-0.128
 69634,0.,-0.01505719,0.01192261,0.,-0.00323483,-0.00075658,0.,-0.00087
 216,-0.00078703,0.,0.00140465,-0.00067265,0.,-0.00045235,0.00115472,0.
 ,-0.12894263,0.13314040,0.,0.,0.00733578,0.,0.,0.00356205,0.,0.,-0.037
 60749,0.,0.,0.00356205,0.,0.,0.00733578,0.,0.,-0.00096189,0.,0.,0.0001
 7973,0.,0.,-0.00413154,0.,0.,0.02585421,-0.00129057,0.,0.,-0.00451532,
 -0.00239663,0.,0.00461216,-0.02882314,0.,-0.05989805,0.,0.,0.00461216,
 0.02882314,0.,-0.00451532,0.00239663,0.,0.00012931,0.,0.,0.00002233,-0
 .00140465,0.,0.00106274,0.00061167,0.,0.05869534,0.,0.00072359,0.,-0.0
 0327551,0.00069522,0.,0.00239512,-0.01192071,0.,0.,-0.33509121,0.,-0.0
 0239512,-0.01192071,0.,0.00327551,0.00069522,0.,0.,-0.00006879,0.,0.00
 020090,-0.00067265,0.,-0.00029302,0.00087877,0.,0.,0.35647559,0.,0.,-0
 .00096189,0.,0.,0.00733578,0.,0.,0.00356205,0.,0.,-0.03760749,0.,0.,0.
 00356205,0.,0.,0.00733578,0.,0.,-0.00117694,0.,0.,0.00017973,0.,0.,-0.
 00413154,0.,0.,0.02585421,0.00184869,0.00039876,0.,0.00022005,0.000872
 16,0.,-0.00306353,0.00411370,0.,-0.01923115,-0.01616107,0.,-0.26629292
 ,-0.11916213,0.,0.00365617,0.00184319,0.,0.00002233,0.00020090,0.,-0.0
 0001927,-0.00008578,0.,-0.00102015,-0.00080278,0.,0.00106274,0.0002930
 2,0.,0.28203053,0.00127763,-0.00566880,0.,0.00087216,-0.00078703,0.,0.
 00323483,-0.00075658,0.,0.01505719,0.01192261,0.,-0.11916213,-0.128696
 34,0.,-0.02937507,-0.01096472,0.,-0.00140465,-0.00067265,0.,-0.0000857
 8,0.00007978,0.,0.00080278,0.00036983,0.,-0.00061167,0.00087877,0.,0.1
 2894263,0.13314040,0.,0.,0.00733578,0.,0.,-0.00096189,0.,0.,0.00733578
 ,0.,0.,0.00356205,0.,0.,-0.03760749,0.,0.,0.00356205,0.,0.,0.00017973,
 0.,0.,-0.00117694,0.,0.,0.00017973,0.,0.,-0.00413154,0.,0.,0.02585421,
 -0.01923115,0.01616107,0.,-0.00306353,-0.00411370,0.,0.00022005,-0.000
 87216,0.,0.00184869,-0.00039876,0.,0.00365617,-0.00184319,0.,-0.266292
 92,0.11916213,0.,0.00106274,-0.00029302,0.,-0.00102015,0.00080278,0.,-
 0.00001927,0.00008578,0.,0.00002233,-0.00020090,0.,0.00078678,0.000452
 35,0.,0.28203053,-0.01505719,0.01192261,0.,-0.00323483,-0.00075658,0.,
 -0.00087216,-0.00078703,0.,-0.00127763,-0.00566880,0.,0.02937507,-0.01
 096472,0.,0.11916213,-0.12869634,0.,0.00061167,0.00087877,0.,-0.000802
 78,0.00036983,0.,0.00008578,0.00007978,0.,0.00140465,-0.00067265,0.,-0
 .00045235,0.00115472,0.,-0.12894263,0.13314040,0.,0.,0.00356205,0.,0.,
 0.00733578,0.,0.,-0.00096189,0.,0.,0.00733578,0.,0.,0.00356205,0.,0.,-
 0.03760749,0.,0.,-0.00413154,0.,0.,0.00017973,0.,0.,-0.00117694,0.,0.,
 0.00017973,0.,0.,-0.00413154,0.,0.,0.02585421\\0.,-0.00021734,0.,-0.00
 018822,-0.00010867,0.,-0.00018822,0.00010867,0.,0.,0.00021734,0.,0.000
 18822,0.00010867,0.,0.00018822,-0.00010867,0.,0.,-0.00007223,0.,-0.000
 06255,-0.00003611,0.,-0.00006255,0.00003611,0.,0.,0.00007223,0.,0.0000
 6255,0.00003611,0.,0.00006255,-0.00003611,0.\\\@


      SCIENCE SANS CONSCIENCE N'EST QUE RUINE DE L'AME.

                                                  -- RABELAIS
 Job cpu time:       0 days  0 hours 12 minutes 22.3 seconds.
 Elapsed time:       0 days  0 hours  1 minutes 32.8 seconds.
 File lengths (MBytes):  RWF=     44 Int=      0 D2E=      0 Chk=      7 Scr=      1
 Normal termination of Gaussian 16 at Thu Feb 24 16:31:10 2022.
