 Entering Gaussian System, Link 0=g16
 AtFile(1): pcseg2.gbs
            -H     0
            S   4   1.00
                  0.754732D+02           0.427821D-02
                  0.113575D+02           0.328672D-01
                  0.260081D+01           0.159578D+00
                  0.735503D+00           0.500000D+00
            S   1   1.00
                  0.231761D+00           1.0000000
            S   1   1.00
                  0.741675D-01           1.0000000
            P   1   1.00
                  0.160000D+01           1.0000000
            P   1   1.00
                  0.450000D+00           1.0000000
            D   1   1.00
                  0.125000D+01           1.0000000
            ****
            -C     0
            S   7   1.00
                  0.731999D+04           0.695369D-03
                  0.109818D+04           0.537138D-02
                  0.250014D+03           0.274734D-01
                  0.707586D+02           0.105078D+00
                  0.228595D+02           0.291262D+00
                  0.803936D+01           0.500000D+00
                  0.289309D+01           0.362224D+00
            S   2   1.00
                  0.521640D+01          -0.957844D-01
                  0.556124D+00           0.500000D+00
            S   1   1.00
                  0.228813D+00           1.0000000
            S   1   1.00
                  0.936338D-01           1.0000000
            P   4   1.00
                  0.339855D+02           0.818395D-02
                  0.772957D+01           0.586921D-01
                  0.224954D+01           0.222514D+00
                  0.767681D+00           0.500000D+00
            P   1   1.00
                  0.263283D+00           1.0000000
            P   1   1.00
                  0.848744D-01           1.0000000
            D   1   1.00
                  0.140000D+01           1.0000000
            D   1   1.00
                  0.450000D+00           1.0000000
            F   1   1.00
                  0.950000D+00           1.0000000
            ****
            -O     0
            S   7   1.00
                  0.135887D+05           0.665492D-03
                  0.203847D+04           0.514222D-02
                  0.464041D+03           0.263472D-01
                  0.131339D+03           0.101500D+00
                  0.425340D+02           0.285877D+00
                  0.150429D+02           0.500000D+00
                  0.546616D+01           0.368211D+00
            S   2   1.00
                  0.100915D+02          -0.100084D+00
                  0.110429D+01           0.500000D+00
            S   1   1.00
                  0.448082D+00           1.0000000
            S   1   1.00
                  0.175325D+00           1.0000000
            P   4   1.00
                  0.608220D+02           0.908253D-02
                  0.140332D+02           0.645878D-01
                  0.418244D+01           0.241502D+00
                  0.142490D+01           0.500000D+00
            P   1   1.00
                  0.478741D+00           1.0000000
            P   1   1.00
                  0.146257D+00           1.0000000
            D   1   1.00
                  0.220000D+01           1.0000000
            D   1   1.00
                  0.650000D+00           1.0000000
            F   1   1.00
                  0.110000D+01           1.0000000
            ****
            -N     0
            S   7   1.00
                  0.101643D+05           0.682757D-03
                  0.152481D+04           0.527488D-02
                  0.347119D+03           0.270037D-01
                  0.982389D+02           0.103673D+00
                  0.317799D+02           0.289575D+00
                  0.112240D+02           0.500000D+00
                  0.406611D+01           0.364621D+00
            S   2   1.00
                  0.747898D+01          -0.975681D-01
                  0.805040D+00           0.500000D+00
            S   1   1.00
                  0.324626D+00           1.0000000
            S   1   1.00
                  0.128132D+00           1.0000000
            P   4   1.00
                  0.482704D+02           0.829547D-02
                  0.110815D+02           0.596223D-01
                  0.326643D+01           0.227889D+00
                  0.111680D+01           0.500000D+00
            P   1   1.00
                  0.382049D+00           1.0000000
            P   1   1.00
                  0.121222D+00           1.0000000
            D   1   1.00
                  0.180000D+01           1.0000000
            D   1   1.00
                  0.550000D+00           1.0000000
            F   1   1.00
                  0.102000D+01           1.0000000
            ****
            -F     0
            S   7   1.00
                  0.174507D+05           0.655972D-03
                  0.261768D+04           0.506944D-02
                  0.595857D+03           0.259899D-01
                  0.168651D+03           0.100353D+00
                  0.546654D+02           0.284095D+00
                  0.193717D+02           0.500000D+00
                  0.706202D+01           0.370721D+00
            S   2   1.00
                  0.131197D+02          -0.101997D+00
                  0.145046D+01           0.500000D+00
            S   1   1.00
                  0.588255D+00           1.0000000
            S   1   1.00
                  0.227960D+00           1.0000000
            P   4   1.00
                  0.779407D+02           0.931135D-02
                  0.180425D+02           0.663964D-01
                  0.542342D+01           0.246386D+00
                  0.184876D+01           0.500000D+00
            P   1   1.00
                  0.617455D+00           1.0000000
            P   1   1.00
                  0.185496D+00           1.0000000
            D   1   1.00
                  0.280000D+01           1.0000000
            D   1   1.00
                  0.800000D+00           1.0000000
            F   1   1.00
                  0.120000D+01           1.0000000
            ****
            -Cl     0
            S   8   1.00
                  0.154272D+06           0.222473D-03
                  0.231232D+05           0.172590D-02
                  0.526257D+04           0.899286D-02
                  0.148995D+04           0.367724D-01
                  0.485417D+03           0.121446D+00
                  0.174634D+03           0.304148D+00
                  0.672393D+02           0.500000D+00
                  0.265780D+02           0.360252D+00
            S   3   1.00
                  0.131826D+03          -0.531330D-01
                  0.400703D+02          -0.233346D+00
                  0.789448D+01           0.500000D+00
            S   2   1.00
                  0.427711D+01           0.500000D+00
                  0.196233D+01           0.370517D+00
            S   1   1.00
                  0.520793D+00           1.0000000
            S   1   1.00
                  0.181633D+00           1.0000000
            P   7   1.00
                  0.124440D+04           0.988206D-03
                  0.295109D+03           0.829674D-02
                  0.947224D+02           0.430906D-01
                  0.352588D+02           0.148443D+00
                  0.144211D+02           0.344744D+00
                  0.610371D+01           0.500000D+00
                  0.258886D+01           0.348278D+00
            P   2   1.00
                  0.109447D+02          -0.196768D-01
                  0.104413D+01           0.500000D+00
            P   1   1.00
                  0.376184D+00           1.0000000
            P   1   1.00
                  0.120613D+00           1.0000000
            D   1   1.00
                  0.231000D+01           1.0000000
            D   1   1.00
                  0.520000D+00           1.0000000
            F   1   1.00
                  0.720000D+00           1.0000000
            ****
            -S     0
            S   8   1.00
                  0.134700D+06           0.226231D-03
                  0.201904D+05           0.175488D-02
                  0.459528D+04           0.914190D-02
                  0.130109D+04           0.373551D-01
                  0.423902D+03           0.123121D+00
                  0.152485D+03           0.306801D+00
                  0.586925D+02           0.500000D+00
                  0.231461D+02           0.354358D+00
            S   3   1.00
                  0.116327D+03          -0.491772D-01
                  0.352841D+02          -0.215962D+00
                  0.677831D+01           0.500000D+00
            S   2   1.00
                  0.360404D+01           0.500000D+00
                  0.164871D+01           0.366278D+00
            S   1   1.00
                  0.421821D+00           1.0000000
            S   1   1.00
                  0.147554D+00           1.0000000
            P   7   1.00
                  0.104863D+04           0.105273D-02
                  0.248717D+03           0.879338D-02
                  0.797887D+02           0.453358D-01
                  0.296023D+02           0.154476D+00
                  0.120627D+02           0.352366D+00
                  0.507628D+01           0.500000D+00
                  0.213375D+01           0.346429D+00
            P   2   1.00
                  0.928958D+01          -0.185932D-01
                  0.837819D+00           0.500000D+00
            P   1   1.00
                  0.301495D+00           1.0000000
            P   1   1.00
                  0.974740D-01           1.0000000
            D   1   1.00
                  0.210000D+01           1.0000000
            D   1   1.00
                  0.480000D+00           1.0000000
            F   1   1.00
                  0.660000D+00           1.0000000
            ****
            -Br     0
            S    10   1.00
                  0.233625D+07           0.532336D-04
                  0.349961D+06           0.413715D-03
                  0.796444D+05           0.217123D-02
                  0.225555D+05           0.910109D-02
                  0.735546D+04           0.323789D-01
                  0.265352D+04           0.988755D-01
                  0.103517D+04           0.248138D+00
                  0.422205D+03           0.474328D+00
                  0.180035D+03           0.500000D+00
                  0.793308D+02           0.187769D+00
            S    4   1.00
                  0.620834D+03          -0.226511D-01
                  0.190829D+03          -0.109497D+00
                  0.312505D+02           0.500000D+00
                  0.135270D+02           0.492812D+00
            S    2   1.00
                  0.216097D+02          -0.165418D+00
                  0.372566D+01           0.500000D+00
            S    1   1.00
                  0.169770D+01           1.0000000
            S    1   1.00
                  0.489332D+00           1.0000000
            S    1   1.00
                  0.175712D+00           1.0000000
            P    8   1.00
                  0.960829D+04           0.478974D-03
                  0.227618D+04           0.417853D-02
                  0.736723D+03           0.229315D-01
                  0.281579D+03           0.892653D-01
                  0.118395D+03           0.255288D+00
                  0.527481D+02           0.479074D+00
                  0.245098D+02           0.500000D+00
                  0.112009D+02           0.200944D+00
            P    4   1.00
                  0.587849D+02          -0.189674D-01
                  0.918962D+01           0.264104D+00
                  0.413895D+01           0.500000D+00
                  0.184225D+01           0.319316D+00
            P    1   1.00
                  0.713862D+00           1.0000000
            P    1   1.00
                  0.274232D+00           1.0000000
            P    1   1.00
                  0.944411D-01           1.0000000
            D    7   1.00
                  0.398470D+03           0.204066D-02
                  0.118967D+03           0.175171D-01
                  0.450197D+02           0.829708D-01
                  0.190320D+02           0.236284D+00
                  0.855686D+01           0.428468D+00
                  0.382950D+01           0.500000D+00
                  0.166291D+01           0.349360D+00
            D    1   1.00
                  0.672953D+00           1.0000000
            D    1   1.00
                  0.252000D+00           1.0000000
            F    1   1.00
                  0.530000D+00           1.0000000
            ****
            -Si     0
            S    8   1.00
                  0.996133D+05           0.235546D-03
                  0.149311D+05           0.182707D-02
                  0.339820D+04           0.951425D-02
                  0.962140D+03           0.388172D-01
                  0.313430D+03           0.127328D+00
                  0.112683D+03           0.313522D+00
                  0.433372D+02           0.500000D+00
                  0.170029D+02           0.340347D+00
            S    3   1.00
                  0.884208D+02          -0.404451D-01
                  0.266756D+02          -0.178059D+00
                  0.479640D+01           0.500000D+00
            S    2   1.00
                  0.239385D+01           0.500000D+00
                  0.108333D+01           0.338016D+00
            S    1   1.00
                  0.252420D+00           1.0000000
            S    1   1.00
                  0.891210D-01           1.0000000
            P    7   1.00
                  0.709901D+03           0.123028D-02
                  0.168426D+03           0.101366D-01
                  0.539946D+02           0.511840D-01
                  0.198646D+02           0.169967D+00
                  0.801369D+01           0.370717D+00
                  0.331870D+01           0.500000D+00
                  0.136112D+01           0.344128D+00
            P    2   1.00
                  0.622158D+01          -0.166609D-01
                  0.503049D+00           0.500000D+00
            P    1   1.00
                  0.179848D+00           1.0000000
            P    1   1.00
                  0.591912D-01           1.0000000
            D    1   1.00
                  0.168000D+01           1.0000000
            D    1   1.00
                  0.380000D+00           1.0000000
            F    1   1.00
                  0.540000D+00           1.0000000
            ****
            -P     0
            S    8   1.00
                  0.116416D+06           0.230715D-03
                  0.174500D+05           0.178960D-02
                  0.397149D+04           0.932116D-02
                  0.112447D+04           0.380591D-01
                  0.366347D+03           0.125148D+00
                  0.131757D+03           0.310022D+00
                  0.506988D+02           0.500000D+00
                  0.199436D+02           0.347528D+00
            S    3   1.00
                  0.101878D+03          -0.446755D-01
                  0.308249D+02          -0.196376D+00
                  0.573688D+01           0.500000D+00
            S    2   1.00
                  0.296868D+01           0.500000D+00
                  0.135315D+01           0.355098D+00
            S    1   1.00
                  0.332196D+00           1.0000000
            S    1   1.00
                  0.116229D+00           1.0000000
            P    7   1.00
                  0.873928D+03           0.112375D-02
                  0.207298D+03           0.933330D-02
                  0.664628D+02           0.477213D-01
                  0.245665D+02           0.160733D+00
                  0.996820D+01           0.359760D+00
                  0.416536D+01           0.500000D+00
                  0.173022D+01           0.346593D+00
            P    2   1.00
                  0.772530D+01          -0.175718D-01
                  0.657252D+00           0.500000D+00
            P    1   1.00
                  0.239903D+00           1.0000000
            P    1   1.00
                  0.800988D-01           1.0000000
            D    1   1.00
                  0.189000D+01           1.0000000
            D    1   1.00
                  0.430000D+00           1.0000000
            F    1   1.00
                  0.600000D+00           1.0000000
            ****
            
 Initial command:
 /usr/local/apps/g16_b01_avx/g16/l1.exe "/wrk/irikura/Gau-10476.inp" -scrdir="/wrk/irikura/"
 Entering Link 1 = /usr/local/apps/g16_b01_avx/g16/l1.exe PID=     10478.
  
 Copyright (c) 1988-2017, Gaussian, Inc.  All Rights Reserved.
  
 This is part of the Gaussian(R) 16 program.  It is based on
 the Gaussian(R) 09 system (copyright 2009, Gaussian, Inc.),
 the Gaussian(R) 03 system (copyright 2003, Gaussian, Inc.),
 the Gaussian(R) 98 system (copyright 1998, Gaussian, Inc.),
 the Gaussian(R) 94 system (copyright 1995, Gaussian, Inc.),
 the Gaussian 92(TM) system (copyright 1992, Gaussian, Inc.),
 the Gaussian 90(TM) system (copyright 1990, Gaussian, Inc.),
 the Gaussian 88(TM) system (copyright 1988, Gaussian, Inc.),
 the Gaussian 86(TM) system (copyright 1986, Carnegie Mellon
 University), and the Gaussian 82(TM) system (copyright 1983,
 Carnegie Mellon University). Gaussian is a federally registered
 trademark of Gaussian, Inc.
  
 This software contains proprietary and confidential information,
 including trade secrets, belonging to Gaussian, Inc.
  
 This software is provided under written license and may be
 used, copied, transmitted, or stored only in accord with that
 written license.
  
 The following legend is applicable only to US Government
 contracts under FAR:
  
                    RESTRICTED RIGHTS LEGEND
  
 Use, reproduction and disclosure by the US Government is
 subject to restrictions as set forth in subparagraphs (a)
 and (c) of the Commercial Computer Software - Restricted
 Rights clause in FAR 52.227-19.
  
 Gaussian, Inc.
 340 Quinnipiac St., Bldg. 40, Wallingford CT 06492
  
  
 ---------------------------------------------------------------
 Warning -- This program may not be used in any manner that
 competes with the business of Gaussian, Inc. or will provide
 assistance to any competitor of Gaussian, Inc.  The licensee
 of this program is prohibited from giving any competitor of
 Gaussian, Inc. access to this program.  By using this program,
 the user acknowledges that Gaussian, Inc. is engaged in the
 business of creating and licensing software in the field of
 computational chemistry and represents and warrants to the
 licensee that it is not a competitor of Gaussian, Inc. and that
 it will not use this program in any manner prohibited above.
 ---------------------------------------------------------------
  

 Cite this work as:
 Gaussian 16, Revision B.01,
 M. J. Frisch, G. W. Trucks, H. B. Schlegel, G. E. Scuseria, 
 M. A. Robb, J. R. Cheeseman, G. Scalmani, V. Barone, 
 G. A. Petersson, H. Nakatsuji, X. Li, M. Caricato, A. V. Marenich, 
 J. Bloino, B. G. Janesko, R. Gomperts, B. Mennucci, H. P. Hratchian, 
 J. V. Ortiz, A. F. Izmaylov, J. L. Sonnenberg, D. Williams-Young, 
 F. Ding, F. Lipparini, F. Egidi, J. Goings, B. Peng, A. Petrone, 
 T. Henderson, D. Ranasinghe, V. G. Zakrzewski, J. Gao, N. Rega, 
 G. Zheng, W. Liang, M. Hada, M. Ehara, K. Toyota, R. Fukuda, 
 J. Hasegawa, M. Ishida, T. Nakajima, Y. Honda, O. Kitao, H. Nakai, 
 T. Vreven, K. Throssell, J. A. Montgomery, Jr., J. E. Peralta, 
 F. Ogliaro, M. J. Bearpark, J. J. Heyd, E. N. Brothers, K. N. Kudin, 
 V. N. Staroverov, T. A. Keith, R. Kobayashi, J. Normand, 
 K. Raghavachari, A. P. Rendell, J. C. Burant, S. S. Iyengar, 
 J. Tomasi, M. Cossi, J. M. Millam, M. Klene, C. Adamo, R. Cammi, 
 J. W. Ochterski, R. L. Martin, K. Morokuma, O. Farkas, 
 J. B. Foresman, and D. J. Fox, Gaussian, Inc., Wallingford CT, 2016.
 
 ******************************************
 Gaussian 16:  ES64L-G16RevB.01 20-Dec-2017
                16-Jun-2022 
 ******************************************
 %mem=1000mw
 %nprocs=12
 Will use up to   12 processors via shared memory.
 --------------------
 # b3lyp/gen opt freq
 --------------------
 1/18=20,19=15,26=3,38=1/1,3;
 2/9=110,12=2,17=6,18=5,40=1/2;
 3/5=7,11=2,25=1,30=1,71=1,74=-5/1,2,3;
 4//1;
 5/5=2,38=5/2;
 6/7=2,8=2,9=2,10=2,28=1/1;
 7//1,2,3,16;
 1/18=20,19=15,26=3/3(2);
 2/9=110/2;
 99//99;
 2/9=110/2;
 3/5=7,6=1,11=2,25=1,30=1,71=1,74=-5,82=7/1,2,3;
 4/5=5,16=3,69=1/1;
 5/5=2,38=5/2;
 7//1,2,3,16;
 1/18=20,19=15,26=3/3(-5);
 2/9=110/2;
 6/7=2,8=2,9=2,10=2,19=2,28=1/1;
 99/9=1/99;
 ---------------------
 benzyl, B3LYP/pcseg-2
 ---------------------
 Symbolic Z-matrix:
 Charge =  0 Multiplicity = 2
 C                     0.        0.        0.99357 
 C                     0.        1.21558   0.25122 
 C                     0.        1.20927  -1.13109 
 C                     0.        0.       -1.83573 
 C                     0.       -1.20927  -1.13109 
 C                     0.       -1.21558   0.25122 
 C                     0.        0.        2.39624 
 H                     0.        2.1563    0.7933 
 H                     0.        2.14951  -1.67332 
 H                     0.        0.       -2.92019 
 H                     0.       -2.14951  -1.67332 
 H                     0.       -2.1563    0.7933 
 H                     0.        0.92711   2.95716 
 H                     0.       -0.92711   2.95716 
 

 GradGradGradGradGradGradGradGradGradGradGradGradGradGradGradGradGradGrad
 Berny optimization.
 Initialization pass.
                           ----------------------------
                           !    Initial Parameters    !
                           ! (Angstroms and Degrees)  !
 --------------------------                            --------------------------
 ! Name  Definition              Value          Derivative Info.                !
 --------------------------------------------------------------------------------
 ! R1    R(1,2)                  1.4243         estimate D2E/DX2                !
 ! R2    R(1,6)                  1.4243         estimate D2E/DX2                !
 ! R3    R(1,7)                  1.4027         estimate D2E/DX2                !
 ! R4    R(2,3)                  1.3823         estimate D2E/DX2                !
 ! R5    R(2,8)                  1.0857         estimate D2E/DX2                !
 ! R6    R(3,4)                  1.3996         estimate D2E/DX2                !
 ! R7    R(3,9)                  1.0854         estimate D2E/DX2                !
 ! R8    R(4,5)                  1.3996         estimate D2E/DX2                !
 ! R9    R(4,10)                 1.0845         estimate D2E/DX2                !
 ! R10   R(5,6)                  1.3823         estimate D2E/DX2                !
 ! R11   R(5,11)                 1.0854         estimate D2E/DX2                !
 ! R12   R(6,12)                 1.0857         estimate D2E/DX2                !
 ! R13   R(7,13)                 1.0836         estimate D2E/DX2                !
 ! R14   R(7,14)                 1.0836         estimate D2E/DX2                !
 ! A1    A(2,1,6)              117.1751         estimate D2E/DX2                !
 ! A2    A(2,1,7)              121.4124         estimate D2E/DX2                !
 ! A3    A(6,1,7)              121.4124         estimate D2E/DX2                !
 ! A4    A(1,2,3)              121.1511         estimate D2E/DX2                !
 ! A5    A(1,2,8)              118.6355         estimate D2E/DX2                !
 ! A6    A(3,2,8)              120.2134         estimate D2E/DX2                !
 ! A7    A(2,3,4)              120.4904         estimate D2E/DX2                !
 ! A8    A(2,3,9)              119.7104         estimate D2E/DX2                !
 ! A9    A(4,3,9)              119.7991         estimate D2E/DX2                !
 ! A10   A(3,4,5)              119.5417         estimate D2E/DX2                !
 ! A11   A(3,4,10)             120.2292         estimate D2E/DX2                !
 ! A12   A(5,4,10)             120.2292         estimate D2E/DX2                !
 ! A13   A(4,5,6)              120.4904         estimate D2E/DX2                !
 ! A14   A(4,5,11)             119.7991         estimate D2E/DX2                !
 ! A15   A(6,5,11)             119.7104         estimate D2E/DX2                !
 ! A16   A(1,6,5)              121.1511         estimate D2E/DX2                !
 ! A17   A(1,6,12)             118.6355         estimate D2E/DX2                !
 ! A18   A(5,6,12)             120.2134         estimate D2E/DX2                !
 ! A19   A(1,7,13)             121.1749         estimate D2E/DX2                !
 ! A20   A(1,7,14)             121.1749         estimate D2E/DX2                !
 ! A21   A(13,7,14)            117.6502         estimate D2E/DX2                !
 ! D1    D(6,1,2,3)              0.0            estimate D2E/DX2                !
 ! D2    D(6,1,2,8)            180.0            estimate D2E/DX2                !
 ! D3    D(7,1,2,3)            180.0            estimate D2E/DX2                !
 ! D4    D(7,1,2,8)              0.0            estimate D2E/DX2                !
 ! D5    D(2,1,6,5)              0.0            estimate D2E/DX2                !
 ! D6    D(2,1,6,12)           180.0            estimate D2E/DX2                !
 ! D7    D(7,1,6,5)            180.0            estimate D2E/DX2                !
 ! D8    D(7,1,6,12)             0.0            estimate D2E/DX2                !
 ! D9    D(2,1,7,13)             0.0            estimate D2E/DX2                !
 ! D10   D(2,1,7,14)           180.0            estimate D2E/DX2                !
 ! D11   D(6,1,7,13)           180.0            estimate D2E/DX2                !
 ! D12   D(6,1,7,14)             0.0            estimate D2E/DX2                !
 ! D13   D(1,2,3,4)              0.0            estimate D2E/DX2                !
 ! D14   D(1,2,3,9)            180.0            estimate D2E/DX2                !
 ! D15   D(8,2,3,4)            180.0            estimate D2E/DX2                !
 ! D16   D(8,2,3,9)              0.0            estimate D2E/DX2                !
 ! D17   D(2,3,4,5)              0.0            estimate D2E/DX2                !
 ! D18   D(2,3,4,10)           180.0            estimate D2E/DX2                !
 ! D19   D(9,3,4,5)            180.0            estimate D2E/DX2                !
 ! D20   D(9,3,4,10)             0.0            estimate D2E/DX2                !
 ! D21   D(3,4,5,6)              0.0            estimate D2E/DX2                !
 ! D22   D(3,4,5,11)           180.0            estimate D2E/DX2                !
 ! D23   D(10,4,5,6)           180.0            estimate D2E/DX2                !
 ! D24   D(10,4,5,11)            0.0            estimate D2E/DX2                !
 ! D25   D(4,5,6,1)              0.0            estimate D2E/DX2                !
 ! D26   D(4,5,6,12)           180.0            estimate D2E/DX2                !
 ! D27   D(11,5,6,1)           180.0            estimate D2E/DX2                !
 ! D28   D(11,5,6,12)            0.0            estimate D2E/DX2                !
 --------------------------------------------------------------------------------
 Trust Radius=3.00D-01 FncErr=1.00D-07 GrdErr=1.00D-06 EigMax=2.50D+02 EigMin=1.00D-04
 Number of steps in this run=     73 maximum allowed number of steps=    100.
 GradGradGradGradGradGradGradGradGradGradGradGradGradGradGradGradGradGrad

                          Input orientation:                          
 ---------------------------------------------------------------------
 Center     Atomic      Atomic             Coordinates (Angstroms)
 Number     Number       Type             X           Y           Z
 ---------------------------------------------------------------------
      1          6           0        0.000000    0.000000    0.993570
      2          6           0        0.000000    1.215576    0.251217
      3          6           0        0.000000    1.209272   -1.131094
      4          6           0        0.000000    0.000000   -1.835731
      5          6           0        0.000000   -1.209272   -1.131094
      6          6           0        0.000000   -1.215576    0.251217
      7          6           0        0.000000    0.000000    2.396237
      8          1           0        0.000000    2.156298    0.793295
      9          1           0        0.000000    2.149513   -1.673324
     10          1           0        0.000000    0.000000   -2.920191
     11          1           0        0.000000   -2.149513   -1.673324
     12          1           0        0.000000   -2.156298    0.793295
     13          1           0        0.000000    0.927106    2.957157
     14          1           0        0.000000   -0.927106    2.957157
 ---------------------------------------------------------------------
                    Distance matrix (angstroms):
                    1          2          3          4          5
     1  C    0.000000
     2  C    1.424329   0.000000
     3  C    2.444695   1.382325   0.000000
     4  C    2.829301   2.415156   1.399590   0.000000
     5  C    2.444695   2.791177   2.418544   1.399590   0.000000
     6  C    1.424329   2.431152   2.791177   2.415156   1.382325
     7  C    1.402667   2.465509   3.728861   4.231968   3.728861
     8  H    2.165579   1.085729   2.144792   3.400206   3.876898
     9  H    3.425307   2.139181   1.085388   2.155640   3.402271
    10  H    3.913761   3.396388   2.159446   1.084460   2.159446
    11  H    3.425307   3.876555   3.402271   2.155640   1.085388
    12  H    2.165579   3.415170   3.876898   3.400206   2.144792
    13  H    2.171451   2.721273   4.097977   4.881731   4.612798
    14  H    2.171451   3.451550   4.612798   4.881731   4.097977
                    6          7          8          9         10
     6  C    0.000000
     7  C    2.465509   0.000000
     8  H    3.415170   2.686828   0.000000
     9  H    3.876555   4.602362   2.466628   0.000000
    10  H    3.396388   5.316428   4.294135   2.484972   0.000000
    11  H    2.139181   4.602362   4.962279   4.299026   2.484972
    12  H    1.085729   2.686828   4.312596   4.962279   4.294135
    13  H    3.451550   1.083585   2.488616   4.789116   5.950021
    14  H    2.721273   1.083585   3.766919   5.559401   5.950021
                   11         12         13         14
    11  H    0.000000
    12  H    2.466628   0.000000
    13  H    5.559401   3.766919   0.000000
    14  H    4.789116   2.488616   1.854212   0.000000
 Stoichiometry    C7H7(2)
 Framework group  C2V[C2(HCCC),SGV(C4H6)]
 Deg. of freedom    13
 Full point group                 C2V     NOp   4
 Largest Abelian subgroup         C2V     NOp   4
 Largest concise Abelian subgroup C2      NOp   2
                         Standard orientation:                         
 ---------------------------------------------------------------------
 Center     Atomic      Atomic             Coordinates (Angstroms)
 Number     Number       Type             X           Y           Z
 ---------------------------------------------------------------------
      1          6           0        0.000000    0.000000    0.993570
      2          6           0        0.000000    1.215576    0.251217
      3          6           0        0.000000    1.209272   -1.131094
      4          6           0        0.000000    0.000000   -1.835731
      5          6           0       -0.000000   -1.209272   -1.131094
      6          6           0       -0.000000   -1.215576    0.251217
      7          6           0        0.000000    0.000000    2.396237
      8          1           0        0.000000    2.156298    0.793295
      9          1           0        0.000000    2.149513   -1.673324
     10          1           0        0.000000    0.000000   -2.920191
     11          1           0       -0.000000   -2.149513   -1.673324
     12          1           0       -0.000000   -2.156298    0.793295
     13          1           0        0.000000    0.927106    2.957157
     14          1           0       -0.000000   -0.927106    2.957157
 ---------------------------------------------------------------------
 Rotational constants (GHZ):           5.5550339           2.7094493           1.8211765
 General basis read from cards:  (5D, 7F)
 There are   137 symmetry adapted cartesian basis functions of A1  symmetry.
 There are    44 symmetry adapted cartesian basis functions of A2  symmetry.
 There are    61 symmetry adapted cartesian basis functions of B1  symmetry.
 There are   108 symmetry adapted cartesian basis functions of B2  symmetry.
 There are   116 symmetry adapted basis functions of A1  symmetry.
 There are    42 symmetry adapted basis functions of A2  symmetry.
 There are    56 symmetry adapted basis functions of B1  symmetry.
 There are    94 symmetry adapted basis functions of B2  symmetry.
   308 basis functions,   483 primitive gaussians,   350 cartesian basis functions
    25 alpha electrons       24 beta electrons
       nuclear repulsion energy       260.1931505978 Hartrees.
 NAtoms=   14 NActive=   14 NUniq=    9 SFac= 2.42D+00 NAtFMM=   60 NAOKFM=F Big=F
 Integral buffers will be    131072 words long.
 Raffenetti 2 integral format.
 Two-electron integral symmetry is turned on.
 One-electron integrals computed using PRISM.
 NBasis=   308 RedAO= T EigKep=  2.02D-05  NBF=   116    42    56    94
 NBsUse=   308 1.00D-06 EigRej= -1.00D+00 NBFU=   116    42    56    94
 ExpMin= 7.42D-02 ExpMax= 7.32D+03 ExpMxC= 2.50D+02 IAcc=3 IRadAn=         5 AccDes= 0.00D+00
 Harris functional with IExCor=  402 and IRadAn=       5 diagonalized for initial guess.
 HarFok:  IExCor=  402 AccDes= 0.00D+00 IRadAn=         5 IDoV= 1 UseB2=F ITyADJ=14
 ICtDFT=  3500011 ScaDFX=  1.000000  1.000000  1.000000  1.000000
 FoFCou: FMM=F IPFlag=           0 FMFlag=      100000 FMFlg1=           0
         NFxFlg=           0 DoJE=T BraDBF=F KetDBF=T FulRan=T
         wScrn=  0.000000 ICntrl=       500 IOpCl=  0 I1Cent=   200000004 NGrid=           0
         NMat0=    1 NMatS0=      1 NMatT0=    0 NMatD0=    1 NMtDS0=    0 NMtDT0=    0
 Petite list used in FoFCou.
 Initial guess orbital symmetries:
 Alpha Orbitals:
       Occupied  (A1) (B2) (A1) (A1) (B2) (A1) (A1) (A1) (A1) (B2)
                 (A1) (B2) (A1) (A1) (B2) (A1) (B2) (A1) (B2) (A1)
                 (B1) (B2) (B1) (A2) (B1)
       Virtual   (A2) (B1) (A1) (B2) (B1) (A1) (A1) (B2) (B2) (A1)
                 (A1) (A1) (B1) (B2) (A1) (B2) (B1) (A1) (A2) (B2)
                 (A1) (A1) (B2) (B1) (A2) (A1) (A1) (B2) (A1) (B1)
                 (B2) (A1) (B2) (B2) (B1) (A1) (A1) (A1) (B2) (B2)
                 (A1) (A1) (B2) (A1) (B2) (B2) (A1) (B1) (A1) (B2)
                 (A1) (A2) (B2) (A1) (A2) (A2) (B1) (A1) (A2) (B1)
                 (B2) (A1) (B2) (A1) (A1) (B2) (B1) (A1) (B1) (A2)
                 (B2) (A1) (B2) (B1) (A1) (A1) (B2) (B1) (B2) (A1)
                 (A2) (B1) (A1) (B2) (B1) (A2) (B2) (A1) (B1) (B1)
                 (A2) (B2) (A1) (B2) (A2) (A1) (B1) (B2) (B1) (A1)
                 (B1) (A2) (A1) (B2) (A1) (A2) (A1) (B1) (B2) (A1)
                 (B2) (A1) (B2) (A1) (A1) (A1) (B2) (B2) (B2) (A2)
                 (A1) (A1) (B1) (B2) (B2) (A1) (A1) (B2) (B2) (A1)
                 (A1) (B2) (A1) (A1) (A1) (B2) (B2) (B2) (A2) (B1)
                 (B1) (A1) (A2) (B1) (A2) (B2) (A1) (B2) (B1) (A2)
                 (A1) (B1) (B1) (A2) (A1) (B2) (A1) (B2) (B2) (B1)
                 (A1) (B2) (A1) (A2) (B2) (A1) (A1) (A1) (B2) (A1)
                 (B1) (B2) (A2) (B1) (A2) (A1) (B1) (A2) (A1) (A1)
                 (B2) (A2) (A2) (B2) (B1) (B2) (B1) (A2) (A1) (B1)
                 (A1) (B2) (A1) (B1) (A1) (B2) (A2) (A1) (B2) (A2)
                 (A1) (A2) (B1) (B2) (B1) (A1) (B2) (A2) (B1) (A1)
                 (B1) (A2) (B2) (B1) (A2) (B1) (A1) (B1) (A2) (B2)
                 (A1) (B2) (A2) (B1) (B2) (B1) (A1) (A2) (A1) (A2)
                 (B2) (B1) (A1) (B1) (B2) (B2) (A1) (A1) (B1) (B2)
                 (A1) (B2) (B2) (A1) (B2) (A1) (B1) (A1) (A2) (A2)
                 (B1) (A1) (B2) (A1) (B2) (B1) (A1) (B2) (A2) (B2)
                 (A1) (B2) (A2) (A1) (B2) (A1) (A1) (B1) (B2) (A1)
                 (B2) (A1) (A1) (B2) (A1) (B2) (A1) (A1) (B2) (B2)
                 (A1) (B2) (A1)
 Beta  Orbitals:
       Occupied  (A1) (B2) (A1) (A1) (B2) (A1) (A1) (A1) (A1) (B2)
                 (A1) (B2) (A1) (A1) (B2) (A1) (B2) (A1) (B2) (A1)
                 (B1) (B2) (B1) (A2)
       Virtual   (B1) (A2) (B1) (A1) (B2) (B1) (A1) (A1) (B2) (B2)
                 (A1) (A1) (A1) (B1) (B2) (A1) (B2) (B1) (A1) (A2)
                 (B2) (A1) (A1) (B2) (B1) (A2) (A1) (A1) (B2) (A1)
                 (B1) (B2) (A1) (B2) (B2) (B1) (A1) (A1) (A1) (B2)
                 (B2) (A1) (A1) (B2) (A1) (B2) (B2) (A1) (B1) (A1)
                 (B2) (A1) (A2) (B2) (A1) (A2) (A2) (B1) (A1) (A2)
                 (B1) (B2) (A1) (B2) (A1) (A1) (B2) (B1) (A1) (B1)
                 (A2) (B2) (A1) (B2) (B1) (A1) (A1) (B2) (B1) (B2)
                 (A1) (A2) (B1) (A1) (B2) (B1) (A2) (B2) (A1) (B1)
                 (B1) (A2) (B2) (A1) (B2) (A2) (A1) (B1) (B2) (B1)
                 (A1) (B1) (A2) (A1) (B2) (A1) (A2) (A1) (B1) (B2)
                 (A1) (B2) (A1) (B2) (A1) (A1) (A1) (B2) (B2) (B2)
                 (A2) (A1) (A1) (B1) (B2) (B2) (A1) (A1) (B2) (B2)
                 (A1) (A1) (B2) (A1) (A1) (A1) (B2) (B2) (B2) (A2)
                 (B1) (B1) (A1) (A2) (B1) (A2) (B2) (A1) (B2) (B1)
                 (A2) (A1) (B1) (B1) (A2) (A1) (B2) (A1) (B2) (B2)
                 (B1) (A1) (B2) (A1) (A2) (B2) (A1) (A1) (A1) (B2)
                 (A1) (B1) (B2) (A2) (B1) (A2) (A1) (B1) (A2) (A1)
                 (A1) (B2) (A2) (A2) (B2) (B1) (B2) (B1) (A2) (A1)
                 (B1) (A1) (B2) (A1) (B1) (A1) (B2) (A2) (A1) (B2)
                 (A2) (A1) (A2) (B1) (B2) (B1) (A1) (B2) (A2) (B1)
                 (A1) (B1) (A2) (B2) (B1) (A2) (B1) (A1) (B1) (A2)
                 (B2) (A1) (B2) (A2) (B1) (B2) (B1) (A1) (A2) (A1)
                 (A2) (B2) (B1) (A1) (B1) (B2) (B2) (A1) (A1) (B1)
                 (B2) (A1) (B2) (B2) (A1) (B2) (A1) (B1) (A1) (A2)
                 (A2) (B1) (A1) (B2) (A1) (B2) (B1) (A1) (B2) (A2)
                 (B2) (A1) (B2) (A2) (A1) (B2) (A1) (A1) (B1) (B2)
                 (A1) (B2) (A1) (A1) (B2) (A1) (B2) (A1) (A1) (B2)
                 (B2) (A1) (B2) (A1)
 The electronic state of the initial guess is 2-B1.
 Initial guess <Sx>= 0.0000 <Sy>= 0.0000 <Sz>= 0.5000 <S**2>= 0.7500 S= 0.5000
 Requested convergence on RMS density matrix=1.00D-08 within 128 cycles.
 Requested convergence on MAX density matrix=1.00D-06.
 Requested convergence on             energy=1.00D-06.
 No special actions if energy rises.
 Integral accuracy reduced to 1.0D-05 until final iterations.
 Initial convergence to 1.0D-05 achieved.  Increase integral accuracy.
 SCF Done:  E(UB3LYP) =  -271.020132263     A.U. after   17 cycles
            NFock= 17  Conv=0.51D-08     -V/T= 2.0042
 <Sx>= 0.0000 <Sy>= 0.0000 <Sz>= 0.5000 <S**2>= 0.7803 S= 0.5150
 <L.S>=  0.00000000000    
 Annihilation of the first spin contaminant:
 S**2 before annihilation     0.7803,   after     0.7506

 **********************************************************************

            Population analysis using the SCF Density.

 **********************************************************************

 Orbital symmetries:
 Alpha Orbitals:
       Occupied  (A1) (A1) (A1) (B2) (A1) (B2) (A1) (A1) (A1) (B2)
                 (A1) (B2) (A1) (A1) (B2) (A1) (B2) (A1) (B2) (B1)
                 (A1) (B2) (B1) (A2) (B1)
       Virtual   (A2) (B1) (A1) (A1) (B2) (A1) (B2) (A1) (B2) (B1)
                 (A1) (A1) (B1) (B2) (A2) (B2) (B1) (A1) (A1) (B2)
                 (B1) (A1) (A2) (A1) (B2) (A1) (B1) (B2) (A1) (A1)
                 (B2) (B2) (B1) (A1) (A1) (B2) (A1) (A1) (B2) (B2)
                 (A1) (A1) (A1) (B2) (B2) (B2) (A1) (B1) (A1) (B2)
                 (B2) (A2) (A1) (A1) (A2) (B1) (A2) (A2) (A1) (B1)
                 (B2) (A1) (B2) (A1) (A1) (B2) (B1) (A1) (B1) (A1)
                 (B2) (B2) (A2) (A1) (B1) (A1) (B2) (B2) (B1) (A1)
                 (A2) (A1) (B1) (B2) (A2) (B1) (B2) (A1) (B1) (B1)
                 (A2) (B2) (A1) (B2) (A2) (A1) (B1) (B2) (B1) (A1)
                 (A1) (A2) (B1) (B2) (A1) (A2) (A1) (B1) (B2) (A1)
                 (B2) (A1) (B2) (A1) (A1) (A1) (B2) (B2) (A2) (B2)
                 (A1) (A1) (B1) (B2) (B2) (A1) (A1) (B2) (B2) (A1)
                 (A1) (B2) (A1) (A1) (A1) (B2) (B2) (B2) (A2) (B1)
                 (A1) (B1) (A2) (B1) (A2) (A1) (B2) (B1) (B2) (A2)
                 (B1) (A1) (B1) (A2) (B2) (A1) (A1) (B2) (B2) (B1)
                 (A1) (B2) (A1) (A2) (B2) (A1) (A1) (A1) (B2) (A1)
                 (B1) (B2) (A2) (A2) (B1) (A2) (A1) (B1) (A1) (A1)
                 (B2) (A2) (A2) (B2) (B1) (B2) (B1) (A1) (A2) (A1)
                 (B2) (B1) (A1) (A1) (B1) (B2) (A1) (B2) (A2) (A2)
                 (A1) (B1) (A2) (B1) (B2) (A1) (B2) (A2) (B1) (A1)
                 (A2) (B1) (B2) (B1) (A2) (B1) (A1) (A2) (B1) (B2)
                 (B2) (A1) (A2) (B1) (B2) (B1) (A1) (A2) (A1) (A2)
                 (B2) (B1) (B1) (A1) (B2) (A1) (B1) (B2) (A1) (B2)
                 (A1) (B2) (B2) (A1) (B1) (B2) (A1) (A1) (A2) (B1)
                 (A2) (A1) (B2) (A1) (B2) (B1) (A1) (B2) (A2) (A1)
                 (B2) (A2) (B2) (A1) (B2) (A1) (A1) (B1) (B2) (A1)
                 (B2) (A1) (A1) (B2) (A1) (B2) (A1) (A1) (B2) (B2)
                 (A1) (B2) (A1)
 Beta  Orbitals:
       Occupied  (A1) (A1) (B2) (A1) (B2) (A1) (A1) (A1) (A1) (B2)
                 (A1) (B2) (A1) (A1) (B2) (A1) (B2) (A1) (B2) (B1)
                 (A1) (B2) (B1) (A2)
       Virtual   (B1) (A2) (A1) (B1) (A1) (B2) (A1) (B2) (A1) (B2)
                 (B1) (A1) (A1) (B1) (B2) (A2) (B2) (A1) (A1) (B1)
                 (B2) (A1) (B1) (A2) (A1) (B2) (A1) (B1) (B2) (A1)
                 (B2) (A1) (B2) (B1) (A1) (A1) (B2) (A1) (A1) (B2)
                 (B2) (A1) (A1) (A1) (B2) (B2) (B2) (A1) (B1) (A1)
                 (B2) (B2) (A2) (A1) (A1) (A2) (B1) (A2) (A2) (A1)
                 (B2) (B1) (A1) (B2) (A1) (A1) (B2) (B1) (A1) (A1)
                 (B2) (B1) (B2) (A2) (A1) (B1) (A1) (B2) (B2) (B1)
                 (A1) (A2) (B2) (A1) (B1) (A2) (B1) (B2) (A1) (B1)
                 (B1) (A2) (B2) (A1) (B2) (A2) (A1) (B1) (B2) (B1)
                 (A1) (A1) (B1) (A2) (B2) (A1) (A2) (A1) (B1) (B2)
                 (A1) (B2) (A1) (B2) (A1) (A1) (A1) (B2) (B2) (A2)
                 (B2) (A1) (A1) (B1) (B2) (B2) (A1) (A1) (B2) (B2)
                 (A1) (A1) (B2) (A1) (A1) (A1) (B2) (B2) (B2) (A2)
                 (B1) (A1) (B1) (A2) (B1) (A2) (A1) (B2) (B1) (B2)
                 (A2) (B1) (A1) (B1) (B2) (A2) (A1) (A1) (B2) (B2)
                 (B1) (A1) (B2) (A2) (A1) (B2) (A1) (A1) (A1) (B2)
                 (A1) (B1) (B2) (A2) (A2) (B1) (A2) (A1) (B1) (A1)
                 (A1) (B2) (A2) (B2) (B1) (A2) (B2) (B1) (A1) (A2)
                 (A1) (B2) (A1) (B1) (A1) (B2) (A1) (B1) (A2) (B2)
                 (A2) (A1) (B1) (A2) (B2) (B1) (B2) (A1) (A2) (B1)
                 (A1) (A2) (B1) (B2) (B1) (A2) (B1) (A1) (A2) (B1)
                 (B2) (B2) (A1) (A2) (B1) (B2) (B1) (A1) (A2) (A1)
                 (A2) (B2) (B1) (B1) (A1) (B2) (A1) (B2) (B1) (A1)
                 (B2) (A1) (B2) (B2) (A1) (B1) (B2) (A1) (A1) (A2)
                 (B1) (A2) (A1) (B2) (A1) (B2) (B1) (A1) (B2) (A2)
                 (A1) (B2) (B2) (A2) (A1) (B2) (A1) (A1) (B1) (B2)
                 (A1) (B2) (A1) (A1) (B2) (A1) (B2) (A1) (A1) (B2)
                 (B2) (A1) (B2) (A1)
 The electronic state is 2-B1.
 Alpha  occ. eigenvalues --  -10.18851 -10.18241 -10.18163 -10.18134 -10.18132
 Alpha  occ. eigenvalues --  -10.17857 -10.17852  -0.86443  -0.78158  -0.75414
 Alpha  occ. eigenvalues --   -0.68306  -0.61131  -0.58649  -0.51816  -0.47486
 Alpha  occ. eigenvalues --   -0.46699  -0.42863  -0.42361  -0.40231  -0.38641
 Alpha  occ. eigenvalues --   -0.36173  -0.34381  -0.30273  -0.26925  -0.19154
 Alpha virt. eigenvalues --   -0.01986   0.00227   0.01650   0.03465   0.03652
 Alpha virt. eigenvalues --    0.06171   0.06467   0.09373   0.10287   0.11724
 Alpha virt. eigenvalues --    0.14128   0.14597   0.16464   0.18040   0.19716
 Alpha virt. eigenvalues --    0.20148   0.20419   0.20426   0.21561   0.23979
 Alpha virt. eigenvalues --    0.24670   0.25346   0.27076   0.27128   0.28035
 Alpha virt. eigenvalues --    0.29478   0.30417   0.31416   0.31980   0.32584
 Alpha virt. eigenvalues --    0.32837   0.34183   0.34962   0.35069   0.36861
 Alpha virt. eigenvalues --    0.37279   0.40134   0.41785   0.44495   0.45287
 Alpha virt. eigenvalues --    0.46981   0.49436   0.50635   0.52221   0.57296
 Alpha virt. eigenvalues --    0.59697   0.60962   0.62231   0.62824   0.63862
 Alpha virt. eigenvalues --    0.65463   0.66798   0.68433   0.70632   0.76029
 Alpha virt. eigenvalues --    0.77996   0.79915   0.84861   0.85369   0.86620
 Alpha virt. eigenvalues --    0.86940   0.92073   0.94514   0.97360   0.98648
 Alpha virt. eigenvalues --    0.99304   1.00301   1.01950   1.07554   1.07701
 Alpha virt. eigenvalues --    1.08313   1.09578   1.10370   1.11454   1.13145
 Alpha virt. eigenvalues --    1.15379   1.15740   1.17850   1.18192   1.21184
 Alpha virt. eigenvalues --    1.22932   1.25051   1.25184   1.25302   1.29494
 Alpha virt. eigenvalues --    1.29735   1.32107   1.32886   1.33459   1.34266
 Alpha virt. eigenvalues --    1.36626   1.40437   1.41793   1.43526   1.45423
 Alpha virt. eigenvalues --    1.47881   1.50018   1.56423   1.57353   1.57782
 Alpha virt. eigenvalues --    1.60698   1.61683   1.61826   1.63751   1.67380
 Alpha virt. eigenvalues --    1.68396   1.69105   1.70183   1.71948   1.73394
 Alpha virt. eigenvalues --    1.76679   1.77016   1.81092   1.84083   1.89153
 Alpha virt. eigenvalues --    1.90972   1.93578   1.95603   1.96955   1.98935
 Alpha virt. eigenvalues --    1.99374   2.04904   2.05405   2.09964   2.14075
 Alpha virt. eigenvalues --    2.16202   2.19765   2.20602   2.27050   2.29946
 Alpha virt. eigenvalues --    2.34797   2.38594   2.43075   2.55736   2.62881
 Alpha virt. eigenvalues --    2.64028   2.69789   2.80290   2.82758   2.87577
 Alpha virt. eigenvalues --    3.04359   3.06929   3.09786   3.16308   3.18390
 Alpha virt. eigenvalues --    3.19678   3.20903   3.25045   3.27816   3.27836
 Alpha virt. eigenvalues --    3.30709   3.31707   3.31987   3.45119   3.45564
 Alpha virt. eigenvalues --    3.46381   3.47222   3.53281   3.55602   3.55987
 Alpha virt. eigenvalues --    3.58207   3.63451   3.64948   3.65195   3.67833
 Alpha virt. eigenvalues --    3.69915   3.77435   3.82011   3.83920   3.84545
 Alpha virt. eigenvalues --    3.88372   3.91703   3.92366   3.96025   3.96616
 Alpha virt. eigenvalues --    3.99228   4.00338   4.01996   4.05287   4.06549
 Alpha virt. eigenvalues --    4.07410   4.07793   4.08913   4.11150   4.11157
 Alpha virt. eigenvalues --    4.16571   4.18097   4.18840   4.19139   4.19945
 Alpha virt. eigenvalues --    4.22052   4.22075   4.22427   4.23136   4.25191
 Alpha virt. eigenvalues --    4.25754   4.26303   4.28205   4.29764   4.32708
 Alpha virt. eigenvalues --    4.34279   4.34783   4.34791   4.37311   4.37597
 Alpha virt. eigenvalues --    4.39178   4.39293   4.39867   4.43966   4.45369
 Alpha virt. eigenvalues --    4.46376   4.46755   4.47601   4.49238   4.51389
 Alpha virt. eigenvalues --    4.52705   4.53980   4.55560   4.56677   4.60222
 Alpha virt. eigenvalues --    4.64944   4.66302   4.69564   4.70556   4.71882
 Alpha virt. eigenvalues --    4.74127   4.76842   4.78860   4.81208   4.82823
 Alpha virt. eigenvalues --    4.85111   4.85956   4.90428   4.93059   4.96357
 Alpha virt. eigenvalues --    5.01410   5.02149   5.02434   5.04123   5.10834
 Alpha virt. eigenvalues --    5.11858   5.14758   5.20889   5.22323   5.24247
 Alpha virt. eigenvalues --    5.25301   5.26719   5.29249   5.29924   5.31487
 Alpha virt. eigenvalues --    5.33007   5.37359   5.40726   5.44532   5.45941
 Alpha virt. eigenvalues --    5.47320   5.51897   5.52658   5.56130   5.59627
 Alpha virt. eigenvalues --    5.60937   5.63726   5.64929   5.69551   5.74712
 Alpha virt. eigenvalues --    5.75632   5.80431   5.82042   5.90199   5.92367
 Alpha virt. eigenvalues --    5.93792   6.02763   6.08622   6.12800   6.20929
 Alpha virt. eigenvalues --    6.27316   6.45948   6.48007   6.56821   6.70527
 Alpha virt. eigenvalues --    6.74631   7.15740  11.27846
  Beta  occ. eigenvalues --  -10.19097 -10.18036 -10.18031 -10.17780 -10.17779
  Beta  occ. eigenvalues --  -10.17764 -10.17185  -0.86052  -0.77362  -0.75103
  Beta  occ. eigenvalues --   -0.66528  -0.60929  -0.58133  -0.51484  -0.47204
  Beta  occ. eigenvalues --   -0.46447  -0.42783  -0.42054  -0.39748  -0.37501
  Beta  occ. eigenvalues --   -0.35926  -0.34288  -0.27812  -0.26017
  Beta virt. eigenvalues --   -0.09429  -0.01242   0.01707   0.01891   0.03616
  Beta virt. eigenvalues --    0.03672   0.06294   0.06488   0.09424   0.10364
  Beta virt. eigenvalues --    0.12202   0.14357   0.14605   0.17203   0.18041
  Beta virt. eigenvalues --    0.19912   0.20214   0.20620   0.22103   0.22277
  Beta virt. eigenvalues --    0.23971   0.25557   0.26146   0.27319   0.27603
  Beta virt. eigenvalues --    0.28248   0.29671   0.30426   0.31480   0.32331
  Beta virt. eigenvalues --    0.33022   0.33223   0.34275   0.35211   0.35546
  Beta virt. eigenvalues --    0.37101   0.37343   0.40439   0.42111   0.44567
  Beta virt. eigenvalues --    0.45418   0.47206   0.49531   0.51032   0.52530
  Beta virt. eigenvalues --    0.57512   0.59750   0.61161   0.62659   0.63302
  Beta virt. eigenvalues --    0.64040   0.65524   0.68334   0.68719   0.70903
  Beta virt. eigenvalues --    0.76190   0.78706   0.80392   0.85066   0.85430
  Beta virt. eigenvalues --    0.86970   0.87446   0.92533   0.94562   0.97560
  Beta virt. eigenvalues --    0.98860   0.99288   1.01136   1.02361   1.07990
  Beta virt. eigenvalues --    1.08310   1.08328   1.09799   1.10907   1.12246
  Beta virt. eigenvalues --    1.13557   1.15583   1.15837   1.18011   1.19199
  Beta virt. eigenvalues --    1.21294   1.23285   1.25470   1.25710   1.25769
  Beta virt. eigenvalues --    1.29875   1.30905   1.32234   1.33352   1.35061
  Beta virt. eigenvalues --    1.37930   1.38445   1.40568   1.42917   1.43613
  Beta virt. eigenvalues --    1.45813   1.48017   1.50713   1.56566   1.57769
  Beta virt. eigenvalues --    1.58200   1.60950   1.62231   1.62233   1.63941
  Beta virt. eigenvalues --    1.68215   1.69060   1.69383   1.71210   1.72368
  Beta virt. eigenvalues --    1.73651   1.77179   1.77505   1.81202   1.84384
  Beta virt. eigenvalues --    1.89369   1.91172   1.93751   1.95807   1.97444
  Beta virt. eigenvalues --    1.99129   1.99656   2.05484   2.05942   2.10111
  Beta virt. eigenvalues --    2.14264   2.16333   2.19944   2.20766   2.27423
  Beta virt. eigenvalues --    2.30225   2.35179   2.38876   2.43538   2.56048
  Beta virt. eigenvalues --    2.63130   2.64642   2.69998   2.80459   2.83183
  Beta virt. eigenvalues --    2.88138   3.05162   3.07633   3.10640   3.16920
  Beta virt. eigenvalues --    3.18868   3.20032   3.21003   3.25474   3.28006
  Beta virt. eigenvalues --    3.28220   3.31154   3.31990   3.34529   3.45753
  Beta virt. eigenvalues --    3.45820   3.46689   3.48287   3.53513   3.55892
  Beta virt. eigenvalues --    3.57150   3.59200   3.63615   3.65389   3.65812
  Beta virt. eigenvalues --    3.68289   3.70428   3.79155   3.82489   3.84263
  Beta virt. eigenvalues --    3.86506   3.88967   3.91651   3.92501   3.96508
  Beta virt. eigenvalues --    3.97049   3.99422   4.00472   4.02561   4.05400
  Beta virt. eigenvalues --    4.06656   4.07805   4.08158   4.11162   4.11680
  Beta virt. eigenvalues --    4.11850   4.16981   4.18144   4.19205   4.19627
  Beta virt. eigenvalues --    4.20984   4.22509   4.22602   4.23109   4.23931
  Beta virt. eigenvalues --    4.26203   4.26569   4.28124   4.29985   4.30283
  Beta virt. eigenvalues --    4.33703   4.34825   4.34931   4.35196   4.37735
  Beta virt. eigenvalues --    4.37751   4.39371   4.39450   4.40290   4.44550
  Beta virt. eigenvalues --    4.45680   4.46733   4.47039   4.47453   4.49668
  Beta virt. eigenvalues --    4.51578   4.53068   4.54077   4.55745   4.56812
  Beta virt. eigenvalues --    4.60261   4.64969   4.66314   4.69821   4.70960
  Beta virt. eigenvalues --    4.71904   4.74434   4.76935   4.79201   4.81161
  Beta virt. eigenvalues --    4.83374   4.85168   4.86649   4.91813   4.93199
  Beta virt. eigenvalues --    4.96394   5.01804   5.02549   5.02618   5.04308
  Beta virt. eigenvalues --    5.10865   5.11923   5.14840   5.20990   5.22583
  Beta virt. eigenvalues --    5.24658   5.25328   5.26876   5.29398   5.30243
  Beta virt. eigenvalues --    5.32867   5.33391   5.37435   5.40825   5.44707
  Beta virt. eigenvalues --    5.45970   5.48083   5.52093   5.52742   5.56336
  Beta virt. eigenvalues --    5.59910   5.61073   5.65030   5.65495   5.69650
  Beta virt. eigenvalues --    5.74830   5.75722   5.80829   5.82376   5.90217
  Beta virt. eigenvalues --    5.92689   5.94089   6.03197   6.08743   6.13058
  Beta virt. eigenvalues --    6.21059   6.27410   6.46232   6.48056   6.56949
  Beta virt. eigenvalues --    6.70626   6.74755   7.15811  11.27989
          Condensed to atoms (all electrons):
               1          2          3          4          5          6
     1  C    4.698773   0.445178  -0.043869  -0.062299  -0.043869   0.445178
     2  C    0.445178   5.012955   0.484424  -0.052322  -0.056207  -0.046972
     3  C   -0.043869   0.484424   4.838328   0.455334  -0.036868  -0.056207
     4  C   -0.062299  -0.052322   0.455334   4.900293   0.455334  -0.052322
     5  C   -0.043869  -0.056207  -0.036868   0.455334   4.838328   0.484424
     6  C    0.445178  -0.046972  -0.056207  -0.052322   0.484424   5.012955
     7  C    0.461697  -0.093315   0.005507  -0.000963   0.005507  -0.093315
     8  H   -0.062789   0.464295  -0.042574   0.014089  -0.003361   0.009605
     9  H    0.011793  -0.049551   0.455021  -0.053832   0.014295  -0.004604
    10  H   -0.004313   0.015157  -0.056148   0.458125  -0.056148   0.015157
    11  H    0.011793  -0.004604   0.014295  -0.053832   0.455021  -0.049551
    12  H   -0.062789   0.009605  -0.003361   0.014089  -0.042574   0.464295
    13  H   -0.042772  -0.009919   0.001229  -0.000110  -0.001178   0.008413
    14  H   -0.042772   0.008413  -0.001178  -0.000110   0.001229  -0.009919
               7          8          9         10         11         12
     1  C    0.461697  -0.062789   0.011793  -0.004313   0.011793  -0.062789
     2  C   -0.093315   0.464295  -0.049551   0.015157  -0.004604   0.009605
     3  C    0.005507  -0.042574   0.455021  -0.056148   0.014295  -0.003361
     4  C   -0.000963   0.014089  -0.053832   0.458125  -0.053832   0.014089
     5  C    0.005507  -0.003361   0.014295  -0.056148   0.455021  -0.042574
     6  C   -0.093315   0.009605  -0.004604   0.015157  -0.049551   0.464295
     7  C    5.040735  -0.007034  -0.000619   0.000168  -0.000619  -0.007034
     8  H   -0.007034   0.627990  -0.010573  -0.000131   0.000132  -0.000344
     9  H   -0.000619  -0.010573   0.627308  -0.010558  -0.000142   0.000132
    10  H    0.000168  -0.000131  -0.010558   0.624917  -0.010558  -0.000131
    11  H   -0.000619   0.000132  -0.000142  -0.010558   0.627308  -0.010573
    12  H   -0.007034  -0.000344   0.000132  -0.000131  -0.010573   0.627990
    13  H    0.432194   0.000731  -0.000059  -0.000004   0.000048   0.000239
    14  H    0.432194   0.000239   0.000048  -0.000004  -0.000059   0.000731
              13         14
     1  C   -0.042772  -0.042772
     2  C   -0.009919   0.008413
     3  C    0.001229  -0.001178
     4  C   -0.000110  -0.000110
     5  C   -0.001178   0.001229
     6  C    0.008413  -0.009919
     7  C    0.432194   0.432194
     8  H    0.000731   0.000239
     9  H   -0.000059   0.000048
    10  H   -0.000004  -0.000004
    11  H    0.000048  -0.000059
    12  H    0.000239   0.000731
    13  H    0.590348  -0.029684
    14  H   -0.029684   0.590348
          Atomic-Atomic Spin Densities.
               1          2          3          4          5          6
     1  C   -0.140114  -0.000204   0.005512  -0.003224   0.005512  -0.000204
     2  C   -0.000204   0.266575   0.001652  -0.020881   0.000269   0.015102
     3  C    0.005512   0.001652  -0.124173  -0.003629   0.001697   0.000269
     4  C   -0.003224  -0.020881  -0.003629   0.317127  -0.003629  -0.020881
     5  C    0.005512   0.000269   0.001697  -0.003629  -0.124173   0.001652
     6  C   -0.000204   0.015102   0.000269  -0.020881   0.001652   0.266575
     7  C   -0.036241  -0.034801  -0.000828   0.002923  -0.000828  -0.034801
     8  H   -0.000775   0.004395  -0.000139  -0.000006  -0.000197   0.000185
     9  H    0.000163  -0.000304  -0.000801   0.000211   0.000064  -0.000125
    10  H   -0.000260  -0.000070  -0.000822   0.005524  -0.000822  -0.000070
    11  H    0.000163  -0.000125   0.000064   0.000211  -0.000801  -0.000304
    12  H   -0.000775   0.000185  -0.000197  -0.000006  -0.000139   0.004395
    13  H   -0.006435  -0.000667  -0.000894   0.000070   0.000062   0.000302
    14  H   -0.006435   0.000302   0.000062   0.000070  -0.000894  -0.000667
               7          8          9         10         11         12
     1  C   -0.036241  -0.000775   0.000163  -0.000260   0.000163  -0.000775
     2  C   -0.034801   0.004395  -0.000304  -0.000070  -0.000125   0.000185
     3  C   -0.000828  -0.000139  -0.000801  -0.000822   0.000064  -0.000197
     4  C    0.002923  -0.000006   0.000211   0.005524   0.000211  -0.000006
     5  C   -0.000828  -0.000197   0.000064  -0.000822  -0.000801  -0.000139
     6  C   -0.034801   0.000185  -0.000125  -0.000070  -0.000304   0.004395
     7  C    0.846707   0.000589   0.000054  -0.000025   0.000054   0.000589
     8  H    0.000589  -0.012891  -0.000019   0.000035  -0.000011   0.000042
     9  H    0.000054  -0.000019   0.005033   0.000198  -0.000013  -0.000011
    10  H   -0.000025   0.000035   0.000198  -0.016541   0.000198   0.000035
    11  H    0.000054  -0.000011  -0.000013   0.000198   0.005033  -0.000019
    12  H    0.000589   0.000042  -0.000011   0.000035  -0.000019  -0.012891
    13  H    0.013024   0.000637  -0.000015   0.000001  -0.000002  -0.000091
    14  H    0.013024  -0.000091  -0.000002   0.000001  -0.000015   0.000637
              13         14
     1  C   -0.006435  -0.006435
     2  C   -0.000667   0.000302
     3  C   -0.000894   0.000062
     4  C    0.000070   0.000070
     5  C    0.000062  -0.000894
     6  C    0.000302  -0.000667
     7  C    0.013024   0.013024
     8  H    0.000637  -0.000091
     9  H   -0.000015  -0.000002
    10  H    0.000001   0.000001
    11  H   -0.000002  -0.000015
    12  H   -0.000091   0.000637
    13  H   -0.040153   0.005084
    14  H    0.005084  -0.040153
 Mulliken charges and spin densities:
               1          2
     1  C    0.291059  -0.183318
     2  C   -0.127136   0.231429
     3  C   -0.013933  -0.122226
     4  C   -0.021474   0.273877
     5  C   -0.013933  -0.122226
     6  C   -0.127136   0.231429
     7  C   -0.175102   0.769442
     8  H    0.009727  -0.008247
     9  H    0.021342   0.004433
    10  H    0.024470  -0.012620
    11  H    0.021342   0.004433
    12  H    0.009727  -0.008247
    13  H    0.050524  -0.029079
    14  H    0.050524  -0.029079
 Sum of Mulliken charges =  -0.00000   1.00000
 Mulliken charges and spin densities with hydrogens summed into heavy atoms:
               1          2
     1  C    0.291059  -0.183318
     2  C   -0.117409   0.223181
     3  C    0.007408  -0.117793
     4  C    0.002996   0.261257
     5  C    0.007408  -0.117793
     6  C   -0.117409   0.223181
     7  C   -0.074053   0.711285
 Electronic spatial extent (au):  <R**2>=            680.9912
 Charge=             -0.0000 electrons
 Dipole moment (field-independent basis, Debye):
    X=              0.0000    Y=              0.0000    Z=             -0.1473  Tot=              0.1473
 Quadrupole moment (field-independent basis, Debye-Ang):
   XX=            -46.7766   YY=            -37.7376   ZZ=            -38.3445
   XY=              0.0000   XZ=             -0.0000   YZ=             -0.0000
 Traceless Quadrupole moment (field-independent basis, Debye-Ang):
   XX=             -5.8237   YY=              3.2153   ZZ=              2.6084
   XY=              0.0000   XZ=             -0.0000   YZ=             -0.0000
 Octapole moment (field-independent basis, Debye-Ang**2):
  XXX=              0.0000  YYY=              0.0000  ZZZ=             -4.5545  XYY=              0.0000
  XXY=              0.0000  XXZ=             -0.6090  XZZ=              0.0000  YZZ=              0.0000
  YYZ=              0.3315  XYZ=              0.0000
 Hexadecapole moment (field-independent basis, Debye-Ang**3):
 XXXX=            -57.9614 YYYY=           -293.2953 ZZZZ=           -563.9427 XXXY=             -0.0000
 XXXZ=             -0.0000 YYYX=             -0.0000 YYYZ=             -0.0000 ZZZX=             -0.0000
 ZZZY=              0.0000 XXYY=            -69.6225 XXZZ=           -123.2959 YYZZ=           -136.5456
 XXYZ=              0.0000 YYXZ=             -0.0000 ZZXY=             -0.0000
 N-N= 2.601931505978D+02 E-N=-1.148739770572D+03  KE= 2.698900406917D+02
 Symmetry A1   KE= 1.820313910481D+02
 Symmetry A2   KE= 2.245322052725D+00
 Symmetry B1   KE= 5.272949242662D+00
 Symmetry B2   KE= 8.034037834821D+01
 Symmetry A1   SP= 3.179394283452D-15
 Symmetry A2   SP=-7.435372313303D-15
 Symmetry B1   SP= 1.000000000000D+00
 Symmetry B2   SP= 3.553504648755D-15
                          Isotropic Fermi Contact Couplings
        Atom                 a.u.       MegaHertz       Gauss      10(-4) cm-1
     1  C(13)             -0.04257     -47.85688     -17.07652     -15.96334
     2  C(13)              0.03156      35.48205      12.66088      11.83554
     3  C(13)             -0.02343     -26.34126      -9.39922      -8.78650
     4  C(13)              0.03385      38.05271      13.57815      12.69302
     5  C(13)             -0.02343     -26.34126      -9.39922      -8.78650
     6  C(13)              0.03156      35.48205      12.66088      11.83554
     7  C(13)              0.09251     103.99465      37.10788      34.68888
     8  H(1)              -0.00339     -15.14606      -5.40449      -5.05218
     9  H(1)               0.00144       6.45078       2.30180       2.15175
    10  H(1)              -0.00398     -17.77715      -6.34333      -5.92982
    11  H(1)               0.00144       6.45078       2.30180       2.15175
    12  H(1)              -0.00339     -15.14606      -5.40449      -5.05218
    13  H(1)              -0.01022     -45.67907     -16.29943     -15.23690
    14  H(1)              -0.01022     -45.67907     -16.29943     -15.23690
 --------------------------------------------------------
       Center         ----  Spin Dipole Couplings  ----
                      3XX-RR        3YY-RR        3ZZ-RR
 --------------------------------------------------------
     1   Atom       -0.148322      0.059278      0.089043
     2   Atom        0.268316     -0.134341     -0.133976
     3   Atom       -0.113670      0.052277      0.061393
     4   Atom        0.304929     -0.158319     -0.146611
     5   Atom       -0.113670      0.052277      0.061393
     6   Atom        0.268316     -0.134341     -0.133976
     7   Atom        0.856695     -0.425054     -0.431641
     8   Atom       -0.003453      0.010977     -0.007524
     9   Atom       -0.004602     -0.000302      0.004904
    10   Atom        0.001026     -0.020269      0.019243
    11   Atom       -0.004602     -0.000302      0.004904
    12   Atom       -0.003453      0.010977     -0.007524
    13   Atom        0.001432      0.023724     -0.025156
    14   Atom        0.001432      0.023724     -0.025156
 --------------------------------------------------------
                        XY            XZ            YZ
 --------------------------------------------------------
     1   Atom        0.000000     -0.000000      0.000000
     2   Atom       -0.000000      0.000000     -0.001261
     3   Atom        0.000000     -0.000000      0.003966
     4   Atom       -0.000000     -0.000000      0.000000
     5   Atom        0.000000     -0.000000     -0.003966
     6   Atom       -0.000000      0.000000      0.001261
     7   Atom       -0.000000      0.000000      0.000000
     8   Atom       -0.000000     -0.000000      0.009033
     9   Atom        0.000000     -0.000000      0.003162
    10   Atom       -0.000000      0.000000      0.000000
    11   Atom        0.000000      0.000000     -0.003162
    12   Atom       -0.000000      0.000000     -0.009033
    13   Atom        0.000000      0.000000      0.045027
    14   Atom       -0.000000      0.000000     -0.045027
 --------------------------------------------------------


 ---------------------------------------------------------------------------------
              Anisotropic Spin Dipole Couplings in Principal Axis System
 ---------------------------------------------------------------------------------

       Atom             a.u.   MegaHertz   Gauss  10(-4) cm-1        Axes

              Baa    -0.1483   -19.903    -7.102    -6.639  1.0000 -0.0000  0.0000
     1 C(13)  Bbb     0.0593     7.955     2.838     2.653  0.0000  1.0000  0.0000
              Bcc     0.0890    11.949     4.264     3.986  0.0000  0.0000  1.0000
 
              Baa    -0.1354   -18.174    -6.485    -6.062  0.0000  0.7561  0.6545
     2 C(13)  Bbb    -0.1329   -17.832    -6.363    -5.948 -0.0000 -0.6545  0.7561
              Bcc     0.2683    36.005    12.848    12.010  1.0000 -0.0000  0.0000
 
              Baa    -0.1137   -15.253    -5.443    -5.088  1.0000  0.0000  0.0000
     3 C(13)  Bbb     0.0508     6.816     2.432     2.274 -0.0000  0.9366 -0.3504
              Bcc     0.0629     8.437     3.011     2.814 -0.0000  0.3504  0.9366
 
              Baa    -0.1583   -21.245    -7.581    -7.087 -0.0000  1.0000 -0.0000
     4 C(13)  Bbb    -0.1466   -19.674    -7.020    -6.562  0.0000  0.0000  1.0000
              Bcc     0.3049    40.919    14.601    13.649  1.0000  0.0000  0.0000
 
              Baa    -0.1137   -15.253    -5.443    -5.088  1.0000 -0.0000  0.0000
     5 C(13)  Bbb     0.0508     6.816     2.432     2.274  0.0000  0.9366  0.3504
              Bcc     0.0629     8.437     3.011     2.814 -0.0000 -0.3504  0.9366
 
              Baa    -0.1354   -18.174    -6.485    -6.062 -0.0000  0.7561 -0.6545
     6 C(13)  Bbb    -0.1329   -17.832    -6.363    -5.948 -0.0000  0.6545  0.7561
              Bcc     0.2683    36.005    12.848    12.010  1.0000  0.0000  0.0000
 
              Baa    -0.4316   -57.922   -20.668   -19.321  0.0000  0.0000  1.0000
     7 C(13)  Bbb    -0.4251   -57.038   -20.353   -19.026  0.0000  1.0000 -0.0000
              Bcc     0.8567   114.960    41.021    38.347  1.0000 -0.0000 -0.0000
 
              Baa    -0.0112    -5.977    -2.133    -1.994  0.0000 -0.3772  0.9261
     8 H(1)   Bbb    -0.0035    -1.842    -0.657    -0.615  1.0000  0.0000  0.0000
              Bcc     0.0147     7.820     2.790     2.608 -0.0000  0.9261  0.3772
 
              Baa    -0.0046    -2.455    -0.876    -0.819  1.0000  0.0000  0.0000
     9 H(1)   Bbb    -0.0018    -0.958    -0.342    -0.319 -0.0000  0.9043 -0.4269
              Bcc     0.0064     3.413     1.218     1.138 -0.0000  0.4269  0.9043
 
              Baa    -0.0203   -10.815    -3.859    -3.607 -0.0000  1.0000 -0.0000
    10 H(1)   Bbb     0.0010     0.547     0.195     0.183  1.0000 -0.0000 -0.0000
              Bcc     0.0192    10.267     3.664     3.425  0.0000  0.0000  1.0000
 
              Baa    -0.0046    -2.455    -0.876    -0.819  1.0000 -0.0000 -0.0000
    11 H(1)   Bbb    -0.0018    -0.958    -0.342    -0.319  0.0000  0.9043  0.4269
              Bcc     0.0064     3.413     1.218     1.138  0.0000 -0.4269  0.9043
 
              Baa    -0.0112    -5.977    -2.133    -1.994 -0.0000  0.3772  0.9261
    12 H(1)   Bbb    -0.0035    -1.842    -0.657    -0.615  1.0000  0.0000  0.0000
              Bcc     0.0147     7.820     2.790     2.608 -0.0000  0.9261 -0.3772
 
              Baa    -0.0519   -27.717    -9.890    -9.245 -0.0000 -0.5114  0.8594
    13 H(1)   Bbb     0.0014     0.764     0.273     0.255  1.0000 -0.0000  0.0000
              Bcc     0.0505    26.953     9.618     8.991  0.0000  0.8594  0.5114
 
              Baa    -0.0519   -27.717    -9.890    -9.245 -0.0000  0.5114  0.8594
    14 H(1)   Bbb     0.0014     0.764     0.273     0.255  1.0000  0.0000 -0.0000
              Bcc     0.0505    26.953     9.618     8.991 -0.0000  0.8594 -0.5114
 

 ---------------------------------------------------------------------------------

 Calling FoFJK, ICntrl=      2127 FMM=F ISym2X=1 I1Cent= 0 IOpClX= 1 NMat=1 NMatS=1 NMatT=0.
 ***** Axes restored to original set *****
 -------------------------------------------------------------------
 Center     Atomic                   Forces (Hartrees/Bohr)
 Number     Number              X              Y              Z
 -------------------------------------------------------------------
      1        6          -0.000000000   -0.000000000   -0.000293181
      2        6           0.000000000    0.000354320   -0.000171535
      3        6           0.000000000    0.000098685    0.000265499
      4        6          -0.000000000   -0.000000000    0.000215644
      5        6           0.000000000   -0.000098685    0.000265499
      6        6           0.000000000   -0.000354320   -0.000171535
      7        6          -0.000000000   -0.000000000    0.000844909
      8        1           0.000000000   -0.001821712   -0.001358324
      9        1           0.000000000   -0.002001680    0.001097413
     10        1           0.000000000    0.000000000    0.002240959
     11        1           0.000000000    0.002001680    0.001097413
     12        1           0.000000000    0.001821712   -0.001358324
     13        1           0.000000000   -0.001839974   -0.001337219
     14        1           0.000000000    0.001839974   -0.001337219
 -------------------------------------------------------------------
 Cartesian Forces:  Max     0.002240959 RMS     0.000944097

 GradGradGradGradGradGradGradGradGradGradGradGradGradGradGradGradGradGrad
 Berny optimization.
 FormGI is forming the generalized inverse of G from B-inverse, IUseBI=4.
 Internal  Forces:  Max     0.002591396 RMS     0.001054427
 Search for a local minimum.
 Step number   1 out of a maximum of   73
 All quantities printed in internal units (Hartrees-Bohrs-Radians)
 Mixed Optimization -- RFO/linear search
 Second derivative matrix not updated -- first step.
 ITU=  0
     Eigenvalues ---    0.01804   0.01907   0.02012   0.02053   0.02053
     Eigenvalues ---    0.02057   0.02094   0.02153   0.02166   0.02219
     Eigenvalues ---    0.02231   0.16000   0.16000   0.16000   0.16000
     Eigenvalues ---    0.16000   0.16000   0.16000   0.22000   0.22000
     Eigenvalues ---    0.23451   0.25000   0.35311   0.35311   0.35351
     Eigenvalues ---    0.35351   0.35461   0.35565   0.35565   0.39471
     Eigenvalues ---    0.40503   0.44350   0.44456   0.45181   0.46864
     Eigenvalues ---    0.48680
 RFO step:  Lambda=-1.77381524D-04 EMin= 1.80439209D-02
 Linear search not attempted -- first point.
 Iteration  1 RMS(Cart)=  0.00445362 RMS(Int)=  0.00000173
 Iteration  2 RMS(Cart)=  0.00000219 RMS(Int)=  0.00000012
 Iteration  3 RMS(Cart)=  0.00000000 RMS(Int)=  0.00000012
 ClnCor:  largest displacement from symmetrization is 3.17D-11 for atom    10.
 Variable       Old X    -DE/DX   Delta X   Delta X   Delta X     New X
                                 (Linear)    (Quad)   (Total)
    R1        2.69159  -0.00177   0.00000  -0.00413  -0.00413   2.68746
    R2        2.69159  -0.00177   0.00000  -0.00413  -0.00413   2.68746
    R3        2.65066  -0.00183   0.00000  -0.00405  -0.00405   2.64661
    R4        2.61222  -0.00259   0.00000  -0.00532  -0.00532   2.60689
    R5        2.05173  -0.00226   0.00000  -0.00639  -0.00639   2.04534
    R6        2.64484  -0.00230   0.00000  -0.00512  -0.00512   2.63972
    R7        2.05109  -0.00228   0.00000  -0.00645  -0.00645   2.04463
    R8        2.64484  -0.00230   0.00000  -0.00512  -0.00512   2.63972
    R9        2.04933  -0.00224   0.00000  -0.00632  -0.00632   2.04302
   R10        2.61222  -0.00259   0.00000  -0.00532  -0.00532   2.60689
   R11        2.05109  -0.00228   0.00000  -0.00645  -0.00645   2.04463
   R12        2.05173  -0.00226   0.00000  -0.00639  -0.00639   2.04534
   R13        2.04768  -0.00227   0.00000  -0.00637  -0.00637   2.04131
   R14        2.04768  -0.00227   0.00000  -0.00637  -0.00637   2.04131
    A1        2.04509  -0.00001   0.00000   0.00026   0.00026   2.04535
    A2        2.11905   0.00001   0.00000  -0.00013  -0.00013   2.11892
    A3        2.11905   0.00001   0.00000  -0.00013  -0.00013   2.11892
    A4        2.11449  -0.00013   0.00000  -0.00040  -0.00040   2.11409
    A5        2.07058   0.00034   0.00000   0.00191   0.00191   2.07249
    A6        2.09812  -0.00021   0.00000  -0.00151  -0.00151   2.09661
    A7        2.10295   0.00003   0.00000  -0.00003  -0.00003   2.10293
    A8        2.08934   0.00004   0.00000   0.00033   0.00033   2.08967
    A9        2.09089  -0.00007   0.00000  -0.00030  -0.00030   2.09059
   A10        2.08640   0.00021   0.00000   0.00059   0.00059   2.08699
   A11        2.09839  -0.00010   0.00000  -0.00030  -0.00030   2.09810
   A12        2.09839  -0.00010   0.00000  -0.00030  -0.00030   2.09810
   A13        2.10295   0.00003   0.00000  -0.00003  -0.00003   2.10293
   A14        2.09089  -0.00007   0.00000  -0.00030  -0.00030   2.09059
   A15        2.08934   0.00004   0.00000   0.00033   0.00033   2.08967
   A16        2.11449  -0.00013   0.00000  -0.00040  -0.00040   2.11409
   A17        2.07058   0.00034   0.00000   0.00191   0.00191   2.07249
   A18        2.09812  -0.00021   0.00000  -0.00151  -0.00151   2.09661
   A19        2.11490  -0.00013   0.00000  -0.00082  -0.00082   2.11408
   A20        2.11490  -0.00013   0.00000  -0.00082  -0.00082   2.11408
   A21        2.05338   0.00026   0.00000   0.00163   0.00163   2.05502
    D1       -0.00000   0.00000   0.00000   0.00000   0.00000   0.00000
    D2        3.14159   0.00000   0.00000   0.00000   0.00000   3.14159
    D3        3.14159  -0.00000   0.00000  -0.00000   0.00000   3.14159
    D4       -0.00000   0.00000   0.00000   0.00000   0.00000   0.00000
    D5        0.00000  -0.00000   0.00000  -0.00000   0.00000   0.00000
    D6        3.14159  -0.00000   0.00000  -0.00000   0.00000   3.14159
    D7        3.14159   0.00000   0.00000   0.00000   0.00000   3.14159
    D8        0.00000  -0.00000   0.00000  -0.00000  -0.00000   0.00000
    D9        0.00000   0.00000   0.00000   0.00000   0.00000   0.00000
   D10        3.14159   0.00000   0.00000   0.00000   0.00000   3.14159
   D11        3.14159  -0.00000   0.00000  -0.00000   0.00000   3.14159
   D12       -0.00000   0.00000   0.00000   0.00000   0.00000   0.00000
   D13       -0.00000   0.00000   0.00000   0.00000   0.00000   0.00000
   D14        3.14159   0.00000   0.00000   0.00000   0.00000   3.14159
   D15        3.14159  -0.00000   0.00000  -0.00000   0.00000   3.14159
   D16        0.00000  -0.00000   0.00000  -0.00000   0.00000   0.00000
   D17        0.00000  -0.00000   0.00000  -0.00000   0.00000   0.00000
   D18        3.14159   0.00000   0.00000   0.00000   0.00000   3.14159
   D19        3.14159  -0.00000   0.00000  -0.00000   0.00000   3.14159
   D20        0.00000  -0.00000   0.00000  -0.00000   0.00000   0.00000
   D21       -0.00000   0.00000   0.00000   0.00000   0.00000   0.00000
   D22        3.14159   0.00000   0.00000   0.00000   0.00000   3.14159
   D23        3.14159  -0.00000   0.00000  -0.00000   0.00000   3.14159
   D24       -0.00000   0.00000   0.00000   0.00000   0.00000   0.00000
   D25       -0.00000  -0.00000   0.00000  -0.00000   0.00000   0.00000
   D26        3.14159   0.00000   0.00000   0.00000   0.00000   3.14159
   D27        3.14159  -0.00000   0.00000  -0.00000   0.00000   3.14159
   D28       -0.00000  -0.00000   0.00000   0.00000   0.00000   0.00000
         Item               Value     Threshold  Converged?
 Maximum Force            0.002591     0.000450     NO 
 RMS     Force            0.001054     0.000300     NO 
 Maximum Displacement     0.014539     0.001800     NO 
 RMS     Displacement     0.004453     0.001200     NO 
 Predicted change in Energy=-8.873200D-05
 GradGradGradGradGradGradGradGradGradGradGradGradGradGradGradGradGradGrad

                          Input orientation:                          
 ---------------------------------------------------------------------
 Center     Atomic      Atomic             Coordinates (Angstroms)
 Number     Number       Type             X           Y           Z
 ---------------------------------------------------------------------
      1          6           0       -0.000000    0.000000    0.992083
      2          6           0       -0.000000    1.213805    0.251028
      3          6           0        0.000000    1.207141   -1.128465
      4          6           0        0.000000    0.000000   -1.831380
      5          6           0        0.000000   -1.207141   -1.128465
      6          6           0       -0.000000   -1.213805    0.251028
      7          6           0       -0.000000    0.000000    2.392608
      8          1           0       -0.000000    2.152560    0.789746
      9          1           0        0.000000    2.144099   -1.669551
     10          1           0        0.000000    0.000000   -2.912497
     11          1           0        0.000000   -2.144099   -1.669551
     12          1           0       -0.000000   -2.152560    0.789746
     13          1           0       -0.000000    0.924678    2.951028
     14          1           0       -0.000000   -0.924678    2.951028
 ---------------------------------------------------------------------
                    Distance matrix (angstroms):
                    1          2          3          4          5
     1  C    0.000000
     2  C    1.422141   0.000000
     3  C    2.440064   1.379509   0.000000
     4  C    2.823462   2.410341   1.396881   0.000000
     5  C    2.440064   2.786392   2.414282   1.396881   0.000000
     6  C    1.422141   2.427610   2.786392   2.410341   1.379509
     7  C    1.400525   2.461643   3.722250   4.223988   3.722250
     8  H    2.162049   1.082348   2.138539   3.391727   3.868737
     9  H    3.417815   2.134027   1.081973   2.150198   3.394641
    10  H    3.904580   3.388394   2.154057   1.081118   2.154057
    11  H    3.417815   3.868352   3.394641   2.150198   1.081973
    12  H    2.162049   3.409198   3.868737   3.391727   2.138539
    13  H    2.166217   2.715436   4.089260   4.870981   4.602925
    14  H    2.166217   3.444287   4.602925   4.870981   4.089260
                    6          7          8          9         10
     6  C    0.000000
     7  C    2.461643   0.000000
     8  H    3.409198   2.683781   0.000000
     9  H    3.868352   4.593288   2.459312   0.000000
    10  H    3.388394   5.305105   4.282537   2.478321   0.000000
    11  H    2.134027   4.593288   4.950700   4.288199   2.478321
    12  H    1.082348   2.683781   4.305121   4.950700   4.282537
    13  H    3.444287   1.080214   2.485726   4.778780   5.935988
    14  H    2.715436   1.080214   3.760391   5.546814   5.935988
[...]
   D18        3.14159   0.00000   0.00000  -0.00000   0.00000   3.14159
   D19        3.14159  -0.00000   0.00000  -0.00000   0.00000   3.14159
   D20       -0.00000  -0.00000   0.00000   0.00000   0.00000   0.00000
   D21       -0.00000   0.00000   0.00000   0.00000   0.00000   0.00000
   D22        3.14159   0.00000   0.00000   0.00000   0.00000   3.14159
   D23        3.14159  -0.00000   0.00000  -0.00000   0.00000   3.14159
   D24       -0.00000   0.00000   0.00000   0.00000   0.00000   0.00000
   D25       -0.00000  -0.00000   0.00000   0.00000   0.00000   0.00000
   D26        3.14159   0.00000   0.00000   0.00000   0.00000   3.14159
   D27        3.14159  -0.00000   0.00000  -0.00000   0.00000   3.14159
   D28       -0.00000  -0.00000   0.00000  -0.00000   0.00000   0.00000
         Item               Value     Threshold  Converged?
 Maximum Force            0.000312     0.000450     YES
 RMS     Force            0.000090     0.000300     YES
 Maximum Displacement     0.001354     0.001800     YES
 RMS     Displacement     0.000356     0.001200     YES
 Predicted change in Energy=-5.855635D-07
 Optimization completed.
    -- Stationary point found.
                           ----------------------------
                           !   Optimized Parameters   !
                           ! (Angstroms and Degrees)  !
 --------------------------                            --------------------------
 ! Name  Definition              Value          Derivative Info.                !
 --------------------------------------------------------------------------------
 ! R1    R(1,2)                  1.4221         -DE/DX =    0.0002              !
 ! R2    R(1,6)                  1.4221         -DE/DX =    0.0002              !
 ! R3    R(1,7)                  1.4005         -DE/DX =    0.0003              !
 ! R4    R(2,3)                  1.3795         -DE/DX =    0.0003              !
 ! R5    R(2,8)                  1.0823         -DE/DX =    0.0                 !
 ! R6    R(3,4)                  1.3969         -DE/DX =    0.0002              !
 ! R7    R(3,9)                  1.082          -DE/DX =    0.0001              !
 ! R8    R(4,5)                  1.3969         -DE/DX =    0.0002              !
 ! R9    R(4,10)                 1.0811         -DE/DX =    0.0001              !
 ! R10   R(5,6)                  1.3795         -DE/DX =    0.0003              !
 ! R11   R(5,11)                 1.082          -DE/DX =    0.0001              !
 ! R12   R(6,12)                 1.0823         -DE/DX =    0.0                 !
 ! R13   R(7,13)                 1.0802         -DE/DX =    0.0                 !
 ! R14   R(7,14)                 1.0802         -DE/DX =    0.0                 !
 ! A1    A(2,1,6)              117.19           -DE/DX =   -0.0001              !
 ! A2    A(2,1,7)              121.405          -DE/DX =    0.0                 !
 ! A3    A(6,1,7)              121.405          -DE/DX =    0.0                 !
 ! A4    A(1,2,3)              121.1282         -DE/DX =    0.0                 !
 ! A5    A(1,2,8)              118.7451         -DE/DX =    0.0                 !
 ! A6    A(3,2,8)              120.1268         -DE/DX =    0.0                 !
 ! A7    A(2,3,4)              120.4889         -DE/DX =    0.0                 !
 ! A8    A(2,3,9)              119.7293         -DE/DX =    0.0                 !
 ! A9    A(4,3,9)              119.7818         -DE/DX =    0.0                 !
 ! A10   A(3,4,5)              119.5758         -DE/DX =    0.0                 !
 ! A11   A(3,4,10)             120.2121         -DE/DX =    0.0                 !
 ! A12   A(5,4,10)             120.2121         -DE/DX =    0.0                 !
 ! A13   A(4,5,6)              120.4889         -DE/DX =    0.0                 !
 ! A14   A(4,5,11)             119.7818         -DE/DX =    0.0                 !
 ! A15   A(6,5,11)             119.7293         -DE/DX =    0.0                 !
 ! A16   A(1,6,5)              121.1282         -DE/DX =    0.0                 !
 ! A17   A(1,6,12)             118.7451         -DE/DX =    0.0                 !
 ! A18   A(5,6,12)             120.1268         -DE/DX =    0.0                 !
 ! A19   A(1,7,13)             121.1281         -DE/DX =    0.0                 !
 ! A20   A(1,7,14)             121.1281         -DE/DX =    0.0                 !
 ! A21   A(13,7,14)            117.7438         -DE/DX =    0.0001              !
 ! D1    D(6,1,2,3)              0.0            -DE/DX =    0.0                 !
 ! D2    D(6,1,2,8)            180.0            -DE/DX =    0.0                 !
 ! D3    D(7,1,2,3)            180.0            -DE/DX =    0.0                 !
 ! D4    D(7,1,2,8)              0.0            -DE/DX =    0.0                 !
 ! D5    D(2,1,6,5)              0.0            -DE/DX =    0.0                 !
 ! D6    D(2,1,6,12)           180.0            -DE/DX =    0.0                 !
 ! D7    D(7,1,6,5)            180.0            -DE/DX =    0.0                 !
 ! D8    D(7,1,6,12)             0.0            -DE/DX =    0.0                 !
 ! D9    D(2,1,7,13)             0.0            -DE/DX =    0.0                 !
 ! D10   D(2,1,7,14)           180.0            -DE/DX =    0.0                 !
 ! D11   D(6,1,7,13)           180.0            -DE/DX =    0.0                 !
 ! D12   D(6,1,7,14)             0.0            -DE/DX =    0.0                 !
 ! D13   D(1,2,3,4)              0.0            -DE/DX =    0.0                 !
 ! D14   D(1,2,3,9)            180.0            -DE/DX =    0.0                 !
 ! D15   D(8,2,3,4)            180.0            -DE/DX =    0.0                 !
 ! D16   D(8,2,3,9)              0.0            -DE/DX =    0.0                 !
 ! D17   D(2,3,4,5)              0.0            -DE/DX =    0.0                 !
 ! D18   D(2,3,4,10)           180.0            -DE/DX =    0.0                 !
 ! D19   D(9,3,4,5)            180.0            -DE/DX =    0.0                 !
 ! D20   D(9,3,4,10)             0.0            -DE/DX =    0.0                 !
 ! D21   D(3,4,5,6)              0.0            -DE/DX =    0.0                 !
 ! D22   D(3,4,5,11)           180.0            -DE/DX =    0.0                 !
 ! D23   D(10,4,5,6)           180.0            -DE/DX =    0.0                 !
 ! D24   D(10,4,5,11)            0.0            -DE/DX =    0.0                 !
 ! D25   D(4,5,6,1)              0.0            -DE/DX =    0.0                 !
 ! D26   D(4,5,6,12)           180.0            -DE/DX =    0.0                 !
 ! D27   D(11,5,6,1)           180.0            -DE/DX =    0.0                 !
 ! D28   D(11,5,6,12)            0.0            -DE/DX =    0.0                 !
 --------------------------------------------------------------------------------
 GradGradGradGradGradGradGradGradGradGradGradGradGradGradGradGradGradGrad


 ----------------------------------------------------------------------

 Electric dipole moment (input orientation):
 (Debye = 10**-18 statcoulomb cm , SI units = C m)
                  (au)            (Debye)         (10**-30 SI)
   Tot        0.593876D-01      0.150948D+00      0.503509D+00
   x          0.000000D+00      0.000000D+00      0.000000D+00
   y          0.000000D+00      0.000000D+00      0.000000D+00
   z         -0.593876D-01     -0.150948D+00     -0.503509D+00

 Dipole polarizability, Alpha (input orientation).
 (esu units = cm**3 , SI units = C**2 m**2 J**-1)
 Alpha(0;0):
               (au)            (10**-24 esu)      (10**-40 SI)
   iso        0.832308D+02      0.123335D+02      0.137229D+02
   aniso      0.633342D+02      0.938516D+01      0.104424D+02
   xx         0.459130D+02      0.680360D+01      0.757003D+01
   yx         0.000000D+00      0.000000D+00      0.000000D+00
   yy         0.847839D+02      0.125637D+02      0.139790D+02
   zx         0.000000D+00      0.000000D+00      0.000000D+00
   zy         0.000000D+00      0.000000D+00      0.000000D+00
   zz         0.118996D+03      0.176333D+02      0.196197D+02

 ----------------------------------------------------------------------

 Dipole orientation:
     6          0.00000000          0.00000000         -1.87476499
     6          0.00000000         -2.29375921         -0.47437450
     6         -0.00000000         -2.28116545          2.13248962
     6         -0.00000000         -0.00000000          3.46080579
     6         -0.00000000          2.28116545          2.13248962
     6         -0.00000000          2.29375921         -0.47437450
     6          0.00000000          0.00000000         -4.52137376
     1          0.00000000         -4.06774940         -1.49240365
     1         -0.00000000         -4.05176081          3.15499421
     1         -0.00000000         -0.00000000          5.50382180
     1         -0.00000000          4.05176081          3.15499421
     1         -0.00000000          4.06774940         -1.49240365
     1          0.00000000         -1.74738896         -5.57663500
     1          0.00000000          1.74738896         -5.57663500

 Electric dipole moment (dipole orientation):
 (Debye = 10**-18 statcoulomb cm , SI units = C m)
                  (au)            (Debye)         (10**-30 SI)
   Tot        0.593876D-01      0.150948D+00      0.503509D+00
   x          0.000000D+00      0.000000D+00      0.000000D+00
   y          0.000000D+00      0.000000D+00      0.000000D+00
   z          0.593876D-01      0.150948D+00      0.503509D+00

 Dipole polarizability, Alpha (dipole orientation).
 (esu units = cm**3 , SI units = C**2 m**2 J**-1)
 Alpha(0;0):
               (au)            (10**-24 esu)      (10**-40 SI)
   iso        0.832308D+02      0.123335D+02      0.137229D+02
   aniso      0.633342D+02      0.938516D+01      0.104424D+02
   xx         0.459130D+02      0.680360D+01      0.757003D+01
   yx         0.000000D+00      0.000000D+00      0.000000D+00
   yy         0.847839D+02      0.125637D+02      0.139790D+02
   zx         0.000000D+00      0.000000D+00      0.000000D+00
   zy         0.000000D+00      0.000000D+00      0.000000D+00
   zz         0.118996D+03      0.176333D+02      0.196197D+02

 ----------------------------------------------------------------------
 1\1\GINC-GAMBA\Freq\UB3LYP\Gen\C7H7(2)\IRIKURA\16-Jun-2022\0\\#N Geom=
 AllCheck Guess=TCheck SCRF=Check GenChk UB3LYP/ChkBas Freq\\benzyl, B3
 LYP/pcseg-2\\0,2\C,0.,0.,0.9920829098\C,0.,1.2138051005,0.2510281747\C
 ,0.,1.207140768,-1.1284649114\C,0.,0.,-1.831379555\C,0.,-1.207140768,-
 1.1284649114\C,0.,-1.2138051005,0.2510281747\C,0.,0.,2.3926079558\H,0.
 ,2.1525602831,0.7897459988\H,0.,2.1440994823,-1.6695510353\H,0.,0.,-2.
 9124970705\H,0.,-2.1440994823,-1.6695510353\H,0.,-2.1525602831,0.78974
 59988\H,0.,0.924678417,2.9510281531\H,0.,-0.924678417,2.9510281531\\Ve
 rsion=ES64L-G16RevB.01\State=2-B1\HF=-271.0202159\S2=0.779832\S2-1=0.\
 S2A=0.750602\RMSD=1.124e-09\RMSF=8.859e-05\ZeroPoint=0.1145276\Thermal
 =0.1201884\Dipole=0.,0.,-0.0593876\DipoleDeriv=-0.0097756,0.,0.,0.,-0.
 1043888,0.,0.,0.,0.0810328,-0.1161589,0.,0.,0.,0.0415513,0.1010088,0.,
 0.0618039,0.0116612,-0.1342596,0.,0.,0.,0.0815565,-0.1115198,0.,-0.073
 0435,-0.0201909,-0.1366957,0.,0.,0.,-0.0475891,0.,0.,0.,0.0097321,-0.1
 342596,0.,0.,0.,0.0815564,0.1115197,0.,0.0730434,-0.0201909,-0.1161589
 ,0.,0.,0.,0.0415513,-0.1010087,0.,-0.0618039,0.0116613,-0.3005405,0.,0
 .,0.,0.1884173,0.,0.,0.,-0.0497383,0.1286297,0.,0.,0.,-0.0543033,-0.05
 19324,0.,-0.0806648,0.0082839,0.1325418,0.,0.,0.,-0.0629329,0.0835628,
 0.,0.072072,0.0222701,0.1388075,0.,0.,0.,0.0623252,0.,0.,0.,-0.0980202
 ,0.1325418,0.,0.,0.,-0.0629329,-0.0835628,0.,-0.072072,0.0222701,0.128
 6297,0.,0.,0.,-0.0543033,0.0519324,0.,0.0806647,0.0082838,0.1433492,0.
 ,0.,0.,-0.0552537,-0.0765815,0.,-0.0086922,0.0064724,0.1433492,0.,0.,0
 .,-0.0552537,0.0765815,0.,0.0086922,0.0064724\Polar=45.9129949,0.,84.7
 83852,0.,0.0000002,118.9955617\Quadrupole=-4.2928332,2.3833121,1.90952
 11,0.,0.,0.\PG=C02V [C2(H1C1C1C1),SGV(C4H6)]\NImag=0\\0.14771838,0.,0.
 61652040,0.,0.,0.61043109,-0.06824877,0.,0.,0.13121671,0.,-0.24173694,
 0.05143322,0.,0.66248466,0.,0.04530350,-0.12063740,0.,0.05708166,0.691
 89084,0.00728384,0.,0.,-0.06036122,0.,0.,0.13333378,0.,0.02730620,0.01
 661107,0.,-0.13048241,0.03854171,0.,0.69984289,0.,0.05562107,-0.049788
 86,0.,-0.03006957,-0.34169167,0.,-0.05121158,0.66990120,-0.00785021,0.
 ,0.,0.00832283,0.,0.,-0.06204002,0.,0.,0.12802731,0.,-0.04939832,0.,0.
 ,0.02375793,-0.07925847,0.,-0.26188516,-0.03549347,0.,0.61866552,0.,0.
 ,0.01706352,0.,-0.02767330,-0.03626561,0.,-0.10873325,-0.16772630,0.,0
 .,0.72771101,0.00728384,0.,0.,-0.00457570,0.,0.,0.00715255,0.,0.,-0.06
 204002,0.,0.,0.13333378,0.,0.02730621,-0.01661107,0.,-0.00869983,0.023
 65516,0.,-0.05878386,-0.02152640,0.,-0.26188517,0.10873326,0.,0.699842
 89,0.,-0.05562107,-0.04978887,0.,0.01339751,-0.04005680,0.,0.02152640,
 0.06289951,0.,0.03549347,-0.16772630,0.,0.05121158,0.66990120,-0.06824
 877,0.,0.,0.00592090,0.,0.,-0.00457570,0.,0.,0.00832283,0.,0.,-0.06036
 122,0.,0.,0.13121671,0.,-0.24173694,-0.05143324,0.,-0.03929203,0.00203
 756,0.,-0.00869983,-0.01339751,0.,0.02375792,0.02767330,0.,-0.13048241
 ,0.03006957,0.,0.66248466,0.,-0.04530350,-0.12063741,0.,-0.00203756,0.
 04354264,0.,-0.02365516,-0.04005680,0.,0.07925847,-0.03626561,0.,-0.03
 854171,-0.34169167,0.,-0.05708166,0.69189084,-0.04568827,0.,0.,0.00644
 361,0.,0.,0.00378575,0.,0.,-0.00096273,0.,0.,0.00378575,0.,0.,0.006443
 61,0.,0.,0.07154910,0.,-0.10628034,0.,0.,0.00240064,0.03664285,0.,-0.0
 0653181,0.00101152,0.,0.00069596,0.,0.,-0.00653181,-0.00101152,0.,0.00
 240064,-0.03664285,0.,0.65199180,0.,0.,-0.27759301,0.,0.03575308,-0.05
 383444,0.,0.01020002,0.01889945,0.,0.,-0.01251044,0.,-0.01020002,0.018
 89946,0.,-0.03575307,-0.05383444,0.,0.,0.61974205,0.00283187,0.,0.,-0.
 03521772,0.,0.,0.00426875,0.,0.,0.00763281,0.,0.,-0.00090719,0.,0.,0.0
 0524610,0.,0.,-0.00227432,0.,0.,0.02363719,0.,-0.01971122,-0.01527980,
 0.,-0.26635617,-0.11820070,0.,0.00360037,0.00191015,0.,0.00190534,0.00
 049741,0.,0.00004259,0.00083274,0.,-0.00290852,0.00403388,0.,0.0009524
 5,-0.00187831,0.,0.28194881,0.,0.01406430,0.01046935,0.,-0.11788812,-0
 .12621114,0.,-0.02941360,-0.01112850,0.,0.00153403,-0.00553791,0.,0.00
 055346,-0.00048233,0.,0.00307895,-0.00139954,0.,0.00114436,0.00112817,
 0.,0.12786227,0.13214243,0.00839407,0.,0.,0.00376586,0.,0.,-0.03808109
 ,0.,0.,0.00337236,0.,0.,0.00660220,0.,0.,-0.00086955,0.,0.,0.00013728,
 0.,0.,-0.00461590,0.,0.,0.02609279,0.,0.00175724,-0.00086411,0.,0.0035
 7762,-0.00151477,0.,-0.26621965,0.11890254,0.,-0.01899644,0.01612426,0
 .,-0.00313421,-0.00402688,0.,0.00037306,-0.00085251,0.,-0.00002556,0.0
 0005854,0.,0.00087305,0.00036088,0.,0.28174833,0.,-0.00178400,-0.00551
 088,0.,0.02958191,-0.01155599,0.,0.11865476,-0.12857201,0.,-0.01486610
 ,0.01206693,0.,-0.00319241,-0.00089812,0.,-0.00060542,-0.00066594,0.,0
 .00150105,0.00008166,0.,-0.00042064,0.00110950,0.,-0.12877967,0.133190
 44,-0.00118413,0.,0.,0.00621093,0.,0.,0.00352399,0.,0.,-0.03401990,0.,
 0.,0.00352399,0.,0.,0.00621093,0.,0.,-0.00047647,0.,0.,0.00011365,0.,0
 .,-0.00361631,0.,0.,0.02317113,0.,-0.00108744,0.,0.,-0.00463743,-0.002
 26224,0.,0.00476590,-0.02835330,0.,-0.05995397,0.,0.,0.00476590,0.0283
 5330,0.,-0.00463743,0.00226224,0.,0.00022904,0.,0.,0.00001556,-0.00139
 801,0.,0.00106767,0.00064492,0.,0.05832071,0.,0.,0.00056874,0.,-0.0031
 1618,0.00065107,0.,0.00256237,-0.01148081,0.,0.,-0.33753184,0.,-0.0025
 6237,-0.01148081,0.,0.00311618,0.00065107,0.,0.,0.00007759,0.,0.000186
 55,-0.00066025,0.,-0.00029679,0.00082005,0.,0.,0.35822111,0.00839407,0
 .,0.,-0.00086955,0.,0.,0.00660220,0.,0.,0.00337236,0.,0.,-0.03808109,0
 .,0.,0.00376586,0.,0.,0.00013728,0.,0.,-0.00098735,0.,0.,0.00014541,0.
 ,0.,-0.00361631,0.,0.,0.02609279,0.,0.00175724,0.00086411,0.,0.0003730
 6,0.00085251,0.,-0.00313421,0.00402688,0.,-0.01899644,-0.01612426,0.,-
 0.26621965,-0.11890254,0.,0.00357762,0.00151477,0.,-0.00002556,-0.0000
 5854,0.,-0.00000910,-0.00009498,0.,-0.00103204,-0.00079779,0.,0.001067
 67,0.00029679,0.,0.28174833,0.,0.00178400,-0.00551087,0.,0.00060542,-0
 .00066594,0.,0.00319241,-0.00089812,0.,0.01486610,0.01206693,0.,-0.118
 65476,-0.12857201,0.,-0.02958191,-0.01155599,0.,-0.00150105,0.00008165
 ,0.,-0.00010311,0.00005525,0.,0.00079779,0.00038775,0.,-0.00064492,0.0
 0082005,0.,0.12877967,0.13319044,0.00283187,0.,0.,0.00524610,0.,0.,-0.
 00090719,0.,0.,0.00763281,0.,0.,0.00426875,0.,0.,-0.03521772,0.,0.,-0.
 00227432,0.,0.,0.00026146,0.,0.,-0.00098735,0.,0.,0.00011366,0.,0.,-0.
 00461590,0.,0.,0.02363719,0.,-0.01971122,0.01527981,0.,-0.00290852,-0.
 00403388,0.,0.00004259,-0.00083274,0.,0.00190534,-0.00049741,0.,0.0036
 0037,-0.00191015,0.,-0.26635617,0.11820070,0.,0.00095245,0.00187830,0.
 ,-0.00108528,0.00078989,0.,-0.00000910,0.00010311,0.,0.00001556,-0.000
 18655,0.,0.00087305,0.00042064,0.,0.28194881,0.,-0.01406430,0.01046936
 ,0.,-0.00307895,-0.00139954,0.,-0.00055346,-0.00048233,0.,-0.00153403,
 -0.00553791,0.,0.02941360,-0.01112850,0.,0.11788812,-0.12621114,0.,-0.
 00114436,0.00112816,0.,-0.00078989,0.00053908,0.,0.00009498,0.00005525
 ,0.,0.00139801,-0.00066025,0.,-0.00036088,0.00110950,0.,-0.12786227,0.
 13214243,0.00324112,0.,0.,-0.00307800,0.,0.,-0.00004268,0.,0.,0.000114
 78,0.,0.,0.00005701,0.,0.,0.00522402,0.,0.,-0.02030313,0.,0.,0.0001633
 1,0.,0.,0.00008199,0.,0.,0.00002241,0.,0.,-0.00042176,0.,0.,-0.0001526
 6,0.,0.,0.01209375,0.,0.00250756,0.00209804,0.,0.00071899,0.00139332,0
 .,0.00014561,-0.00044281,0.,0.00021375,0.00018809,0.,0.00003336,0.0001
 4480,0.,0.00080041,0.00023821,0.,-0.27011395,-0.12663321,0.,0.00035058
 ,-0.00036879,0.,0.00000342,-0.00006228,0.,0.00003414,-0.00003506,0.,0.
 00001661,-0.00002255,0.,0.00038154,0.00022464,0.,0.27938712,0.,-0.0277
 8456,-0.00976738,0.,-0.00171871,0.00142855,0.,0.00044181,0.00015621,0.
 ,0.00005298,0.00009676,0.,-0.00183652,-0.00003097,0.,0.00227040,-0.005
 19456,0.,-0.12257388,-0.13113292,0.,0.00111949,-0.00007835,0.,0.000010
 57,-0.00002542,0.,0.00007476,0.00000215,0.,0.00001482,-0.00048322,0.,-
 0.00022997,0.00005426,0.,0.13671821,0.13487140,0.00324112,0.,0.,0.0052
 2402,0.,0.,0.00005701,0.,0.,0.00011478,0.,0.,-0.00004268,0.,0.,-0.0030
 7800,0.,0.,-0.02030313,0.,0.,-0.00015266,0.,0.,-0.00042176,0.,0.,0.000
 02241,0.,0.,0.00008199,0.,0.,0.00016331,0.,0.,0.00299984,0.,0.,0.01209
 375,0.,0.00250757,-0.00209803,0.,0.00080041,-0.00023821,0.,0.00003336,
 -0.00014480,0.,0.00021375,-0.00018809,0.,0.00014561,0.00044281,0.,0.00
 071899,-0.00139332,0.,-0.27011395,0.12663321,0.,0.00038154,-0.00022464
 ,0.,0.00001661,0.00002255,0.,0.00003414,0.00003506,0.,0.00000342,0.000
 06228,0.,0.00035058,0.00036879,0.,-0.01447916,0.01344060,0.,0.27938712
 ,0.,0.02778456,-0.00976739,0.,-0.00227040,-0.00519456,0.,0.00183652,-0
 .00003097,0.,-0.00005298,0.00009676,0.,-0.00044181,0.00015621,0.,0.001
 71871,0.00142855,0.,0.12257388,-0.13113292,0.,0.00022997,0.00005426,0.
 ,-0.00001482,-0.00048322,0.,-0.00007476,0.00000215,0.,-0.00001057,-0.0
 0002542,0.,-0.00111949,-0.00007835,0.,-0.01344060,0.01010350,0.,-0.136
 71821,0.13487140\\0.,0.,-0.00003334,0.,-0.00008515,-0.00017024,0.,-0.0
 0016764,0.00011005,0.,0.,0.00022706,0.,0.00016764,0.00011005,0.,0.0000
 8515,-0.00017024,0.,0.,-0.00031007,0.,-0.00005424,0.00000551,0.,-0.000
 04334,0.00004982,0.,0.,0.00007796,0.,0.00004334,0.00004982,0.,0.000054
 24,0.00000551,0.,-0.00005482,0.00002405,0.,0.00005482,0.00002405\\\@


 IT IS A CAPITAL MISTAKE TO THEORIZE BEFORE ONE HAS
 DATA.  INSENSIBLY ONE BEGINS TO TWIST FACTS TO SUIT
 THEORIES RATHER THAN THEORIES TO SUIT FACTS.

                                         -- SHERLOCK HOLMES
 Job cpu time:       0 days  1 hours  5 minutes 59.4 seconds.
 Elapsed time:       0 days  0 hours  5 minutes 30.9 seconds.
 File lengths (MBytes):  RWF=    160 Int=      0 D2E=      0 Chk=     12 Scr=      1
 Normal termination of Gaussian 16 at Thu Jun 16 08:01:37 2022.
