 Entering Gaussian System, Link 0=g16
 AtFile(1): pcseg2.gbs
            -H     0
            S   4   1.00
                  0.754732D+02           0.427821D-02
                  0.113575D+02           0.328672D-01
                  0.260081D+01           0.159578D+00
                  0.735503D+00           0.500000D+00
            S   1   1.00
                  0.231761D+00           1.0000000
            S   1   1.00
                  0.741675D-01           1.0000000
            P   1   1.00
                  0.160000D+01           1.0000000
            P   1   1.00
                  0.450000D+00           1.0000000
            D   1   1.00
                  0.125000D+01           1.0000000
            ****
            -C     0
            S   7   1.00
                  0.731999D+04           0.695369D-03
                  0.109818D+04           0.537138D-02
                  0.250014D+03           0.274734D-01
                  0.707586D+02           0.105078D+00
                  0.228595D+02           0.291262D+00
                  0.803936D+01           0.500000D+00
                  0.289309D+01           0.362224D+00
            S   2   1.00
                  0.521640D+01          -0.957844D-01
                  0.556124D+00           0.500000D+00
            S   1   1.00
                  0.228813D+00           1.0000000
            S   1   1.00
                  0.936338D-01           1.0000000
            P   4   1.00
                  0.339855D+02           0.818395D-02
                  0.772957D+01           0.586921D-01
                  0.224954D+01           0.222514D+00
                  0.767681D+00           0.500000D+00
            P   1   1.00
                  0.263283D+00           1.0000000
            P   1   1.00
                  0.848744D-01           1.0000000
            D   1   1.00
                  0.140000D+01           1.0000000
            D   1   1.00
                  0.450000D+00           1.0000000
            F   1   1.00
                  0.950000D+00           1.0000000
            ****
            -O     0
            S   7   1.00
                  0.135887D+05           0.665492D-03
                  0.203847D+04           0.514222D-02
                  0.464041D+03           0.263472D-01
                  0.131339D+03           0.101500D+00
                  0.425340D+02           0.285877D+00
                  0.150429D+02           0.500000D+00
                  0.546616D+01           0.368211D+00
            S   2   1.00
                  0.100915D+02          -0.100084D+00
                  0.110429D+01           0.500000D+00
            S   1   1.00
                  0.448082D+00           1.0000000
            S   1   1.00
                  0.175325D+00           1.0000000
            P   4   1.00
                  0.608220D+02           0.908253D-02
                  0.140332D+02           0.645878D-01
                  0.418244D+01           0.241502D+00
                  0.142490D+01           0.500000D+00
            P   1   1.00
                  0.478741D+00           1.0000000
            P   1   1.00
                  0.146257D+00           1.0000000
            D   1   1.00
                  0.220000D+01           1.0000000
            D   1   1.00
                  0.650000D+00           1.0000000
            F   1   1.00
                  0.110000D+01           1.0000000
            ****
            -N     0
            S   7   1.00
                  0.101643D+05           0.682757D-03
                  0.152481D+04           0.527488D-02
                  0.347119D+03           0.270037D-01
                  0.982389D+02           0.103673D+00
                  0.317799D+02           0.289575D+00
                  0.112240D+02           0.500000D+00
                  0.406611D+01           0.364621D+00
            S   2   1.00
                  0.747898D+01          -0.975681D-01
                  0.805040D+00           0.500000D+00
            S   1   1.00
                  0.324626D+00           1.0000000
            S   1   1.00
                  0.128132D+00           1.0000000
            P   4   1.00
                  0.482704D+02           0.829547D-02
                  0.110815D+02           0.596223D-01
                  0.326643D+01           0.227889D+00
                  0.111680D+01           0.500000D+00
            P   1   1.00
                  0.382049D+00           1.0000000
            P   1   1.00
                  0.121222D+00           1.0000000
            D   1   1.00
                  0.180000D+01           1.0000000
            D   1   1.00
                  0.550000D+00           1.0000000
            F   1   1.00
                  0.102000D+01           1.0000000
            ****
            -F     0
            S   7   1.00
                  0.174507D+05           0.655972D-03
                  0.261768D+04           0.506944D-02
                  0.595857D+03           0.259899D-01
                  0.168651D+03           0.100353D+00
                  0.546654D+02           0.284095D+00
                  0.193717D+02           0.500000D+00
                  0.706202D+01           0.370721D+00
            S   2   1.00
                  0.131197D+02          -0.101997D+00
                  0.145046D+01           0.500000D+00
            S   1   1.00
                  0.588255D+00           1.0000000
            S   1   1.00
                  0.227960D+00           1.0000000
            P   4   1.00
                  0.779407D+02           0.931135D-02
                  0.180425D+02           0.663964D-01
                  0.542342D+01           0.246386D+00
                  0.184876D+01           0.500000D+00
            P   1   1.00
                  0.617455D+00           1.0000000
            P   1   1.00
                  0.185496D+00           1.0000000
            D   1   1.00
                  0.280000D+01           1.0000000
            D   1   1.00
                  0.800000D+00           1.0000000
            F   1   1.00
                  0.120000D+01           1.0000000
            ****
            -Cl     0
            S   8   1.00
                  0.154272D+06           0.222473D-03
                  0.231232D+05           0.172590D-02
                  0.526257D+04           0.899286D-02
                  0.148995D+04           0.367724D-01
                  0.485417D+03           0.121446D+00
                  0.174634D+03           0.304148D+00
                  0.672393D+02           0.500000D+00
                  0.265780D+02           0.360252D+00
            S   3   1.00
                  0.131826D+03          -0.531330D-01
                  0.400703D+02          -0.233346D+00
                  0.789448D+01           0.500000D+00
            S   2   1.00
                  0.427711D+01           0.500000D+00
                  0.196233D+01           0.370517D+00
            S   1   1.00
                  0.520793D+00           1.0000000
            S   1   1.00
                  0.181633D+00           1.0000000
            P   7   1.00
                  0.124440D+04           0.988206D-03
                  0.295109D+03           0.829674D-02
                  0.947224D+02           0.430906D-01
                  0.352588D+02           0.148443D+00
                  0.144211D+02           0.344744D+00
                  0.610371D+01           0.500000D+00
                  0.258886D+01           0.348278D+00
            P   2   1.00
                  0.109447D+02          -0.196768D-01
                  0.104413D+01           0.500000D+00
            P   1   1.00
                  0.376184D+00           1.0000000
            P   1   1.00
                  0.120613D+00           1.0000000
            D   1   1.00
                  0.231000D+01           1.0000000
            D   1   1.00
                  0.520000D+00           1.0000000
            F   1   1.00
                  0.720000D+00           1.0000000
            ****
            -S     0
            S   8   1.00
                  0.134700D+06           0.226231D-03
                  0.201904D+05           0.175488D-02
                  0.459528D+04           0.914190D-02
                  0.130109D+04           0.373551D-01
                  0.423902D+03           0.123121D+00
                  0.152485D+03           0.306801D+00
                  0.586925D+02           0.500000D+00
                  0.231461D+02           0.354358D+00
            S   3   1.00
                  0.116327D+03          -0.491772D-01
                  0.352841D+02          -0.215962D+00
                  0.677831D+01           0.500000D+00
            S   2   1.00
                  0.360404D+01           0.500000D+00
                  0.164871D+01           0.366278D+00
            S   1   1.00
                  0.421821D+00           1.0000000
            S   1   1.00
                  0.147554D+00           1.0000000
            P   7   1.00
                  0.104863D+04           0.105273D-02
                  0.248717D+03           0.879338D-02
                  0.797887D+02           0.453358D-01
                  0.296023D+02           0.154476D+00
                  0.120627D+02           0.352366D+00
                  0.507628D+01           0.500000D+00
                  0.213375D+01           0.346429D+00
            P   2   1.00
                  0.928958D+01          -0.185932D-01
                  0.837819D+00           0.500000D+00
            P   1   1.00
                  0.301495D+00           1.0000000
            P   1   1.00
                  0.974740D-01           1.0000000
            D   1   1.00
                  0.210000D+01           1.0000000
            D   1   1.00
                  0.480000D+00           1.0000000
            F   1   1.00
                  0.660000D+00           1.0000000
            ****
            -Br     0
            S    10   1.00
                  0.233625D+07           0.532336D-04
                  0.349961D+06           0.413715D-03
                  0.796444D+05           0.217123D-02
                  0.225555D+05           0.910109D-02
                  0.735546D+04           0.323789D-01
                  0.265352D+04           0.988755D-01
                  0.103517D+04           0.248138D+00
                  0.422205D+03           0.474328D+00
                  0.180035D+03           0.500000D+00
                  0.793308D+02           0.187769D+00
            S    4   1.00
                  0.620834D+03          -0.226511D-01
                  0.190829D+03          -0.109497D+00
                  0.312505D+02           0.500000D+00
                  0.135270D+02           0.492812D+00
            S    2   1.00
                  0.216097D+02          -0.165418D+00
                  0.372566D+01           0.500000D+00
            S    1   1.00
                  0.169770D+01           1.0000000
            S    1   1.00
                  0.489332D+00           1.0000000
            S    1   1.00
                  0.175712D+00           1.0000000
            P    8   1.00
                  0.960829D+04           0.478974D-03
                  0.227618D+04           0.417853D-02
                  0.736723D+03           0.229315D-01
                  0.281579D+03           0.892653D-01
                  0.118395D+03           0.255288D+00
                  0.527481D+02           0.479074D+00
                  0.245098D+02           0.500000D+00
                  0.112009D+02           0.200944D+00
            P    4   1.00
                  0.587849D+02          -0.189674D-01
                  0.918962D+01           0.264104D+00
                  0.413895D+01           0.500000D+00
                  0.184225D+01           0.319316D+00
            P    1   1.00
                  0.713862D+00           1.0000000
            P    1   1.00
                  0.274232D+00           1.0000000
            P    1   1.00
                  0.944411D-01           1.0000000
            D    7   1.00
                  0.398470D+03           0.204066D-02
                  0.118967D+03           0.175171D-01
                  0.450197D+02           0.829708D-01
                  0.190320D+02           0.236284D+00
                  0.855686D+01           0.428468D+00
                  0.382950D+01           0.500000D+00
                  0.166291D+01           0.349360D+00
            D    1   1.00
                  0.672953D+00           1.0000000
            D    1   1.00
                  0.252000D+00           1.0000000
            F    1   1.00
                  0.530000D+00           1.0000000
            ****
            -Si     0
            S    8   1.00
                  0.996133D+05           0.235546D-03
                  0.149311D+05           0.182707D-02
                  0.339820D+04           0.951425D-02
                  0.962140D+03           0.388172D-01
                  0.313430D+03           0.127328D+00
                  0.112683D+03           0.313522D+00
                  0.433372D+02           0.500000D+00
                  0.170029D+02           0.340347D+00
            S    3   1.00
                  0.884208D+02          -0.404451D-01
                  0.266756D+02          -0.178059D+00
                  0.479640D+01           0.500000D+00
            S    2   1.00
                  0.239385D+01           0.500000D+00
                  0.108333D+01           0.338016D+00
            S    1   1.00
                  0.252420D+00           1.0000000
            S    1   1.00
                  0.891210D-01           1.0000000
            P    7   1.00
                  0.709901D+03           0.123028D-02
                  0.168426D+03           0.101366D-01
                  0.539946D+02           0.511840D-01
                  0.198646D+02           0.169967D+00
                  0.801369D+01           0.370717D+00
                  0.331870D+01           0.500000D+00
                  0.136112D+01           0.344128D+00
            P    2   1.00
                  0.622158D+01          -0.166609D-01
                  0.503049D+00           0.500000D+00
            P    1   1.00
                  0.179848D+00           1.0000000
            P    1   1.00
                  0.591912D-01           1.0000000
            D    1   1.00
                  0.168000D+01           1.0000000
            D    1   1.00
                  0.380000D+00           1.0000000
            F    1   1.00
                  0.540000D+00           1.0000000
            ****
            -P     0
            S    8   1.00
                  0.116416D+06           0.230715D-03
                  0.174500D+05           0.178960D-02
                  0.397149D+04           0.932116D-02
                  0.112447D+04           0.380591D-01
                  0.366347D+03           0.125148D+00
                  0.131757D+03           0.310022D+00
                  0.506988D+02           0.500000D+00
                  0.199436D+02           0.347528D+00
            S    3   1.00
                  0.101878D+03          -0.446755D-01
                  0.308249D+02          -0.196376D+00
                  0.573688D+01           0.500000D+00
            S    2   1.00
                  0.296868D+01           0.500000D+00
                  0.135315D+01           0.355098D+00
            S    1   1.00
                  0.332196D+00           1.0000000
            S    1   1.00
                  0.116229D+00           1.0000000
            P    7   1.00
                  0.873928D+03           0.112375D-02
                  0.207298D+03           0.933330D-02
                  0.664628D+02           0.477213D-01
                  0.245665D+02           0.160733D+00
                  0.996820D+01           0.359760D+00
                  0.416536D+01           0.500000D+00
                  0.173022D+01           0.346593D+00
            P    2   1.00
                  0.772530D+01          -0.175718D-01
                  0.657252D+00           0.500000D+00
            P    1   1.00
                  0.239903D+00           1.0000000
            P    1   1.00
                  0.800988D-01           1.0000000
            D    1   1.00
                  0.189000D+01           1.0000000
            D    1   1.00
                  0.430000D+00           1.0000000
            F    1   1.00
                  0.600000D+00           1.0000000
            ****
            
 Initial command:
 /usr/local/apps/g16_b01_avx/g16/l1.exe "/wrk/irikura/Gau-459347.inp" -scrdir="/wrk/irikura/"
 Entering Link 1 = /usr/local/apps/g16_b01_avx/g16/l1.exe PID=    459349.
  
 Copyright (c) 1988-2017, Gaussian, Inc.  All Rights Reserved.
  
 This is part of the Gaussian(R) 16 program.  It is based on
 the Gaussian(R) 09 system (copyright 2009, Gaussian, Inc.),
 the Gaussian(R) 03 system (copyright 2003, Gaussian, Inc.),
 the Gaussian(R) 98 system (copyright 1998, Gaussian, Inc.),
 the Gaussian(R) 94 system (copyright 1995, Gaussian, Inc.),
 the Gaussian 92(TM) system (copyright 1992, Gaussian, Inc.),
 the Gaussian 90(TM) system (copyright 1990, Gaussian, Inc.),
 the Gaussian 88(TM) system (copyright 1988, Gaussian, Inc.),
 the Gaussian 86(TM) system (copyright 1986, Carnegie Mellon
 University), and the Gaussian 82(TM) system (copyright 1983,
 Carnegie Mellon University). Gaussian is a federally registered
 trademark of Gaussian, Inc.
  
 This software contains proprietary and confidential information,
 including trade secrets, belonging to Gaussian, Inc.
  
 This software is provided under written license and may be
 used, copied, transmitted, or stored only in accord with that
 written license.
  
 The following legend is applicable only to US Government
 contracts under FAR:
  
                    RESTRICTED RIGHTS LEGEND
  
 Use, reproduction and disclosure by the US Government is
 subject to restrictions as set forth in subparagraphs (a)
 and (c) of the Commercial Computer Software - Restricted
 Rights clause in FAR 52.227-19.
  
 Gaussian, Inc.
 340 Quinnipiac St., Bldg. 40, Wallingford CT 06492
  
  
 ---------------------------------------------------------------
 Warning -- This program may not be used in any manner that
 competes with the business of Gaussian, Inc. or will provide
 assistance to any competitor of Gaussian, Inc.  The licensee
 of this program is prohibited from giving any competitor of
 Gaussian, Inc. access to this program.  By using this program,
 the user acknowledges that Gaussian, Inc. is engaged in the
 business of creating and licensing software in the field of
 computational chemistry and represents and warrants to the
 licensee that it is not a competitor of Gaussian, Inc. and that
 it will not use this program in any manner prohibited above.
 ---------------------------------------------------------------
  

 Cite this work as:
 Gaussian 16, Revision B.01,
 M. J. Frisch, G. W. Trucks, H. B. Schlegel, G. E. Scuseria, 
 M. A. Robb, J. R. Cheeseman, G. Scalmani, V. Barone, 
 G. A. Petersson, H. Nakatsuji, X. Li, M. Caricato, A. V. Marenich, 
 J. Bloino, B. G. Janesko, R. Gomperts, B. Mennucci, H. P. Hratchian, 
 J. V. Ortiz, A. F. Izmaylov, J. L. Sonnenberg, D. Williams-Young, 
 F. Ding, F. Lipparini, F. Egidi, J. Goings, B. Peng, A. Petrone, 
 T. Henderson, D. Ranasinghe, V. G. Zakrzewski, J. Gao, N. Rega, 
 G. Zheng, W. Liang, M. Hada, M. Ehara, K. Toyota, R. Fukuda, 
 J. Hasegawa, M. Ishida, T. Nakajima, Y. Honda, O. Kitao, H. Nakai, 
 T. Vreven, K. Throssell, J. A. Montgomery, Jr., J. E. Peralta, 
 F. Ogliaro, M. J. Bearpark, J. J. Heyd, E. N. Brothers, K. N. Kudin, 
 V. N. Staroverov, T. A. Keith, R. Kobayashi, J. Normand, 
 K. Raghavachari, A. P. Rendell, J. C. Burant, S. S. Iyengar, 
 J. Tomasi, M. Cossi, J. M. Millam, M. Klene, C. Adamo, R. Cammi, 
 J. W. Ochterski, R. L. Martin, K. Morokuma, O. Farkas, 
 J. B. Foresman, and D. J. Fox, Gaussian, Inc., Wallingford CT, 2016.
 
 ******************************************
 Gaussian 16:  ES64L-G16RevB.01 20-Dec-2017
                30-Sep-2023 
 ******************************************
 %chk=butadien2ol.chk
 %mem=500mw
 %nprocs=4
 Will use up to    4 processors via shared memory.
 ---------------------------------------
 # b3lyp/gen opt freq CPHF(Grid=OneStep)
 ---------------------------------------
 1/18=20,19=15,26=3,38=1/1,3;
 2/9=110,12=2,17=6,18=5,40=1/2;
 3/5=7,11=2,25=1,30=1,71=1,74=-5/1,2,3;
 4//1;
 5/5=2,38=5/2;
 6/7=2,8=2,9=2,10=2,28=1/1;
 7//1,2,3,16;
 1/18=20,19=15,26=3/3(2);
 2/9=110/2;
 99//99;
 2/9=110/2;
 3/5=7,6=1,11=2,25=1,30=1,71=1,74=-5,82=7/1,2,3;
 4/5=5,16=3,69=1/1;
 5/5=2,38=5/2;
 7//1,2,3,16;
 1/18=20,19=15,26=3/3(-5);
 2/9=110/2;
 6/7=2,8=2,9=2,10=2,19=2,28=1/1;
 99/9=1/99;
 --------------------------------
 1,3-butadien-2-ol, B3LYP/pcseg-2
 --------------------------------
 Symbolic Z-matrix:
 Charge =  0 Multiplicity = 1
 C                    -0.59825   1.71112   0. 
 C                     0.        0.51333   0. 
 O                     1.35657   0.34722   0. 
 C                    -0.74284  -0.74306   0. 
 C                    -0.19021  -1.95458   0. 
 H                    -1.67407   1.78238   0. 
 H                    -0.03555   2.63502   0. 
 H                     0.88223  -2.08549   0. 
 H                    -0.8023   -2.84511   0. 
 H                    -1.81976  -0.63339   0. 
 H                     1.78465   1.20795   0. 
 

 GradGradGradGradGradGradGradGradGradGradGradGradGradGradGradGradGradGrad
 Berny optimization.
 Initialization pass.
                           ----------------------------
                           !    Initial Parameters    !
                           ! (Angstroms and Degrees)  !
 --------------------------                            --------------------------
 ! Name  Definition              Value          Derivative Info.                !
 --------------------------------------------------------------------------------
 ! R1    R(1,2)                  1.3389         estimate D2E/DX2                !
 ! R2    R(1,6)                  1.0782         estimate D2E/DX2                !
 ! R3    R(1,7)                  1.0818         estimate D2E/DX2                !
 ! R4    R(2,3)                  1.3667         estimate D2E/DX2                !
 ! R5    R(2,4)                  1.4596         estimate D2E/DX2                !
 ! R6    R(3,11)                 0.9613         estimate D2E/DX2                !
 ! R7    R(4,5)                  1.3316         estimate D2E/DX2                !
 ! R8    R(4,10)                 1.0825         estimate D2E/DX2                !
 ! R9    R(5,8)                  1.0804         estimate D2E/DX2                !
 ! R10   R(5,9)                  1.0806         estimate D2E/DX2                !
 ! A1    A(2,1,6)              120.3294         estimate D2E/DX2                !
 ! A2    A(2,1,7)              122.1164         estimate D2E/DX2                !
 ! A3    A(6,1,7)              117.5542         estimate D2E/DX2                !
 ! A4    A(1,2,3)              123.5209         estimate D2E/DX2                !
 ! A5    A(1,2,4)              122.866          estimate D2E/DX2                !
 ! A6    A(3,2,4)              113.6131         estimate D2E/DX2                !
 ! A7    A(2,3,11)             109.4625         estimate D2E/DX2                !
 ! A8    A(2,4,5)              124.8859         estimate D2E/DX2                !
 ! A9    A(2,4,10)             114.7791         estimate D2E/DX2                !
 ! A10   A(5,4,10)             120.335          estimate D2E/DX2                !
 ! A11   A(4,5,8)              121.4798         estimate D2E/DX2                !
 ! A12   A(4,5,9)              120.9774         estimate D2E/DX2                !
 ! A13   A(8,5,9)              117.5428         estimate D2E/DX2                !
 ! D1    D(6,1,2,3)            180.0            estimate D2E/DX2                !
 ! D2    D(6,1,2,4)              0.0            estimate D2E/DX2                !
 ! D3    D(7,1,2,3)              0.0            estimate D2E/DX2                !
 ! D4    D(7,1,2,4)            180.0            estimate D2E/DX2                !
 ! D5    D(1,2,3,11)             0.0            estimate D2E/DX2                !
 ! D6    D(4,2,3,11)           180.0            estimate D2E/DX2                !
 ! D7    D(1,2,4,5)            180.0            estimate D2E/DX2                !
 ! D8    D(1,2,4,10)             0.0            estimate D2E/DX2                !
 ! D9    D(3,2,4,5)              0.0            estimate D2E/DX2                !
 ! D10   D(3,2,4,10)           180.0            estimate D2E/DX2                !
 ! D11   D(2,4,5,8)              0.0            estimate D2E/DX2                !
 ! D12   D(2,4,5,9)            180.0            estimate D2E/DX2                !
 ! D13   D(10,4,5,8)           180.0            estimate D2E/DX2                !
 ! D14   D(10,4,5,9)             0.0            estimate D2E/DX2                !
 --------------------------------------------------------------------------------
 Trust Radius=3.00D-01 FncErr=1.00D-07 GrdErr=1.00D-06 EigMax=2.50D+02 EigMin=1.00D-04
 Number of steps in this run=     47 maximum allowed number of steps=    100.
 GradGradGradGradGradGradGradGradGradGradGradGradGradGradGradGradGradGrad

                          Input orientation:                          
 ---------------------------------------------------------------------
 Center     Atomic      Atomic             Coordinates (Angstroms)
 Number     Number       Type             X           Y           Z
 ---------------------------------------------------------------------
      1          6           0       -0.598245    1.711121    0.000000
      2          6           0        0.000000    0.513327    0.000000
      3          8           0        1.356569    0.347223    0.000000
      4          6           0       -0.742843   -0.743057    0.000000
      5          6           0       -0.190205   -1.954580    0.000000
      6          1           0       -1.674070    1.782375    0.000000
      7          1           0       -0.035546    2.635018    0.000000
      8          1           0        0.882231   -2.085492    0.000000
      9          1           0       -0.802303   -2.845108    0.000000
     10          1           0       -1.819759   -0.633386    0.000000
     11          1           0        1.784648    1.207950    0.000000
 ---------------------------------------------------------------------
                    Distance matrix (angstroms):
                    1          2          3          4          5
     1  C    0.000000
     2  C    1.338883   0.000000
     3  O    2.383593   1.366700   0.000000
     4  C    2.458434   1.459560   2.365638   0.000000
     5  C    3.688341   2.475226   2.773230   1.331614   0.000000
     6  H    1.078182   2.100713   3.353272   2.691652   4.020782
     7  H    1.081765   2.121989   2.678057   3.451327   4.592203
     8  H    4.075056   2.744484   2.478528   2.107842   1.080397
     9  H    4.560796   3.452937   3.853791   2.102892   1.080604
    10  H    2.643636   2.150924   3.324252   1.082486   2.097856
    11  H    2.435438   1.915064   0.961303   3.192904   3.728490
                    6          7          8          9         10
     6  H    0.000000
     7  H    1.847095   0.000000
     8  H    4.636278   4.808901   0.000000
     9  H    4.708883   5.533507   1.847883   0.000000
    10  H    2.420150   3.723692   3.067468   2.434529   0.000000
    11  H    3.506094   2.312927   3.414838   4.808284   4.047501
                   11
    11  H    0.000000
 Stoichiometry    C4H6O
 Framework group  CS[SG(C4H6O)]
 Deg. of freedom    19
 Full point group                 CS      NOp   2
 Largest Abelian subgroup         CS      NOp   2
 Largest concise Abelian subgroup C1      NOp   1
                         Standard orientation:                         
 ---------------------------------------------------------------------
 Center     Atomic      Atomic             Coordinates (Angstroms)
 Number     Number       Type             X           Y           Z
 ---------------------------------------------------------------------
      1          6           0       -0.598245    1.711121    0.000000
      2          6           0        0.000000    0.513327    0.000000
      3          8           0        1.356569    0.347223    0.000000
      4          6           0       -0.742843   -0.743057    0.000000
      5          6           0       -0.190204   -1.954580    0.000000
      6          1           0       -1.674070    1.782374    0.000000
      7          1           0       -0.035547    2.635018    0.000000
      8          1           0        0.882232   -2.085492    0.000000
      9          1           0       -0.802302   -2.845108    0.000000
     10          1           0       -1.819759   -0.633387    0.000000
     11          1           0        1.784648    1.207950    0.000000
 ---------------------------------------------------------------------
 Rotational constants (GHZ):           9.9458113           4.2810053           2.9928038
 General basis read from cards:  (5D, 7F)
 There are   186 symmetry adapted cartesian basis functions of A'  symmetry.
 There are    79 symmetry adapted cartesian basis functions of A"  symmetry.
 There are   160 symmetry adapted basis functions of A'  symmetry.
 There are    74 symmetry adapted basis functions of A"  symmetry.
   234 basis functions,   363 primitive gaussians,   265 cartesian basis functions
    19 alpha electrons       19 beta electrons
       nuclear repulsion energy       162.0382966675 Hartrees.
 NAtoms=   11 NActive=   11 NUniq=   11 SFac= 1.00D+00 NAtFMM=   60 NAOKFM=F Big=F
 Integral buffers will be    131072 words long.
 Raffenetti 2 integral format.
 Two-electron integral symmetry is turned on.
 One-electron integrals computed using PRISM.
 NBasis=   234 RedAO= T EigKep=  1.50D-04  NBF=   160    74
 NBsUse=   234 1.00D-06 EigRej= -1.00D+00 NBFU=   160    74
 ExpMin= 7.42D-02 ExpMax= 1.36D+04 ExpMxC= 4.64D+02 IAcc=3 IRadAn=         5 AccDes= 0.00D+00
 Harris functional with IExCor=  402 and IRadAn=       5 diagonalized for initial guess.
 HarFok:  IExCor=  402 AccDes= 0.00D+00 IRadAn=         5 IDoV= 1 UseB2=F ITyADJ=14
 ICtDFT=  3500011 ScaDFX=  1.000000  1.000000  1.000000  1.000000
 FoFCou: FMM=F IPFlag=           0 FMFlag=      100000 FMFlg1=           0
         NFxFlg=           0 DoJE=T BraDBF=F KetDBF=T FulRan=T
         wScrn=  0.000000 ICntrl=       500 IOpCl=  0 I1Cent=   200000004 NGrid=           0
         NMat0=    1 NMatS0=      1 NMatT0=    0 NMatD0=    1 NMtDS0=    0 NMtDT0=    0
 Petite list used in FoFCou.
 Initial guess orbital symmetries:
       Occupied  (A') (A') (A') (A') (A') (A') (A') (A') (A') (A')
                 (A') (A') (A') (A') (A") (A') (A') (A") (A")
       Virtual   (A") (A") (A') (A') (A') (A') (A') (A') (A') (A')
                 (A") (A') (A') (A") (A') (A') (A') (A") (A') (A")
                 (A') (A') (A') (A') (A') (A') (A') (A') (A') (A")
                 (A') (A') (A') (A') (A') (A') (A') (A") (A") (A")
                 (A') (A") (A') (A") (A') (A') (A") (A') (A') (A')
                 (A") (A') (A') (A') (A") (A') (A') (A') (A') (A")
                 (A") (A') (A") (A') (A") (A") (A') (A") (A') (A")
                 (A') (A') (A') (A") (A') (A') (A') (A") (A") (A')
                 (A') (A') (A') (A') (A') (A') (A") (A') (A") (A')
                 (A') (A') (A') (A') (A') (A') (A") (A') (A') (A')
                 (A') (A') (A') (A") (A") (A") (A') (A") (A') (A')
                 (A") (A') (A") (A") (A') (A") (A') (A') (A') (A')
                 (A") (A') (A') (A") (A') (A') (A") (A') (A') (A")
                 (A") (A') (A") (A") (A') (A") (A') (A') (A") (A")
                 (A') (A') (A') (A") (A') (A') (A") (A') (A') (A")
                 (A') (A") (A') (A") (A') (A") (A') (A") (A") (A')
                 (A") (A") (A') (A") (A') (A") (A') (A') (A") (A")
                 (A') (A') (A') (A') (A") (A") (A') (A') (A") (A')
                 (A') (A') (A") (A') (A') (A') (A") (A') (A') (A")
                 (A') (A') (A') (A") (A') (A") (A') (A') (A') (A')
                 (A') (A') (A") (A') (A") (A') (A') (A") (A') (A')
                 (A') (A') (A') (A') (A')
 The electronic state of the initial guess is 1-A'.
 Requested convergence on RMS density matrix=1.00D-08 within 128 cycles.
 Requested convergence on MAX density matrix=1.00D-06.
 Requested convergence on             energy=1.00D-06.
 No special actions if energy rises.
 Integral accuracy reduced to 1.0D-05 until final iterations.
 Initial convergence to 1.0D-05 achieved.  Increase integral accuracy.
 SCF Done:  E(RB3LYP) =  -231.318613226     A.U. after   13 cycles
            NFock= 13  Conv=0.36D-08     -V/T= 2.0037

 **********************************************************************

            Population analysis using the SCF Density.

 **********************************************************************

 Orbital symmetries:
       Occupied  (A') (A') (A') (A') (A') (A') (A') (A') (A') (A')
                 (A') (A') (A') (A") (A') (A') (A') (A") (A")
       Virtual   (A") (A') (A') (A') (A") (A') (A') (A') (A') (A')
                 (A") (A') (A') (A") (A') (A') (A") (A') (A") (A')
                 (A') (A') (A') (A') (A') (A') (A') (A') (A') (A")
                 (A') (A') (A') (A') (A') (A') (A') (A") (A") (A")
                 (A') (A") (A') (A") (A') (A') (A") (A') (A') (A')
                 (A') (A") (A') (A') (A") (A') (A') (A') (A') (A")
                 (A') (A") (A") (A') (A") (A') (A") (A') (A") (A')
                 (A") (A') (A') (A") (A') (A') (A') (A") (A") (A')
                 (A') (A') (A') (A') (A') (A') (A") (A') (A") (A')
                 (A') (A') (A') (A') (A') (A') (A") (A') (A') (A')
                 (A') (A') (A') (A") (A") (A") (A') (A") (A') (A")
                 (A') (A') (A") (A") (A') (A") (A') (A') (A') (A")
                 (A') (A') (A") (A') (A') (A") (A') (A') (A') (A")
                 (A") (A") (A') (A") (A") (A') (A') (A') (A") (A")
                 (A') (A') (A') (A') (A") (A') (A') (A") (A') (A")
                 (A') (A") (A') (A") (A') (A") (A") (A') (A") (A')
                 (A") (A") (A') (A") (A') (A") (A') (A') (A") (A')
                 (A") (A') (A') (A') (A") (A") (A') (A') (A") (A')
                 (A') (A') (A") (A') (A') (A') (A") (A') (A') (A")
                 (A') (A') (A') (A") (A') (A") (A') (A') (A') (A')
                 (A') (A") (A') (A') (A') (A") (A') (A") (A') (A')
                 (A') (A') (A') (A') (A')
 The electronic state is 1-A'.
 Alpha  occ. eigenvalues --  -19.15827 -10.24277 -10.18186 -10.17172 -10.16352
 Alpha  occ. eigenvalues --   -1.06870  -0.80464  -0.74139  -0.63356  -0.58045
 Alpha  occ. eigenvalues --   -0.50010  -0.48502  -0.45178  -0.41272  -0.40025
 Alpha  occ. eigenvalues --   -0.37797  -0.36736  -0.29596  -0.23370
 Alpha virt. eigenvalues --   -0.03783   0.00381   0.03468   0.04707   0.06555
 Alpha virt. eigenvalues --    0.06857   0.07856   0.10792   0.14255   0.15796
 Alpha virt. eigenvalues --    0.16818   0.18823   0.20572   0.21770   0.23110
 Alpha virt. eigenvalues --    0.24567   0.25025   0.27581   0.27739   0.28767
 Alpha virt. eigenvalues --    0.30116   0.31489   0.33444   0.34227   0.36795
 Alpha virt. eigenvalues --    0.39525   0.40067   0.41007   0.43720   0.44792
 Alpha virt. eigenvalues --    0.49132   0.50560   0.54238   0.56386   0.57427
 Alpha virt. eigenvalues --    0.58581   0.61923   0.64899   0.68325   0.74085
 Alpha virt. eigenvalues --    0.78937   0.80752   0.82640   0.85783   0.88824
 Alpha virt. eigenvalues --    0.92651   0.92914   0.98289   0.99202   1.00421
 Alpha virt. eigenvalues --    1.01834   1.03341   1.06751   1.10423   1.12106
 Alpha virt. eigenvalues --    1.13751   1.14617   1.16511   1.17698   1.23641
 Alpha virt. eigenvalues --    1.24433   1.25026   1.25149   1.26937   1.31838
 Alpha virt. eigenvalues --    1.34889   1.36817   1.41370   1.42063   1.47536
 Alpha virt. eigenvalues --    1.47843   1.51217   1.52858   1.56988   1.58298
 Alpha virt. eigenvalues --    1.61165   1.64949   1.67003   1.71327   1.73358
 Alpha virt. eigenvalues --    1.74929   1.79467   1.82172   1.83743   1.88962
 Alpha virt. eigenvalues --    1.92744   1.93800   1.96777   2.00591   2.02717
 Alpha virt. eigenvalues --    2.04847   2.08825   2.12330   2.24165   2.24985
 Alpha virt. eigenvalues --    2.35200   2.39726   2.42897   2.49525   2.63987
 Alpha virt. eigenvalues --    2.70700   2.83096   2.93119   2.96030   2.96175
 Alpha virt. eigenvalues --    3.15440   3.16727   3.20953   3.30627   3.33065
 Alpha virt. eigenvalues --    3.33509   3.37021   3.37521   3.38241   3.41764
 Alpha virt. eigenvalues --    3.44306   3.48578   3.53968   3.58500   3.60635
 Alpha virt. eigenvalues --    3.61098   3.61784   3.70432   3.74221   3.77769
 Alpha virt. eigenvalues --    3.78981   3.79893   3.87393   3.91553   3.94743
 Alpha virt. eigenvalues --    3.97466   3.99302   3.99706   4.03822   4.06069
 Alpha virt. eigenvalues --    4.07195   4.07363   4.10752   4.13410   4.16411
 Alpha virt. eigenvalues --    4.17598   4.19236   4.20019   4.25653   4.26244
 Alpha virt. eigenvalues --    4.27389   4.28153   4.29876   4.30888   4.35337
 Alpha virt. eigenvalues --    4.35344   4.37046   4.38559   4.39500   4.42157
 Alpha virt. eigenvalues --    4.43999   4.46679   4.47262   4.50093   4.50192
 Alpha virt. eigenvalues --    4.51857   4.54119   4.54342   4.55599   4.56700
 Alpha virt. eigenvalues --    4.60271   4.64012   4.66051   4.67243   4.79857
 Alpha virt. eigenvalues --    4.80831   4.85815   4.87592   4.91211   4.95486
 Alpha virt. eigenvalues --    4.99290   5.05525   5.11167   5.12635   5.16503
 Alpha virt. eigenvalues --    5.20005   5.26647   5.30523   5.33575   5.35419
 Alpha virt. eigenvalues --    5.37464   5.39658   5.42936   5.50061   5.54486
 Alpha virt. eigenvalues --    5.55581   5.62854   5.64089   5.68046   5.68625
 Alpha virt. eigenvalues --    5.75557   5.78258   5.90670   5.93848   5.98955
 Alpha virt. eigenvalues --    6.01627   6.07182   6.07697   6.22681   6.24416
 Alpha virt. eigenvalues --    6.24458   6.37554   6.48121   6.59865   6.65835
 Alpha virt. eigenvalues --    6.83999   6.95946   7.09549   7.20223   7.72685
          Condensed to atoms (all electrons):
               1          2          3          4          5          6
     1  C    4.911464   0.636822  -0.090512  -0.096938  -0.002811   0.423181
     2  C    0.636822   4.579826   0.312759   0.385523  -0.079802  -0.031749
     3  O   -0.090512   0.312759   7.885187  -0.085535   0.002259   0.005250
     4  C   -0.096938   0.385523  -0.085535   4.851356   0.618831  -0.002053
     5  C   -0.002811  -0.079802   0.002259   0.618831   4.732434  -0.000009
     6  H    0.423181  -0.031749   0.005250  -0.002053  -0.000009   0.578354
     7  H    0.420825  -0.039072  -0.007167   0.007628  -0.001206  -0.023962
     8  H    0.000711  -0.014821   0.010114  -0.040856   0.436253  -0.000152
     9  H   -0.000613   0.010062  -0.000549  -0.040688   0.428825  -0.000067
    10  H    0.001304  -0.054202   0.003374   0.441100  -0.029839   0.000907
    11  H   -0.011563  -0.022298   0.339485   0.013646  -0.001103   0.000576
               7          8          9         10         11
     1  C    0.420825   0.000711  -0.000613   0.001304  -0.011563
     2  C   -0.039072  -0.014821   0.010062  -0.054202  -0.022298
     3  O   -0.007167   0.010114  -0.000549   0.003374   0.339485
     4  C    0.007628  -0.040856  -0.040688   0.441100   0.013646
     5  C   -0.001206   0.436253   0.428825  -0.029839  -0.001103
     6  H   -0.023962  -0.000152  -0.000067   0.000907   0.000576
     7  H    0.608740  -0.000080   0.000050   0.000527   0.005351
     8  H   -0.000080   0.569002  -0.030463   0.007376  -0.001007
     9  H    0.000050  -0.030463   0.598720  -0.010317   0.000091
    10  H    0.000527   0.007376  -0.010317   0.612106  -0.000546
    11  H    0.005351  -0.001007   0.000091  -0.000546   0.487111
 Mulliken charges:
               1
     1  C   -0.191869
     2  C    0.316951
     3  O   -0.374665
     4  C   -0.052014
     5  C   -0.103831
     6  H    0.049725
     7  H    0.028365
     8  H    0.063922
     9  H    0.044949
    10  H    0.028211
    11  H    0.190255
 Sum of Mulliken charges =   0.00000
 Mulliken charges with hydrogens summed into heavy atoms:
               1
     1  C   -0.113779
     2  C    0.316951
     3  O   -0.184409
     4  C   -0.023803
     5  C    0.005041
 Electronic spatial extent (au):  <R**2>=            430.1113
 Charge=              0.0000 electrons
 Dipole moment (field-independent basis, Debye):
    X=              0.0326    Y=              0.9183    Z=              0.0000  Tot=              0.9189
 Quadrupole moment (field-independent basis, Debye-Ang):
   XX=            -27.8056   YY=            -26.7960   ZZ=            -34.5022
   XY=              3.1152   XZ=              0.0000   YZ=              0.0000
 Traceless Quadrupole moment (field-independent basis, Debye-Ang):
   XX=              1.8957   YY=              2.9052   ZZ=             -4.8009
   XY=              3.1152   XZ=              0.0000   YZ=              0.0000
 Octapole moment (field-independent basis, Debye-Ang**2):
  XXX=              6.8051  YYY=              1.7656  ZZZ=              0.0000  XYY=              6.9677
  XXY=              6.0381  XXZ=              0.0000  XZZ=              3.7969  YZZ=              0.4864
  YYZ=              0.0000  XYZ=              0.0000
 Hexadecapole moment (field-independent basis, Debye-Ang**3):
 XXXX=           -146.7739 YYYY=           -357.7391 ZZZZ=            -41.1467 XXXY=              4.2161
 XXXZ=              0.0000 YYYX=              6.7474 YYYZ=              0.0000 ZZZX=              0.0000
 ZZZY=              0.0000 XXYY=            -77.9670 XXZZ=            -37.1863 YYZZ=            -81.0803
 XXYZ=              0.0000 YYXZ=              0.0000 ZZXY=             -1.3040
 N-N= 1.620382966675D+02 E-N=-8.637095977905D+02  KE= 2.304691710721D+02
 Symmetry A'   KE= 2.216054841923D+02
 Symmetry A"   KE= 8.863686879859D+00
 Calling FoFJK, ICntrl=      2127 FMM=F ISym2X=1 I1Cent= 0 IOpClX= 0 NMat=1 NMatS=1 NMatT=0.
 ***** Axes restored to original set *****
 -------------------------------------------------------------------
 Center     Atomic                   Forces (Hartrees/Bohr)
 Number     Number              X              Y              Z
 -------------------------------------------------------------------
      1        6           0.000039367    0.000078519   -0.000000000
      2        6          -0.000289689   -0.000068995   -0.000000000
      3        8           0.000188077   -0.000019974   -0.000000000
      4        6           0.000100280    0.000142338   -0.000000000
      5        6           0.000086049   -0.000104300   -0.000000000
      6        1          -0.000061814   -0.000033660   -0.000000000
      7        1           0.000060821    0.000020742   -0.000000000
      8        1           0.000033412    0.000009901   -0.000000000
      9        1          -0.000083965   -0.000030028   -0.000000000
     10        1          -0.000099076   -0.000033893   -0.000000000
     11        1           0.000026538    0.000039348   -0.000000000
 -------------------------------------------------------------------
 Cartesian Forces:  Max     0.000289689 RMS     0.000080195

 GradGradGradGradGradGradGradGradGradGradGradGradGradGradGradGradGradGrad
 Berny optimization.
 FormGI is forming the generalized inverse of G from B-inverse, IUseBI=4.
 Internal  Forces:  Max     0.000210888 RMS     0.000057026
 Search for a local minimum.
 Step number   1 out of a maximum of   47
 All quantities printed in internal units (Hartrees-Bohrs-Radians)
 Mixed Optimization -- En-DIIS/RFO-DIIS
 Second derivative matrix not updated -- first step.
 ITU=  0
     Eigenvalues ---    0.01301   0.02132   0.02166   0.02190   0.02897
     Eigenvalues ---    0.02897   0.02993   0.02993   0.16000   0.16000
     Eigenvalues ---    0.16000   0.16000   0.16000   0.16000   0.22000
     Eigenvalues ---    0.25000   0.25000   0.35696   0.35782   0.35921
     Eigenvalues ---    0.35946   0.36215   0.37019   0.51616   0.55194
     Eigenvalues ---    0.57456   0.59126
 RFO step:  Lambda=-3.53025795D-07 EMin= 1.30088628D-02
 Linear search not attempted -- first point.
 Iteration  1 RMS(Cart)=  0.00033341 RMS(Int)=  0.00000005
 Iteration  2 RMS(Cart)=  0.00000006 RMS(Int)=  0.00000000
 ClnCor:  largest displacement from symmetrization is 1.52D-12 for atom     1.
 Variable       Old X    -DE/DX   Delta X   Delta X   Delta X     New X
                                 (Linear)    (Quad)   (Total)
    R1        2.53012   0.00004   0.00000   0.00007   0.00007   2.53019
    R2        2.03747   0.00006   0.00000   0.00016   0.00016   2.03763
    R3        2.04424   0.00005   0.00000   0.00014   0.00014   2.04438
    R4        2.58269   0.00021   0.00000   0.00041   0.00041   2.58310
    R5        2.75817  -0.00000   0.00000  -0.00001  -0.00001   2.75816
    R6        1.81660   0.00005   0.00000   0.00009   0.00009   1.81668
    R7        2.51639   0.00013   0.00000   0.00022   0.00022   2.51660
    R8        2.04560   0.00010   0.00000   0.00027   0.00027   2.04587
    R9        2.04165   0.00003   0.00000   0.00009   0.00009   2.04174
   R10        2.04204   0.00007   0.00000   0.00020   0.00020   2.04225
    A1        2.10014  -0.00002   0.00000  -0.00014  -0.00014   2.10000
    A2        2.13133  -0.00003   0.00000  -0.00019  -0.00019   2.13114
    A3        2.05171   0.00005   0.00000   0.00034   0.00034   2.05204
    A4        2.15585  -0.00009   0.00000  -0.00037  -0.00037   2.15548
    A5        2.14442   0.00008   0.00000   0.00032   0.00032   2.14473
    A6        1.98292   0.00001   0.00000   0.00005   0.00005   1.98297
    A7        1.91048   0.00001   0.00000   0.00007   0.00007   1.91055
    A8        2.17967   0.00006   0.00000   0.00026   0.00026   2.17993
    A9        2.00327   0.00002   0.00000   0.00015   0.00015   2.00342
   A10        2.10024  -0.00007   0.00000  -0.00041  -0.00041   2.09983
   A11        2.12022   0.00002   0.00000   0.00011   0.00011   2.12033
   A12        2.11145  -0.00006   0.00000  -0.00039  -0.00039   2.11107
   A13        2.05151   0.00005   0.00000   0.00028   0.00028   2.05179
    D1        3.14159   0.00000   0.00000   0.00000   0.00000   3.14159
    D2        0.00000   0.00000   0.00000   0.00000   0.00000   0.00000
    D3        0.00000  -0.00000   0.00000   0.00000   0.00000   0.00000
    D4        3.14159  -0.00000   0.00000  -0.00000   0.00000   3.14159
    D5        0.00000   0.00000   0.00000   0.00000   0.00000   0.00000
    D6        3.14159   0.00000   0.00000   0.00000   0.00000   3.14159
    D7        3.14159   0.00000   0.00000  -0.00000   0.00000   3.14159
    D8        0.00000  -0.00000   0.00000  -0.00000   0.00000   0.00000
    D9        0.00000  -0.00000   0.00000  -0.00000   0.00000   0.00000
   D10        3.14159  -0.00000   0.00000  -0.00000   0.00000   3.14159
   D11        0.00000   0.00000   0.00000   0.00000   0.00000   0.00000
   D12        3.14159   0.00000   0.00000  -0.00000   0.00000   3.14159
   D13        3.14159  -0.00000   0.00000   0.00000   0.00000   3.14159
   D14        0.00000  -0.00000   0.00000   0.00000   0.00000   0.00000
         Item               Value     Threshold  Converged?
 Maximum Force            0.000211     0.000450     YES
 RMS     Force            0.000057     0.000300     YES
 Maximum Displacement     0.000864     0.001800     YES
 RMS     Displacement     0.000333     0.001200     YES
 Predicted change in Energy=-1.765129D-07
 Optimization completed.
    -- Stationary point found.
                           ----------------------------
                           !   Optimized Parameters   !
                           ! (Angstroms and Degrees)  !
 --------------------------                            --------------------------
 ! Name  Definition              Value          Derivative Info.                !
 --------------------------------------------------------------------------------
 ! R1    R(1,2)                  1.3389         -DE/DX =    0.0                 !
 ! R2    R(1,6)                  1.0782         -DE/DX =    0.0001              !
 ! R3    R(1,7)                  1.0818         -DE/DX =    0.0                 !
 ! R4    R(2,3)                  1.3667         -DE/DX =    0.0002              !
 ! R5    R(2,4)                  1.4596         -DE/DX =    0.0                 !
 ! R6    R(3,11)                 0.9613         -DE/DX =    0.0                 !
 ! R7    R(4,5)                  1.3316         -DE/DX =    0.0001              !
 ! R8    R(4,10)                 1.0825         -DE/DX =    0.0001              !
 ! R9    R(5,8)                  1.0804         -DE/DX =    0.0                 !
 ! R10   R(5,9)                  1.0806         -DE/DX =    0.0001              !
 ! A1    A(2,1,6)              120.3294         -DE/DX =    0.0                 !
 ! A2    A(2,1,7)              122.1164         -DE/DX =    0.0                 !
 ! A3    A(6,1,7)              117.5542         -DE/DX =    0.0001              !
 ! A4    A(1,2,3)              123.5209         -DE/DX =   -0.0001              !
 ! A5    A(1,2,4)              122.866          -DE/DX =    0.0001              !
 ! A6    A(3,2,4)              113.6131         -DE/DX =    0.0                 !
 ! A7    A(2,3,11)             109.4625         -DE/DX =    0.0                 !
 ! A8    A(2,4,5)              124.8859         -DE/DX =    0.0001              !
 ! A9    A(2,4,10)             114.7791         -DE/DX =    0.0                 !
 ! A10   A(5,4,10)             120.335          -DE/DX =   -0.0001              !
 ! A11   A(4,5,8)              121.4798         -DE/DX =    0.0                 !
 ! A12   A(4,5,9)              120.9774         -DE/DX =   -0.0001              !
 ! A13   A(8,5,9)              117.5428         -DE/DX =    0.0                 !
 ! D1    D(6,1,2,3)            180.0            -DE/DX =    0.0                 !
 ! D2    D(6,1,2,4)              0.0            -DE/DX =    0.0                 !
 ! D3    D(7,1,2,3)              0.0            -DE/DX =    0.0                 !
 ! D4    D(7,1,2,4)            180.0            -DE/DX =    0.0                 !
 ! D5    D(1,2,3,11)             0.0            -DE/DX =    0.0                 !
 ! D6    D(4,2,3,11)           180.0            -DE/DX =    0.0                 !
 ! D7    D(1,2,4,5)            180.0            -DE/DX =    0.0                 !
 ! D8    D(1,2,4,10)             0.0            -DE/DX =    0.0                 !
 ! D9    D(3,2,4,5)              0.0            -DE/DX =    0.0                 !
 ! D10   D(3,2,4,10)           180.0            -DE/DX =    0.0                 !
 ! D11   D(2,4,5,8)              0.0            -DE/DX =    0.0                 !
 ! D12   D(2,4,5,9)            180.0            -DE/DX =    0.0                 !
 ! D13   D(10,4,5,8)           180.0            -DE/DX =    0.0                 !
 ! D14   D(10,4,5,9)             0.0            -DE/DX =    0.0                 !
 --------------------------------------------------------------------------------
 GradGradGradGradGradGradGradGradGradGradGradGradGradGradGradGradGradGrad

                          Input orientation:                          
 ---------------------------------------------------------------------
 Center     Atomic      Atomic             Coordinates (Angstroms)
 Number     Number       Type             X           Y           Z
 ---------------------------------------------------------------------
      1          6           0       -0.598245    1.711121    0.000000
      2          6           0        0.000000    0.513327    0.000000
      3          8           0        1.356569    0.347223    0.000000
      4          6           0       -0.742843   -0.743057    0.000000
      5          6           0       -0.190205   -1.954580    0.000000
      6          1           0       -1.674070    1.782375    0.000000
      7          1           0       -0.035546    2.635018    0.000000
      8          1           0        0.882231   -2.085492    0.000000
      9          1           0       -0.802303   -2.845108    0.000000
     10          1           0       -1.819759   -0.633386    0.000000
     11          1           0        1.784648    1.207950    0.000000
 ---------------------------------------------------------------------
                    Distance matrix (angstroms):
                    1          2          3          4          5
     1  C    0.000000
     2  C    1.338883   0.000000
     3  O    2.383593   1.366700   0.000000
     4  C    2.458434   1.459560   2.365638   0.000000
     5  C    3.688341   2.475226   2.773230   1.331614   0.000000
     6  H    1.078182   2.100713   3.353272   2.691652   4.020782
     7  H    1.081765   2.121989   2.678057   3.451327   4.592203
     8  H    4.075056   2.744484   2.478528   2.107842   1.080397
     9  H    4.560796   3.452937   3.853791   2.102892   1.080604
    10  H    2.643636   2.150924   3.324252   1.082486   2.097856
    11  H    2.435438   1.915064   0.961303   3.192904   3.728490
                    6          7          8          9         10
     6  H    0.000000
     7  H    1.847095   0.000000
     8  H    4.636278   4.808901   0.000000
     9  H    4.708883   5.533507   1.847883   0.000000
    10  H    2.420150   3.723692   3.067468   2.434529   0.000000
    11  H    3.506094   2.312927   3.414838   4.808284   4.047501
                   11
    11  H    0.000000
 Stoichiometry    C4H6O
 Framework group  CS[SG(C4H6O)]
 Deg. of freedom    19
 Full point group                 CS      NOp   2
 Largest Abelian subgroup         CS      NOp   2
 Largest concise Abelian subgroup C1      NOp   1
                         Standard orientation:                         
 ---------------------------------------------------------------------
 Center     Atomic      Atomic             Coordinates (Angstroms)
 Number     Number       Type             X           Y           Z
 ---------------------------------------------------------------------
      1          6           0       -0.598245    1.711121    0.000000
      2          6           0        0.000000    0.513327    0.000000
      3          8           0        1.356569    0.347223    0.000000
      4          6           0       -0.742843   -0.743057    0.000000
      5          6           0       -0.190204   -1.954580    0.000000
      6          1           0       -1.674070    1.782374    0.000000
      7          1           0       -0.035547    2.635018    0.000000
      8          1           0        0.882232   -2.085492    0.000000
      9          1           0       -0.802302   -2.845108    0.000000
     10          1           0       -1.819759   -0.633387    0.000000
     11          1           0        1.784648    1.207950    0.000000
 ---------------------------------------------------------------------
 Rotational constants (GHZ):           9.9458113           4.2810053           2.9928038
 1\1\GINC-GAMBA\FOpt\RB3LYP\Gen\C4H6O1\IRIKURA\30-Sep-2023\0\\# b3lyp/g
 en opt freq CPHF(Grid=OneStep)\\1,3-butadien-2-ol, B3LYP/pcseg-2\\0,1\
 C,-0.598245,1.711121,0.\C,0.,0.513327,0.\O,1.356569,0.347223,0.\C,-0.7
 42843,-0.743057,0.\C,-0.190205,-1.95458,0.\H,-1.67407,1.782375,0.\H,-0
 .035546,2.635018,0.\H,0.882231,-2.085492,0.\H,-0.802303,-2.845108,0.\H
 ,-1.819759,-0.633386,0.\H,1.784648,1.20795,0.\\Version=ES64L-G16RevB.0
 1\State=1-A'\HF=-231.3186132\RMSD=3.603e-09\RMSF=8.020e-05\Dipole=0.01
 28231,0.3613008,0.\Quadrupole=1.4093989,2.159977,-3.5693759,2.3160461,
 0.,0.\PG=CS [SG(C4H6O1)]\\@


 CHRISTMAS IS ON TOP OF A STEEP HILL.
 THE CLOSER YOU GET, THE STEEPER THE HILL IS.
          -- LINUS, OF PEANUTS
 Job cpu time:       0 days  0 hours  3 minutes 34.4 seconds.
 Elapsed time:       0 days  0 hours  0 minutes 53.6 seconds.
 File lengths (MBytes):  RWF=     36 Int=      0 D2E=      0 Chk=      5 Scr=      1
 Normal termination of Gaussian 16 at Sat Sep 30 12:41:33 2023.
 Link1:  Proceeding to internal job step number  2.
 ------------------------------------------------------------------
 #N Geom=AllCheck Guess=TCheck SCRF=Check GenChk RB3LYP/ChkBas Freq
 ------------------------------------------------------------------
 1/10=4,29=7,30=1,38=1,40=1/1,3;
 2/12=2,40=1/2;
 3/5=7,6=2,11=2,14=-4,25=1,30=1,67=1,70=2,71=2,74=-5,82=7,116=1,140=1/1,2,3;
 4/5=101/1;
 5/5=2,38=6,98=1/2;
 8/6=4,10=90,11=11/1;
 11/6=1,8=1,9=11,15=111,16=1/1,2,10;
 10/6=1,60=-420/2;
 6/7=2,8=2,9=2,10=2,28=1/1;
 7/8=1,10=1,25=1/1,2,3,16;
 1/10=4,30=1/3;
 99//99;
 Structure from the checkpoint file:  "butadien2ol.chk"
 --------------------------------
 1,3-butadien-2-ol, B3LYP/pcseg-2
 --------------------------------
 Charge =  0 Multiplicity = 1
 Redundant internal coordinates found in file.  (old form).
 C,0,-0.598245,1.711121,0.
 C,0,0.,0.513327,0.
 O,0,1.356569,0.347223,0.
 C,0,-0.742843,-0.743057,0.
 C,0,-0.190205,-1.95458,0.
 H,0,-1.67407,1.782375,0.
 H,0,-0.035546,2.635018,0.
 H,0,0.882231,-2.085492,0.
 H,0,-0.802303,-2.845108,0.
 H,0,-1.819759,-0.633386,0.
 H,0,1.784648,1.20795,0.
 Recover connectivity data from disk.

 GradGradGradGradGradGradGradGradGradGradGradGradGradGradGradGradGradGrad
 Berny optimization.
 Initialization pass.
                           ----------------------------
                           !    Initial Parameters    !
                           ! (Angstroms and Degrees)  !
 --------------------------                            --------------------------
 ! Name  Definition              Value          Derivative Info.                !
 --------------------------------------------------------------------------------
 ! R1    R(1,2)                  1.3389         calculate D2E/DX2 analytically  !
 ! R2    R(1,6)                  1.0782         calculate D2E/DX2 analytically  !
 ! R3    R(1,7)                  1.0818         calculate D2E/DX2 analytically  !
 ! R4    R(2,3)                  1.3667         calculate D2E/DX2 analytically  !
 ! R5    R(2,4)                  1.4596         calculate D2E/DX2 analytically  !
 ! R6    R(3,11)                 0.9613         calculate D2E/DX2 analytically  !
 ! R7    R(4,5)                  1.3316         calculate D2E/DX2 analytically  !
 ! R8    R(4,10)                 1.0825         calculate D2E/DX2 analytically  !
 ! R9    R(5,8)                  1.0804         calculate D2E/DX2 analytically  !
 ! R10   R(5,9)                  1.0806         calculate D2E/DX2 analytically  !
 ! A1    A(2,1,6)              120.3294         calculate D2E/DX2 analytically  !
 ! A2    A(2,1,7)              122.1164         calculate D2E/DX2 analytically  !
 ! A3    A(6,1,7)              117.5542         calculate D2E/DX2 analytically  !
 ! A4    A(1,2,3)              123.5209         calculate D2E/DX2 analytically  !
 ! A5    A(1,2,4)              122.866          calculate D2E/DX2 analytically  !
 ! A6    A(3,2,4)              113.6131         calculate D2E/DX2 analytically  !
 ! A7    A(2,3,11)             109.4625         calculate D2E/DX2 analytically  !
 ! A8    A(2,4,5)              124.8859         calculate D2E/DX2 analytically  !
 ! A9    A(2,4,10)             114.7791         calculate D2E/DX2 analytically  !
 ! A10   A(5,4,10)             120.335          calculate D2E/DX2 analytically  !
 ! A11   A(4,5,8)              121.4798         calculate D2E/DX2 analytically  !
 ! A12   A(4,5,9)              120.9774         calculate D2E/DX2 analytically  !
 ! A13   A(8,5,9)              117.5428         calculate D2E/DX2 analytically  !
 ! D1    D(6,1,2,3)            180.0            calculate D2E/DX2 analytically  !
 ! D2    D(6,1,2,4)              0.0            calculate D2E/DX2 analytically  !
 ! D3    D(7,1,2,3)              0.0            calculate D2E/DX2 analytically  !
 ! D4    D(7,1,2,4)            180.0            calculate D2E/DX2 analytically  !
 ! D5    D(1,2,3,11)             0.0            calculate D2E/DX2 analytically  !
 ! D6    D(4,2,3,11)           180.0            calculate D2E/DX2 analytically  !
 ! D7    D(1,2,4,5)            180.0            calculate D2E/DX2 analytically  !
 ! D8    D(1,2,4,10)             0.0            calculate D2E/DX2 analytically  !
 ! D9    D(3,2,4,5)              0.0            calculate D2E/DX2 analytically  !
 ! D10   D(3,2,4,10)           180.0            calculate D2E/DX2 analytically  !
 ! D11   D(2,4,5,8)              0.0            calculate D2E/DX2 analytically  !
 ! D12   D(2,4,5,9)            180.0            calculate D2E/DX2 analytically  !
 ! D13   D(10,4,5,8)           180.0            calculate D2E/DX2 analytically  !
 ! D14   D(10,4,5,9)             0.0            calculate D2E/DX2 analytically  !
 --------------------------------------------------------------------------------
 Trust Radius=3.00D-01 FncErr=1.00D-07 GrdErr=1.00D-07 EigMax=2.50D+02 EigMin=1.00D-04
 Number of steps in this run=      2 maximum allowed number of steps=      2.
 GradGradGradGradGradGradGradGradGradGradGradGradGradGradGradGradGradGrad

                          Input orientation:                          
 ---------------------------------------------------------------------
 Center     Atomic      Atomic             Coordinates (Angstroms)
 Number     Number       Type             X           Y           Z
 ---------------------------------------------------------------------
      1          6           0       -0.598245    1.711121    0.000000
      2          6           0        0.000000    0.513327    0.000000
      3          8           0        1.356569    0.347223    0.000000
      4          6           0       -0.742843   -0.743057    0.000000
      5          6           0       -0.190205   -1.954580    0.000000
      6          1           0       -1.674070    1.782375    0.000000
      7          1           0       -0.035546    2.635018    0.000000
      8          1           0        0.882231   -2.085492    0.000000
      9          1           0       -0.802303   -2.845108    0.000000
     10          1           0       -1.819759   -0.633386    0.000000
     11          1           0        1.784648    1.207950    0.000000
 ---------------------------------------------------------------------
                    Distance matrix (angstroms):
                    1          2          3          4          5
     1  C    0.000000
     2  C    1.338883   0.000000
     3  O    2.383593   1.366700   0.000000
     4  C    2.458434   1.459560   2.365638   0.000000
     5  C    3.688341   2.475226   2.773230   1.331614   0.000000
     6  H    1.078182   2.100713   3.353272   2.691652   4.020782
     7  H    1.081765   2.121989   2.678057   3.451327   4.592203
     8  H    4.075056   2.744484   2.478528   2.107842   1.080397
     9  H    4.560796   3.452937   3.853791   2.102892   1.080604
    10  H    2.643636   2.150924   3.324252   1.082486   2.097856
    11  H    2.435438   1.915064   0.961303   3.192904   3.728490
                    6          7          8          9         10
     6  H    0.000000
     7  H    1.847095   0.000000
     8  H    4.636278   4.808901   0.000000
     9  H    4.708883   5.533507   1.847883   0.000000
    10  H    2.420150   3.723692   3.067468   2.434529   0.000000
    11  H    3.506094   2.312927   3.414838   4.808284   4.047501
                   11
    11  H    0.000000
 Stoichiometry    C4H6O
 Framework group  CS[SG(C4H6O)]
 Deg. of freedom    19
 Full point group                 CS      NOp   2
 Largest Abelian subgroup         CS      NOp   2
 Largest concise Abelian subgroup C1      NOp   1
                         Standard orientation:                         
 ---------------------------------------------------------------------
 Center     Atomic      Atomic             Coordinates (Angstroms)
 Number     Number       Type             X           Y           Z
 ---------------------------------------------------------------------
      1          6           0       -0.598245    1.711121    0.000000
      2          6           0        0.000000    0.513327    0.000000
      3          8           0        1.356569    0.347223    0.000000
      4          6           0       -0.742843   -0.743057    0.000000
      5          6           0       -0.190204   -1.954580    0.000000
      6          1           0       -1.674070    1.782374    0.000000
      7          1           0       -0.035547    2.635018    0.000000
      8          1           0        0.882232   -2.085492    0.000000
      9          1           0       -0.802302   -2.845108    0.000000
     10          1           0       -1.819759   -0.633387    0.000000
     11          1           0        1.784648    1.207950    0.000000
 ---------------------------------------------------------------------
 Rotational constants (GHZ):           9.9458113           4.2810053           2.9928038
 Basis read from chk: "butadien2ol.chk" (5D, 7F)
 There are   186 symmetry adapted cartesian basis functions of A'  symmetry.
 There are    79 symmetry adapted cartesian basis functions of A"  symmetry.
 There are   160 symmetry adapted basis functions of A'  symmetry.
 There are    74 symmetry adapted basis functions of A"  symmetry.
   234 basis functions,   363 primitive gaussians,   265 cartesian basis functions
    19 alpha electrons       19 beta electrons
       nuclear repulsion energy       162.0382966675 Hartrees.
 NAtoms=   11 NActive=   11 NUniq=   11 SFac= 1.00D+00 NAtFMM=   60 NAOKFM=F Big=F
 Integral buffers will be    131072 words long.
 Raffenetti 2 integral format.
 Two-electron integral symmetry is turned on.
 One-electron integrals computed using PRISM.
 NBasis=   234 RedAO= T EigKep=  1.50D-04  NBF=   160    74
 NBsUse=   234 1.00D-06 EigRej= -1.00D+00 NBFU=   160    74
 Initial guess from the checkpoint file:  "butadien2ol.chk"
 B after Tr=    -0.000000    0.000000    0.000000
         Rot=    1.000000    0.000000   -0.000000   -0.000000 Ang=   0.00 deg.
 Initial guess orbital symmetries:
       Occupied  (A') (A') (A') (A') (A') (A') (A') (A') (A') (A')
                 (A') (A') (A') (A") (A') (A') (A') (A") (A")
       Virtual   (A") (A') (A') (A') (A") (A') (A') (A') (A') (A')
                 (A") (A') (A') (A") (A') (A') (A") (A') (A") (A')
                 (A') (A') (A') (A') (A') (A') (A') (A') (A') (A")
                 (A') (A') (A') (A') (A') (A') (A') (A") (A") (A")
                 (A') (A") (A') (A") (A') (A') (A") (A') (A') (A')
                 (A') (A") (A') (A') (A") (A') (A') (A') (A') (A")
                 (A') (A") (A") (A') (A") (A') (A") (A') (A") (A')
                 (A") (A') (A') (A") (A') (A') (A') (A") (A") (A')
                 (A') (A') (A') (A') (A') (A') (A") (A') (A") (A')
                 (A') (A') (A') (A') (A') (A') (A") (A') (A') (A')
                 (A') (A') (A') (A") (A") (A") (A') (A") (A') (A")
                 (A') (A') (A") (A") (A') (A") (A') (A') (A') (A")
                 (A') (A') (A") (A') (A') (A") (A') (A') (A') (A")
                 (A") (A") (A') (A") (A") (A') (A') (A') (A") (A")
                 (A') (A') (A') (A') (A") (A') (A') (A") (A') (A")
                 (A') (A") (A') (A") (A') (A") (A") (A') (A") (A')
                 (A") (A") (A') (A") (A') (A") (A') (A') (A") (A')
                 (A") (A') (A') (A') (A") (A") (A') (A') (A") (A')
                 (A') (A') (A") (A') (A') (A') (A") (A') (A') (A")
                 (A') (A') (A') (A") (A') (A") (A') (A') (A') (A')
                 (A') (A") (A') (A') (A') (A") (A') (A") (A') (A')
                 (A') (A') (A') (A') (A')
 Requested convergence on RMS density matrix=1.00D-08 within 128 cycles.
 Requested convergence on MAX density matrix=1.00D-06.
 Requested convergence on             energy=1.00D-06.
 No special actions if energy rises.
 SCF Done:  E(RB3LYP) =  -231.318613226     A.U. after    1 cycles
            NFock=  1  Conv=0.21D-08     -V/T= 2.0037
 DoSCS=F DFT=T ScalE2(SS,OS)=  1.000000  1.000000
 Range of M.O.s used for correlation:     1   234
 NBasis=   234 NAE=    19 NBE=    19 NFC=     0 NFV=     0
 NROrb=    234 NOA=    19 NOB=    19 NVA=   215 NVB=   215

 **** Warning!!: The largest alpha MO coefficient is  0.28549163D+02

 Symmetrizing basis deriv contribution to polar:
 IMax=3 JMax=2 DiffMx= 0.00D+00
 G2DrvN: will do    12 centers at a time, making    1 passes.
 Calling FoFCou, ICntrl=  3107 FMM=F I1Cent=   0 AccDes= 0.00D+00.
 End of G2Drv F.D. properties file   721 does not exist.
 End of G2Drv F.D. properties file   722 does not exist.
 End of G2Drv F.D. properties file   788 does not exist.
          IDoAtm=11111111111
          Differentiating once with respect to electric field.
                with respect to dipole field.
          Differentiating once with respect to nuclear coordinates.
 CalDSu exits because no D1Ps are significant.
          There are    36 degrees of freedom in the 1st order CPHF.  IDoFFX=6 NUNeed=     3.
     33 vectors produced by pass  0 Test12= 1.13D-14 2.78D-09 XBig12= 1.08D+02 8.03D+00.
 AX will form    33 AO Fock derivatives at one time.
     33 vectors produced by pass  1 Test12= 1.13D-14 2.78D-09 XBig12= 7.71D+00 5.97D-01.
     33 vectors produced by pass  2 Test12= 1.13D-14 2.78D-09 XBig12= 1.67D-01 8.25D-02.
     33 vectors produced by pass  3 Test12= 1.13D-14 2.78D-09 XBig12= 6.10D-04 5.45D-03.
     33 vectors produced by pass  4 Test12= 1.13D-14 2.78D-09 XBig12= 1.12D-06 1.95D-04.
     24 vectors produced by pass  5 Test12= 1.13D-14 2.78D-09 XBig12= 1.16D-09 5.93D-06.
      3 vectors produced by pass  6 Test12= 1.13D-14 2.78D-09 XBig12= 9.12D-13 1.41D-07.
      2 vectors produced by pass  7 Test12= 1.13D-14 2.78D-09 XBig12= 7.20D-16 3.17D-09.
 InvSVY:  IOpt=1 It=  1 EMax= 3.55D-15
 Solved reduced A of dimension   194 with    36 vectors.
 Isotropic polarizability for W=    0.000000       57.41 Bohr**3.
 End of Minotr F.D. properties file   721 does not exist.
 End of Minotr F.D. properties file   722 does not exist.
 End of Minotr F.D. properties file   788 does not exist.

 **********************************************************************

            Population analysis using the SCF Density.

 **********************************************************************

 Orbital symmetries:
       Occupied  (A') (A') (A') (A') (A') (A') (A') (A') (A') (A')
                 (A') (A') (A') (A") (A') (A') (A') (A") (A")
       Virtual   (A") (A') (A') (A') (A") (A') (A') (A') (A') (A')
                 (A") (A') (A') (A") (A') (A') (A") (A') (A") (A')
                 (A') (A') (A') (A') (A') (A') (A') (A') (A') (A")
                 (A') (A') (A') (A') (A') (A') (A') (A") (A") (A")
                 (A') (A") (A') (A") (A') (A') (A") (A') (A') (A')
                 (A') (A") (A') (A') (A") (A') (A') (A') (A') (A")
                 (A') (A") (A") (A') (A") (A') (A") (A') (A") (A')
                 (A") (A') (A') (A") (A') (A') (A') (A") (A") (A')
                 (A') (A') (A') (A') (A') (A') (A") (A') (A") (A')
                 (A') (A') (A') (A') (A') (A') (A") (A') (A') (A')
                 (A') (A') (A') (A") (A") (A") (A') (A") (A') (A")
                 (A') (A') (A") (A") (A') (A") (A') (A') (A') (A")
                 (A') (A') (A") (A') (A') (A") (A') (A') (A') (A")
                 (A") (A") (A') (A") (A") (A') (A') (A') (A") (A")
                 (A') (A') (A') (A') (A") (A') (A') (A") (A') (A")
                 (A') (A") (A') (A") (A') (A") (A") (A') (A") (A')
                 (A") (A") (A') (A") (A') (A") (A') (A') (A") (A')
                 (A") (A') (A') (A') (A") (A") (A') (A') (A") (A')
                 (A') (A') (A") (A') (A') (A') (A") (A') (A') (A")
                 (A') (A') (A') (A") (A') (A") (A') (A') (A') (A')
                 (A') (A") (A') (A') (A') (A") (A') (A") (A') (A')
                 (A') (A') (A') (A') (A')
 The electronic state is 1-A'.
 Alpha  occ. eigenvalues --  -19.15827 -10.24277 -10.18186 -10.17172 -10.16352
 Alpha  occ. eigenvalues --   -1.06870  -0.80464  -0.74139  -0.63355  -0.58045
 Alpha  occ. eigenvalues --   -0.50010  -0.48502  -0.45178  -0.41272  -0.40025
 Alpha  occ. eigenvalues --   -0.37797  -0.36736  -0.29596  -0.23370
 Alpha virt. eigenvalues --   -0.03783   0.00381   0.03468   0.04707   0.06555
 Alpha virt. eigenvalues --    0.06857   0.07856   0.10792   0.14255   0.15796
 Alpha virt. eigenvalues --    0.16818   0.18823   0.20572   0.21770   0.23110
 Alpha virt. eigenvalues --    0.24567   0.25025   0.27581   0.27739   0.28767
 Alpha virt. eigenvalues --    0.30116   0.31489   0.33444   0.34227   0.36795
 Alpha virt. eigenvalues --    0.39525   0.40067   0.41007   0.43720   0.44792
 Alpha virt. eigenvalues --    0.49132   0.50560   0.54238   0.56386   0.57427
 Alpha virt. eigenvalues --    0.58581   0.61923   0.64899   0.68325   0.74085
 Alpha virt. eigenvalues --    0.78937   0.80752   0.82640   0.85783   0.88824
 Alpha virt. eigenvalues --    0.92651   0.92914   0.98289   0.99202   1.00421
 Alpha virt. eigenvalues --    1.01834   1.03341   1.06751   1.10423   1.12106
 Alpha virt. eigenvalues --    1.13751   1.14617   1.16511   1.17698   1.23641
 Alpha virt. eigenvalues --    1.24433   1.25026   1.25149   1.26937   1.31838
 Alpha virt. eigenvalues --    1.34889   1.36817   1.41370   1.42063   1.47536
 Alpha virt. eigenvalues --    1.47843   1.51217   1.52858   1.56988   1.58298
 Alpha virt. eigenvalues --    1.61165   1.64949   1.67003   1.71327   1.73358
 Alpha virt. eigenvalues --    1.74929   1.79467   1.82172   1.83743   1.88962
 Alpha virt. eigenvalues --    1.92744   1.93800   1.96777   2.00591   2.02717
 Alpha virt. eigenvalues --    2.04847   2.08825   2.12330   2.24165   2.24985
 Alpha virt. eigenvalues --    2.35200   2.39726   2.42897   2.49525   2.63987
 Alpha virt. eigenvalues --    2.70700   2.83096   2.93119   2.96030   2.96175
 Alpha virt. eigenvalues --    3.15440   3.16727   3.20953   3.30627   3.33065
 Alpha virt. eigenvalues --    3.33509   3.37021   3.37521   3.38241   3.41764
 Alpha virt. eigenvalues --    3.44306   3.48578   3.53968   3.58500   3.60635
 Alpha virt. eigenvalues --    3.61098   3.61784   3.70432   3.74221   3.77769
 Alpha virt. eigenvalues --    3.78981   3.79893   3.87393   3.91553   3.94743
 Alpha virt. eigenvalues --    3.97466   3.99302   3.99706   4.03822   4.06069
 Alpha virt. eigenvalues --    4.07195   4.07363   4.10752   4.13410   4.16411
 Alpha virt. eigenvalues --    4.17598   4.19236   4.20019   4.25653   4.26244
 Alpha virt. eigenvalues --    4.27389   4.28153   4.29876   4.30888   4.35337
 Alpha virt. eigenvalues --    4.35344   4.37046   4.38559   4.39500   4.42157
 Alpha virt. eigenvalues --    4.43999   4.46679   4.47262   4.50093   4.50192
 Alpha virt. eigenvalues --    4.51857   4.54119   4.54342   4.55599   4.56700
 Alpha virt. eigenvalues --    4.60271   4.64012   4.66051   4.67243   4.79857
 Alpha virt. eigenvalues --    4.80831   4.85815   4.87592   4.91211   4.95486
 Alpha virt. eigenvalues --    4.99290   5.05525   5.11167   5.12635   5.16503
 Alpha virt. eigenvalues --    5.20005   5.26647   5.30523   5.33575   5.35419
 Alpha virt. eigenvalues --    5.37464   5.39658   5.42936   5.50061   5.54486
 Alpha virt. eigenvalues --    5.55581   5.62854   5.64089   5.68046   5.68625
 Alpha virt. eigenvalues --    5.75557   5.78258   5.90670   5.93848   5.98955
 Alpha virt. eigenvalues --    6.01627   6.07182   6.07697   6.22681   6.24416
 Alpha virt. eigenvalues --    6.24458   6.37554   6.48121   6.59865   6.65835
 Alpha virt. eigenvalues --    6.83999   6.95946   7.09549   7.20223   7.72685
          Condensed to atoms (all electrons):
               1          2          3          4          5          6
     1  C    4.911463   0.636822  -0.090512  -0.096938  -0.002811   0.423181
     2  C    0.636822   4.579826   0.312759   0.385523  -0.079802  -0.031749
     3  O   -0.090512   0.312759   7.885187  -0.085535   0.002259   0.005250
     4  C   -0.096938   0.385523  -0.085535   4.851355   0.618831  -0.002053
     5  C   -0.002811  -0.079802   0.002259   0.618831   4.732434  -0.000009
     6  H    0.423181  -0.031749   0.005250  -0.002053  -0.000009   0.578354
     7  H    0.420825  -0.039072  -0.007167   0.007628  -0.001206  -0.023962
     8  H    0.000711  -0.014821   0.010114  -0.040856   0.436253  -0.000152
     9  H   -0.000613   0.010062  -0.000549  -0.040688   0.428825  -0.000067
    10  H    0.001304  -0.054202   0.003374   0.441100  -0.029839   0.000907
    11  H   -0.011563  -0.022298   0.339485   0.013646  -0.001103   0.000576
               7          8          9         10         11
     1  C    0.420825   0.000711  -0.000613   0.001304  -0.011563
     2  C   -0.039072  -0.014821   0.010062  -0.054202  -0.022298
     3  O   -0.007167   0.010114  -0.000549   0.003374   0.339485
     4  C    0.007628  -0.040856  -0.040688   0.441100   0.013646
     5  C   -0.001206   0.436253   0.428825  -0.029839  -0.001103
     6  H   -0.023962  -0.000152  -0.000067   0.000907   0.000576
     7  H    0.608740  -0.000080   0.000050   0.000527   0.005351
     8  H   -0.000080   0.569002  -0.030463   0.007376  -0.001007
     9  H    0.000050  -0.030463   0.598720  -0.010317   0.000091
    10  H    0.000527   0.007376  -0.010317   0.612106  -0.000546
    11  H    0.005351  -0.001007   0.000091  -0.000546   0.487111
 Mulliken charges:
               1
     1  C   -0.191868
     2  C    0.316951
     3  O   -0.374665
     4  C   -0.052014
     5  C   -0.103831
     6  H    0.049724
     7  H    0.028365
     8  H    0.063922
     9  H    0.044949
    10  H    0.028211
    11  H    0.190256
 Sum of Mulliken charges =  -0.00000
 Mulliken charges with hydrogens summed into heavy atoms:
               1
     1  C   -0.113779
     2  C    0.316951
     3  O   -0.184409
     4  C   -0.023803
     5  C    0.005040
 APT charges:
               1
     1  C   -0.333650
     2  C    0.572501
     3  O   -0.620126
     4  C    0.034544
     5  C   -0.137099
     6  H    0.057514
     7  H    0.039501
     8  H    0.063309
     9  H    0.038273
    10  H    0.031483
    11  H    0.253750
 Sum of APT charges =   0.00000
 APT charges with hydrogens summed into heavy atoms:
               1
     1  C   -0.236635
     2  C    0.572501
     3  O   -0.366376
     4  C    0.066027
     5  C   -0.035517
 Electronic spatial extent (au):  <R**2>=            430.1113
 Charge=             -0.0000 electrons
 Dipole moment (field-independent basis, Debye):
    X=              0.0326    Y=              0.9183    Z=              0.0000  Tot=              0.9189
 Quadrupole moment (field-independent basis, Debye-Ang):
   XX=            -27.8056   YY=            -26.7960   ZZ=            -34.5022
   XY=              3.1152   XZ=              0.0000   YZ=              0.0000
 Traceless Quadrupole moment (field-independent basis, Debye-Ang):
   XX=              1.8957   YY=              2.9052   ZZ=             -4.8009
   XY=              3.1152   XZ=              0.0000   YZ=              0.0000
 Octapole moment (field-independent basis, Debye-Ang**2):
  XXX=              6.8051  YYY=              1.7656  ZZZ=              0.0000  XYY=              6.9677
  XXY=              6.0381  XXZ=              0.0000  XZZ=              3.7969  YZZ=              0.4864
  YYZ=              0.0000  XYZ=              0.0000
 Hexadecapole moment (field-independent basis, Debye-Ang**3):
 XXXX=           -146.7739 YYYY=           -357.7391 ZZZZ=            -41.1467 XXXY=              4.2161
 XXXZ=              0.0000 YYYX=              6.7474 YYYZ=              0.0000 ZZZX=              0.0000
[...]
                 (A") (A') (A') (A") (A') (A') (A') (A") (A') (A')
                 (A") (A') (A') (A") (A') (A') (A') (A") (A') (A')
                 (A") (A') (A') (A") (A') (A') (A') (A") (A') (A')
                 (A') (A") (A') (A') (A') (A") (A') (A') (A') (A')
                 (A') (A") (A') (A") (A") (A') (A") (A') (A") (A")
                 (A') (A") (A') (A') (A') (A') (A") (A') (A') (A")
                 (A") (A') (A') (A") (A") (A') (A") (A") (A') (A')
                 (A') (A') (A") (A") (A') (A') (A") (A') (A") (A')
                 (A') (A") (A") (A') (A') (A') (A') (A') (A") (A")
                 (A') (A') (A') (A') (A') (A") (A') (A') (A') (A')
                 (A') (A") (A') (A') (A") (A') (A') (A') (A') (A")
                 (A") (A") (A") (A") (A') (A") (A") (A') (A') (A")
                 (A') (A') (A') (A') (A') (A') (A') (A') (A') (A')
                 (A') (A') (A') (A') (A') (A") (A') (A') (A') (A")
                 (A") (A') (A') (A') (A") (A") (A") (A") (A') (A')
                 (A') (A') (A') (A') (A') (A') (A') (A') (A') (A')
                 (A") (A') (A') (A')
 The electronic state is 1-A'.
 Alpha  occ. eigenvalues --  -20.58783 -11.30607 -11.23837 -11.23073 -11.21610
 Alpha  occ. eigenvalues --   -1.40621  -1.08271  -1.00392  -0.84899  -0.77519
 Alpha  occ. eigenvalues --   -0.68623  -0.65746  -0.61969  -0.58795  -0.55447
 Alpha  occ. eigenvalues --   -0.54536  -0.51478  -0.41493  -0.32211
 Alpha virt. eigenvalues --    0.04415   0.05138   0.05497   0.07098   0.07310
 Alpha virt. eigenvalues --    0.08005   0.09480   0.10640   0.10820   0.11370
 Alpha virt. eigenvalues --    0.11856   0.12385   0.15150   0.15912   0.18212
 Alpha virt. eigenvalues --    0.18369   0.19989   0.20625   0.20930   0.22186
 Alpha virt. eigenvalues --    0.22676   0.25151   0.25478   0.26039   0.27225
 Alpha virt. eigenvalues --    0.28726   0.31443   0.31965   0.38347   0.39562
 Alpha virt. eigenvalues --    0.40720   0.40923   0.43099   0.43256   0.44147
 Alpha virt. eigenvalues --    0.46244   0.46786   0.47171   0.49210   0.51052
 Alpha virt. eigenvalues --    0.51185   0.51625   0.52206   0.52326   0.53914
 Alpha virt. eigenvalues --    0.55510   0.55835   0.57339   0.57689   0.57870
 Alpha virt. eigenvalues --    0.59718   0.61547   0.65426   0.65863   0.66206
 Alpha virt. eigenvalues --    0.66701   0.68176   0.68996   0.70832   0.70948
 Alpha virt. eigenvalues --    0.73240   0.75519   0.77663   0.78062   0.79979
 Alpha virt. eigenvalues --    0.81689   0.82352   0.86872   0.87215   0.89900
 Alpha virt. eigenvalues --    0.92732   0.95111   0.96925   0.98177   0.99837
 Alpha virt. eigenvalues --    1.01165   1.01627   1.04772   1.05508   1.08762
 Alpha virt. eigenvalues --    1.11292   1.12019   1.14145   1.15441   1.15581
 Alpha virt. eigenvalues --    1.22198   1.22864   1.23831   1.24954   1.28091
 Alpha virt. eigenvalues --    1.33416   1.34458   1.38882   1.41940   1.42766
 Alpha virt. eigenvalues --    1.42959   1.46305   1.48000   1.48869   1.48891
 Alpha virt. eigenvalues --    1.49520   1.51243   1.52384   1.54600   1.56295
 Alpha virt. eigenvalues --    1.56590   1.60471   1.61741   1.62140   1.66998
 Alpha virt. eigenvalues --    1.67799   1.67908   1.68271   1.72061   1.73344
 Alpha virt. eigenvalues --    1.74402   1.77650   1.78284   1.78775   1.79087
 Alpha virt. eigenvalues --    1.81325   1.84359   1.86385   1.87957   1.87989
 Alpha virt. eigenvalues --    1.89480   1.89558   1.89683   1.92213   1.92776
 Alpha virt. eigenvalues --    1.92793   1.95681   1.96671   1.97533   2.01347
 Alpha virt. eigenvalues --    2.02490   2.03405   2.03690   2.04579   2.05896
 Alpha virt. eigenvalues --    2.07435   2.11431   2.11561   2.14658   2.16888
 Alpha virt. eigenvalues --    2.18550   2.19941   2.20173   2.21865   2.23739
 Alpha virt. eigenvalues --    2.24229   2.24983   2.29323   2.30301   2.32108
 Alpha virt. eigenvalues --    2.33994   2.35060   2.37408   2.37944   2.39196
 Alpha virt. eigenvalues --    2.40515   2.42407   2.43752   2.45019   2.47275
 Alpha virt. eigenvalues --    2.48829   2.50990   2.53190   2.55210   2.59356
 Alpha virt. eigenvalues --    2.59748   2.65491   2.65590   2.66293   2.69596
 Alpha virt. eigenvalues --    2.69652   2.74376   2.75001   2.77128   2.80006
 Alpha virt. eigenvalues --    2.81395   2.85823   2.87590   2.87634   2.94528
 Alpha virt. eigenvalues --    2.97672   2.98169   3.02837   3.02990   3.03804
 Alpha virt. eigenvalues --    3.09910   3.10843   3.12075   3.16579   3.20449
 Alpha virt. eigenvalues --    3.22321   3.24497   3.25854   3.28859   3.31173
 Alpha virt. eigenvalues --    3.36013   3.36347   3.38134   3.38866   3.48116
 Alpha virt. eigenvalues --    3.50034   3.57769   3.59007   3.59847   3.62828
 Alpha virt. eigenvalues --    3.64355   3.65830   3.71324   3.74846   3.79151
 Alpha virt. eigenvalues --    3.82134   3.84320   3.91989   3.92927   3.94987
 Alpha virt. eigenvalues --    3.96870   4.01422   4.07007   4.12335   4.21985
 Alpha virt. eigenvalues --    4.25471   4.26133   4.28433   4.33982   4.40941
 Alpha virt. eigenvalues --    4.43878   4.50742   4.52206   4.52883   4.58960
 Alpha virt. eigenvalues --    4.64986   4.73752   4.76505   4.81720   4.82857
 Alpha virt. eigenvalues --    4.83210   4.90715   4.91559   4.97777   5.06218
 Alpha virt. eigenvalues --    5.11220   5.11744   5.17094   5.21614   5.21652
 Alpha virt. eigenvalues --    5.29552   5.30715   5.34817   5.36860   5.39183
 Alpha virt. eigenvalues --    5.40248   5.47270   5.50100   5.55645   5.61005
 Alpha virt. eigenvalues --    5.68873   5.71844   5.74903   5.80226   5.81332
 Alpha virt. eigenvalues --    5.83849   5.89839   5.93085   6.00365   6.01366
 Alpha virt. eigenvalues --    6.08284   6.11091   6.17725   6.20437   6.25558
 Alpha virt. eigenvalues --    6.29039   6.33035   6.36052   6.40111   6.44067
 Alpha virt. eigenvalues --    6.47144   6.57027   6.65198   6.78010   6.97767
 Alpha virt. eigenvalues --    7.13399   7.18670   7.24052   7.24951   7.27970
 Alpha virt. eigenvalues --    7.28570   7.29278   7.31954   7.41517   7.43524
 Alpha virt. eigenvalues --    7.68761   7.75276   7.88045   7.93185   8.01091
 Alpha virt. eigenvalues --    8.13440   8.19194   8.20570   8.23984   8.28983
 Alpha virt. eigenvalues --    8.42696   8.57035   8.57545   8.66376   8.68132
 Alpha virt. eigenvalues --    8.77133   8.95068   9.02377   9.16055   9.22402
 Alpha virt. eigenvalues --    9.30109   9.35314   9.43195   9.52375   9.57314
 Alpha virt. eigenvalues --    9.63050   9.64885   9.74882   9.83497   9.98239
 Alpha virt. eigenvalues --   10.09200  10.18714  10.73888  10.93945  11.33653
 Alpha virt. eigenvalues --   11.53766  11.69221  12.13251  12.66202  20.60803
 Alpha virt. eigenvalues --   20.73721  21.04239  21.15370  21.61105  21.69272
 Alpha virt. eigenvalues --   21.77087  21.82102  21.92828  22.18641  22.38019
 Alpha virt. eigenvalues --   22.58130  23.53422  23.76126  23.90355  24.02072
 Alpha virt. eigenvalues --   37.66158  38.14003  38.36601  43.71987
          Condensed to atoms (all electrons):
               1          2          3          4          5          6
     1  C    5.104202   0.591670  -0.121810  -0.059950  -0.007333   0.429373
     2  C    0.591670   4.685840   0.213035   0.285868  -0.090737  -0.026655
     3  O   -0.121810   0.213035   8.466890  -0.041760  -0.002360   0.003802
     4  C   -0.059950   0.285868  -0.041760   5.004657   0.608594  -0.009103
     5  C   -0.007333  -0.090737  -0.002360   0.608594   4.970015   0.000114
     6  H    0.429373  -0.026655   0.003802  -0.009103   0.000114   0.477651
     7  H    0.458107  -0.050775  -0.011627   0.005492  -0.000323  -0.018545
     8  H   -0.000700   0.003254  -0.004883  -0.031321   0.430054   0.000025
     9  H   -0.000206   0.007526   0.000696  -0.058604   0.455892  -0.000009
    10  H   -0.006848  -0.012159   0.003322   0.420996  -0.020490   0.004307
    11  H    0.010191  -0.018816   0.253341  -0.002360  -0.001933   0.000645
               7          8          9         10         11
     1  C    0.458107  -0.000700  -0.000206  -0.006848   0.010191
     2  C   -0.050775   0.003254   0.007526  -0.012159  -0.018816
     3  O   -0.011627  -0.004883   0.000696   0.003322   0.253341
     4  C    0.005492  -0.031321  -0.058604   0.420996  -0.002360
     5  C   -0.000323   0.430054   0.455892  -0.020490  -0.001933
     6  H   -0.018545   0.000025  -0.000009   0.004307   0.000645
     7  H    0.483967   0.000007   0.000005   0.000021   0.002592
     8  H    0.000007   0.450766  -0.017272   0.001597  -0.000201
     9  H    0.000005  -0.017272   0.459335  -0.004907   0.000120
    10  H    0.000021   0.001597  -0.004907   0.444913  -0.000146
    11  H    0.002592  -0.000201   0.000120  -0.000146   0.314138
          Atomic-Atomic Spin Densities.
               1          2          3          4          5          6
     1  C    0.000000   0.000000   0.000000   0.000000   0.000000   0.000000
     2  C    0.000000   0.000000   0.000000   0.000000   0.000000   0.000000
     3  O    0.000000   0.000000   0.000000   0.000000   0.000000   0.000000
     4  C    0.000000   0.000000   0.000000   0.000000   0.000000   0.000000
     5  C    0.000000   0.000000   0.000000   0.000000   0.000000   0.000000
     6  H    0.000000   0.000000   0.000000   0.000000   0.000000   0.000000
     7  H    0.000000   0.000000   0.000000   0.000000   0.000000   0.000000
     8  H    0.000000   0.000000   0.000000   0.000000   0.000000   0.000000
     9  H    0.000000   0.000000   0.000000   0.000000   0.000000   0.000000
    10  H    0.000000   0.000000   0.000000   0.000000   0.000000   0.000000
    11  H    0.000000   0.000000   0.000000   0.000000   0.000000   0.000000
               7          8          9         10         11
     1  C    0.000000   0.000000   0.000000   0.000000   0.000000
     2  C    0.000000   0.000000   0.000000   0.000000   0.000000
     3  O    0.000000   0.000000   0.000000   0.000000   0.000000
     4  C    0.000000   0.000000   0.000000   0.000000   0.000000
     5  C    0.000000   0.000000   0.000000   0.000000   0.000000
     6  H    0.000000   0.000000   0.000000   0.000000   0.000000
     7  H    0.000000   0.000000   0.000000   0.000000   0.000000
     8  H    0.000000   0.000000   0.000000   0.000000   0.000000
     9  H    0.000000   0.000000   0.000000   0.000000   0.000000
    10  H    0.000000   0.000000   0.000000   0.000000   0.000000
    11  H    0.000000   0.000000   0.000000   0.000000   0.000000
 Mulliken charges and spin densities:
               1          2
     1  C   -0.396696   0.000000
     2  C    0.411950   0.000000
     3  O   -0.758645   0.000000
     4  C   -0.122509   0.000000
     5  C   -0.341494   0.000000
     6  H    0.138395   0.000000
     7  H    0.131078   0.000000
     8  H    0.168673   0.000000
     9  H    0.157425   0.000000
    10  H    0.169394   0.000000
    11  H    0.442429   0.000000
 Sum of Mulliken charges =  -0.00000   0.00000
 Mulliken charges and spin densities with hydrogens summed into heavy atoms:
               1          2
     1  C   -0.127223   0.000000
     2  C    0.411950   0.000000
     3  O   -0.316216   0.000000
     4  C    0.046885   0.000000
     5  C   -0.015396   0.000000
 Electronic spatial extent (au):  <R**2>=            429.8572
 Charge=             -0.0000 electrons
 Dipole moment (field-independent basis, Debye):
    X=             -0.0547    Y=              0.7943    Z=              0.0000  Tot=              0.7962
 Quadrupole moment (field-independent basis, Debye-Ang):
   XX=            -27.8008   YY=            -26.1084   ZZ=            -34.8528
   XY=              3.0341   XZ=              0.0000   YZ=              0.0000
 Traceless Quadrupole moment (field-independent basis, Debye-Ang):
   XX=              1.7865   YY=              3.4789   ZZ=             -5.2654
   XY=              3.0341   XZ=              0.0000   YZ=              0.0000
 Octapole moment (field-independent basis, Debye-Ang**2):
  XXX=              6.6592  YYY=              1.0874  ZZZ=              0.0000  XYY=              7.2672
  XXY=              6.1773  XXZ=              0.0000  XZZ=              4.0368  YZZ=              0.4607
  YYZ=              0.0000  XYZ=              0.0000
 Hexadecapole moment (field-independent basis, Debye-Ang**3):
 XXXX=           -143.2407 YYYY=           -347.6034 ZZZZ=            -41.3469 XXXY=              4.1903
 XXXZ=              0.0000 YYYX=              6.9436 YYYZ=              0.0000 ZZZX=              0.0000
 ZZZY=              0.0000 XXYY=            -76.0075 XXZZ=            -37.0202 YYZZ=            -81.1087
 XXYZ=              0.0000 YYXZ=              0.0000 ZZXY=             -1.5198
 N-N= 1.620382966675D+02 E-N=-8.622864079728D+02  KE= 2.296363451711D+02
 Symmetry A'   KE= 2.211638345556D+02
 Symmetry A"   KE= 8.472510615552D+00
 Symmetry A'   SP= 0.000000000000D+00
 Symmetry A"   SP= 0.000000000000D+00
                          Isotropic Fermi Contact Couplings
        Atom                 a.u.       MegaHertz       Gauss      10(-4) cm-1
     1  C(13)              0.00000       0.00000       0.00000       0.00000
     2  C(13)              0.00000       0.00000       0.00000       0.00000
     3  O(17)              0.00000      -0.00000      -0.00000      -0.00000
     4  C(13)              0.00000       0.00000       0.00000       0.00000
     5  C(13)              0.00000       0.00000       0.00000       0.00000
     6  H(1)               0.00000       0.00000       0.00000       0.00000
     7  H(1)               0.00000       0.00000       0.00000       0.00000
     8  H(1)               0.00000       0.00000       0.00000       0.00000
     9  H(1)               0.00000       0.00000       0.00000       0.00000
    10  H(1)               0.00000       0.00000       0.00000       0.00000
    11  H(1)               0.00000       0.00000       0.00000       0.00000
 --------------------------------------------------------
       Center         ----  Spin Dipole Couplings  ----
                      3XX-RR        3YY-RR        3ZZ-RR
 --------------------------------------------------------
     1   Atom        0.000000      0.000000      0.000000
     2   Atom        0.000000      0.000000      0.000000
     3   Atom        0.000000      0.000000      0.000000
     4   Atom        0.000000      0.000000      0.000000
     5   Atom        0.000000      0.000000      0.000000
     6   Atom        0.000000      0.000000      0.000000
     7   Atom        0.000000      0.000000      0.000000
     8   Atom        0.000000      0.000000      0.000000
     9   Atom        0.000000      0.000000      0.000000
    10   Atom        0.000000      0.000000      0.000000
    11   Atom        0.000000      0.000000      0.000000
 --------------------------------------------------------
                        XY            XZ            YZ
 --------------------------------------------------------
     1   Atom        0.000000      0.000000      0.000000
     2   Atom        0.000000      0.000000      0.000000
     3   Atom        0.000000      0.000000      0.000000
     4   Atom        0.000000      0.000000      0.000000
     5   Atom        0.000000      0.000000      0.000000
     6   Atom        0.000000      0.000000      0.000000
     7   Atom        0.000000      0.000000      0.000000
     8   Atom        0.000000      0.000000      0.000000
     9   Atom        0.000000      0.000000      0.000000
    10   Atom        0.000000      0.000000      0.000000
    11   Atom        0.000000      0.000000      0.000000
 --------------------------------------------------------


 ---------------------------------------------------------------------------------
              Anisotropic Spin Dipole Couplings in Principal Axis System
 ---------------------------------------------------------------------------------

       Atom             a.u.   MegaHertz   Gauss  10(-4) cm-1        Axes

              Baa     0.0000     0.000     0.000     0.000  1.0000  0.0000  0.0000
     1 C(13)  Bbb     0.0000     0.000     0.000     0.000 -0.0000  1.0000  0.0000
              Bcc     0.0000     0.000     0.000     0.000  0.0000  0.0000  1.0000
 
              Baa     0.0000     0.000     0.000     0.000  1.0000  0.0000  0.0000
     2 C(13)  Bbb     0.0000     0.000     0.000     0.000 -0.0000  1.0000  0.0000
              Bcc     0.0000     0.000     0.000     0.000  0.0000  0.0000  1.0000
 
              Baa     0.0000    -0.000    -0.000    -0.000  1.0000  0.0000  0.0000
     3 O(17)  Bbb     0.0000    -0.000    -0.000    -0.000 -0.0000  1.0000  0.0000
              Bcc     0.0000    -0.000    -0.000    -0.000  0.0000  0.0000  1.0000
 
              Baa     0.0000     0.000     0.000     0.000  1.0000  0.0000  0.0000
     4 C(13)  Bbb     0.0000     0.000     0.000     0.000 -0.0000  1.0000  0.0000
              Bcc     0.0000     0.000     0.000     0.000  0.0000  0.0000  1.0000
 
              Baa     0.0000     0.000     0.000     0.000  1.0000  0.0000  0.0000
     5 C(13)  Bbb     0.0000     0.000     0.000     0.000 -0.0000  1.0000  0.0000
              Bcc     0.0000     0.000     0.000     0.000  0.0000  0.0000  1.0000
 
              Baa     0.0000     0.000     0.000     0.000  1.0000  0.0000  0.0000
     6 H(1)   Bbb     0.0000     0.000     0.000     0.000 -0.0000  1.0000  0.0000
              Bcc     0.0000     0.000     0.000     0.000  0.0000  0.0000  1.0000
 
              Baa     0.0000     0.000     0.000     0.000  1.0000  0.0000  0.0000
     7 H(1)   Bbb     0.0000     0.000     0.000     0.000 -0.0000  1.0000  0.0000
              Bcc     0.0000     0.000     0.000     0.000  0.0000  0.0000  1.0000
 
              Baa     0.0000     0.000     0.000     0.000  1.0000  0.0000  0.0000
     8 H(1)   Bbb     0.0000     0.000     0.000     0.000 -0.0000  1.0000  0.0000
              Bcc     0.0000     0.000     0.000     0.000  0.0000  0.0000  1.0000
 
              Baa     0.0000     0.000     0.000     0.000  1.0000  0.0000  0.0000
     9 H(1)   Bbb     0.0000     0.000     0.000     0.000 -0.0000  1.0000  0.0000
              Bcc     0.0000     0.000     0.000     0.000  0.0000  0.0000  1.0000
 
              Baa     0.0000     0.000     0.000     0.000  1.0000  0.0000  0.0000
    10 H(1)   Bbb     0.0000     0.000     0.000     0.000 -0.0000  1.0000  0.0000
              Bcc     0.0000     0.000     0.000     0.000  0.0000  0.0000  1.0000
 
              Baa     0.0000     0.000     0.000     0.000  1.0000  0.0000  0.0000
    11 H(1)   Bbb     0.0000     0.000     0.000     0.000 -0.0000  1.0000  0.0000
              Bcc     0.0000     0.000     0.000     0.000  0.0000  0.0000  1.0000
 

 ---------------------------------------------------------------------------------

 1\1\GINC-GAMBA\SP\ROHF\Gen\C4H6O1\IRIKURA\30-Sep-2023\0\\# rohf/gen ge
 om=check guess=check\\1,3-butadien-2-ol, ROHF/cc-pVTZ-F12\\0,1\C,0,-0.
 598245,1.711121,0.\C,0,0.,0.513327,0.\O,0,1.356569,0.347223,0.\C,0,-0.
 742843,-0.743057,0.\C,0,-0.190205,-1.95458,0.\H,0,-1.67407,1.782375,0.
 \H,0,-0.035546,2.635018,0.\H,0,0.882231,-2.085492,0.\H,0,-0.802303,-2.
 845108,0.\H,0,-1.819759,-0.633386,0.\H,0,1.784648,1.20795,0.\\Version=
 ES64L-G16RevB.01\State=1-A'\HF=-229.8858446\RMSD=8.923e-09\Dipole=-0.0
 215326,0.3125039,0.\Quadrupole=1.3282203,2.5865013,-3.9147216,2.255767
 4,0.,0.\PG=CS [SG(C4H6O1)]\\@


 CHINESE FORTUNE COOKIE OF JAN 1 1967 SAY....
 ALL THINGS ARE DIFFICULT BEFORE THEY ARE EASY.
 WE LEARN SO LITTLE AND FORGET SO MUCH.
 YOU WILL OVERCOME OBSTACLES TO ACHIEVE SUCCESS.
 AH SO.
 Job cpu time:       0 days  0 hours 13 minutes 43.3 seconds.
 Elapsed time:       0 days  0 hours  3 minutes 26.0 seconds.
 File lengths (MBytes):  RWF=    101 Int=      0 D2E=      0 Chk=     13 Scr=      1
 Normal termination of Gaussian 16 at Sat Sep 30 12:52:11 2023.
