 Entering Gaussian System, Link 0=g16
 AtFile(1): pcseg2.gbs
            -H     0
            S   4   1.00
                  0.754732D+02           0.427821D-02
                  0.113575D+02           0.328672D-01
                  0.260081D+01           0.159578D+00
                  0.735503D+00           0.500000D+00
            S   1   1.00
                  0.231761D+00           1.0000000
            S   1   1.00
                  0.741675D-01           1.0000000
            P   1   1.00
                  0.160000D+01           1.0000000
            P   1   1.00
                  0.450000D+00           1.0000000
            D   1   1.00
                  0.125000D+01           1.0000000
            ****
            -C     0
            S   7   1.00
                  0.731999D+04           0.695369D-03
                  0.109818D+04           0.537138D-02
                  0.250014D+03           0.274734D-01
                  0.707586D+02           0.105078D+00
                  0.228595D+02           0.291262D+00
                  0.803936D+01           0.500000D+00
                  0.289309D+01           0.362224D+00
            S   2   1.00
                  0.521640D+01          -0.957844D-01
                  0.556124D+00           0.500000D+00
            S   1   1.00
                  0.228813D+00           1.0000000
            S   1   1.00
                  0.936338D-01           1.0000000
            P   4   1.00
                  0.339855D+02           0.818395D-02
                  0.772957D+01           0.586921D-01
                  0.224954D+01           0.222514D+00
                  0.767681D+00           0.500000D+00
            P   1   1.00
                  0.263283D+00           1.0000000
            P   1   1.00
                  0.848744D-01           1.0000000
            D   1   1.00
                  0.140000D+01           1.0000000
            D   1   1.00
                  0.450000D+00           1.0000000
            F   1   1.00
                  0.950000D+00           1.0000000
            ****
            -O     0
            S   7   1.00
                  0.135887D+05           0.665492D-03
                  0.203847D+04           0.514222D-02
                  0.464041D+03           0.263472D-01
                  0.131339D+03           0.101500D+00
                  0.425340D+02           0.285877D+00
                  0.150429D+02           0.500000D+00
                  0.546616D+01           0.368211D+00
            S   2   1.00
                  0.100915D+02          -0.100084D+00
                  0.110429D+01           0.500000D+00
            S   1   1.00
                  0.448082D+00           1.0000000
            S   1   1.00
                  0.175325D+00           1.0000000
            P   4   1.00
                  0.608220D+02           0.908253D-02
                  0.140332D+02           0.645878D-01
                  0.418244D+01           0.241502D+00
                  0.142490D+01           0.500000D+00
            P   1   1.00
                  0.478741D+00           1.0000000
            P   1   1.00
                  0.146257D+00           1.0000000
            D   1   1.00
                  0.220000D+01           1.0000000
            D   1   1.00
                  0.650000D+00           1.0000000
            F   1   1.00
                  0.110000D+01           1.0000000
            ****
            -N     0
            S   7   1.00
                  0.101643D+05           0.682757D-03
                  0.152481D+04           0.527488D-02
                  0.347119D+03           0.270037D-01
                  0.982389D+02           0.103673D+00
                  0.317799D+02           0.289575D+00
                  0.112240D+02           0.500000D+00
                  0.406611D+01           0.364621D+00
            S   2   1.00
                  0.747898D+01          -0.975681D-01
                  0.805040D+00           0.500000D+00
            S   1   1.00
                  0.324626D+00           1.0000000
            S   1   1.00
                  0.128132D+00           1.0000000
            P   4   1.00
                  0.482704D+02           0.829547D-02
                  0.110815D+02           0.596223D-01
                  0.326643D+01           0.227889D+00
                  0.111680D+01           0.500000D+00
            P   1   1.00
                  0.382049D+00           1.0000000
            P   1   1.00
                  0.121222D+00           1.0000000
            D   1   1.00
                  0.180000D+01           1.0000000
            D   1   1.00
                  0.550000D+00           1.0000000
            F   1   1.00
                  0.102000D+01           1.0000000
            ****
            -F     0
            S   7   1.00
                  0.174507D+05           0.655972D-03
                  0.261768D+04           0.506944D-02
                  0.595857D+03           0.259899D-01
                  0.168651D+03           0.100353D+00
                  0.546654D+02           0.284095D+00
                  0.193717D+02           0.500000D+00
                  0.706202D+01           0.370721D+00
            S   2   1.00
                  0.131197D+02          -0.101997D+00
                  0.145046D+01           0.500000D+00
            S   1   1.00
                  0.588255D+00           1.0000000
            S   1   1.00
                  0.227960D+00           1.0000000
            P   4   1.00
                  0.779407D+02           0.931135D-02
                  0.180425D+02           0.663964D-01
                  0.542342D+01           0.246386D+00
                  0.184876D+01           0.500000D+00
            P   1   1.00
                  0.617455D+00           1.0000000
            P   1   1.00
                  0.185496D+00           1.0000000
            D   1   1.00
                  0.280000D+01           1.0000000
            D   1   1.00
                  0.800000D+00           1.0000000
            F   1   1.00
                  0.120000D+01           1.0000000
            ****
            -Cl     0
            S   8   1.00
                  0.154272D+06           0.222473D-03
                  0.231232D+05           0.172590D-02
                  0.526257D+04           0.899286D-02
                  0.148995D+04           0.367724D-01
                  0.485417D+03           0.121446D+00
                  0.174634D+03           0.304148D+00
                  0.672393D+02           0.500000D+00
                  0.265780D+02           0.360252D+00
            S   3   1.00
                  0.131826D+03          -0.531330D-01
                  0.400703D+02          -0.233346D+00
                  0.789448D+01           0.500000D+00
            S   2   1.00
                  0.427711D+01           0.500000D+00
                  0.196233D+01           0.370517D+00
            S   1   1.00
                  0.520793D+00           1.0000000
            S   1   1.00
                  0.181633D+00           1.0000000
            P   7   1.00
                  0.124440D+04           0.988206D-03
                  0.295109D+03           0.829674D-02
                  0.947224D+02           0.430906D-01
                  0.352588D+02           0.148443D+00
                  0.144211D+02           0.344744D+00
                  0.610371D+01           0.500000D+00
                  0.258886D+01           0.348278D+00
            P   2   1.00
                  0.109447D+02          -0.196768D-01
                  0.104413D+01           0.500000D+00
            P   1   1.00
                  0.376184D+00           1.0000000
            P   1   1.00
                  0.120613D+00           1.0000000
            D   1   1.00
                  0.231000D+01           1.0000000
            D   1   1.00
                  0.520000D+00           1.0000000
            F   1   1.00
                  0.720000D+00           1.0000000
            ****
            -S     0
            S   8   1.00
                  0.134700D+06           0.226231D-03
                  0.201904D+05           0.175488D-02
                  0.459528D+04           0.914190D-02
                  0.130109D+04           0.373551D-01
                  0.423902D+03           0.123121D+00
                  0.152485D+03           0.306801D+00
                  0.586925D+02           0.500000D+00
                  0.231461D+02           0.354358D+00
            S   3   1.00
                  0.116327D+03          -0.491772D-01
                  0.352841D+02          -0.215962D+00
                  0.677831D+01           0.500000D+00
            S   2   1.00
                  0.360404D+01           0.500000D+00
                  0.164871D+01           0.366278D+00
            S   1   1.00
                  0.421821D+00           1.0000000
            S   1   1.00
                  0.147554D+00           1.0000000
            P   7   1.00
                  0.104863D+04           0.105273D-02
                  0.248717D+03           0.879338D-02
                  0.797887D+02           0.453358D-01
                  0.296023D+02           0.154476D+00
                  0.120627D+02           0.352366D+00
                  0.507628D+01           0.500000D+00
                  0.213375D+01           0.346429D+00
            P   2   1.00
                  0.928958D+01          -0.185932D-01
                  0.837819D+00           0.500000D+00
            P   1   1.00
                  0.301495D+00           1.0000000
            P   1   1.00
                  0.974740D-01           1.0000000
            D   1   1.00
                  0.210000D+01           1.0000000
            D   1   1.00
                  0.480000D+00           1.0000000
            F   1   1.00
                  0.660000D+00           1.0000000
            ****
            -Br     0
            S    10   1.00
                  0.233625D+07           0.532336D-04
                  0.349961D+06           0.413715D-03
                  0.796444D+05           0.217123D-02
                  0.225555D+05           0.910109D-02
                  0.735546D+04           0.323789D-01
                  0.265352D+04           0.988755D-01
                  0.103517D+04           0.248138D+00
                  0.422205D+03           0.474328D+00
                  0.180035D+03           0.500000D+00
                  0.793308D+02           0.187769D+00
            S    4   1.00
                  0.620834D+03          -0.226511D-01
                  0.190829D+03          -0.109497D+00
                  0.312505D+02           0.500000D+00
                  0.135270D+02           0.492812D+00
            S    2   1.00
                  0.216097D+02          -0.165418D+00
                  0.372566D+01           0.500000D+00
            S    1   1.00
                  0.169770D+01           1.0000000
            S    1   1.00
                  0.489332D+00           1.0000000
            S    1   1.00
                  0.175712D+00           1.0000000
            P    8   1.00
                  0.960829D+04           0.478974D-03
                  0.227618D+04           0.417853D-02
                  0.736723D+03           0.229315D-01
                  0.281579D+03           0.892653D-01
                  0.118395D+03           0.255288D+00
                  0.527481D+02           0.479074D+00
                  0.245098D+02           0.500000D+00
                  0.112009D+02           0.200944D+00
            P    4   1.00
                  0.587849D+02          -0.189674D-01
                  0.918962D+01           0.264104D+00
                  0.413895D+01           0.500000D+00
                  0.184225D+01           0.319316D+00
            P    1   1.00
                  0.713862D+00           1.0000000
            P    1   1.00
                  0.274232D+00           1.0000000
            P    1   1.00
                  0.944411D-01           1.0000000
            D    7   1.00
                  0.398470D+03           0.204066D-02
                  0.118967D+03           0.175171D-01
                  0.450197D+02           0.829708D-01
                  0.190320D+02           0.236284D+00
                  0.855686D+01           0.428468D+00
                  0.382950D+01           0.500000D+00
                  0.166291D+01           0.349360D+00
            D    1   1.00
                  0.672953D+00           1.0000000
            D    1   1.00
                  0.252000D+00           1.0000000
            F    1   1.00
                  0.530000D+00           1.0000000
            ****
            -Si     0
            S    8   1.00
                  0.996133D+05           0.235546D-03
                  0.149311D+05           0.182707D-02
                  0.339820D+04           0.951425D-02
                  0.962140D+03           0.388172D-01
                  0.313430D+03           0.127328D+00
                  0.112683D+03           0.313522D+00
                  0.433372D+02           0.500000D+00
                  0.170029D+02           0.340347D+00
            S    3   1.00
                  0.884208D+02          -0.404451D-01
                  0.266756D+02          -0.178059D+00
                  0.479640D+01           0.500000D+00
            S    2   1.00
                  0.239385D+01           0.500000D+00
                  0.108333D+01           0.338016D+00
            S    1   1.00
                  0.252420D+00           1.0000000
            S    1   1.00
                  0.891210D-01           1.0000000
            P    7   1.00
                  0.709901D+03           0.123028D-02
                  0.168426D+03           0.101366D-01
                  0.539946D+02           0.511840D-01
                  0.198646D+02           0.169967D+00
                  0.801369D+01           0.370717D+00
                  0.331870D+01           0.500000D+00
                  0.136112D+01           0.344128D+00
            P    2   1.00
                  0.622158D+01          -0.166609D-01
                  0.503049D+00           0.500000D+00
            P    1   1.00
                  0.179848D+00           1.0000000
            P    1   1.00
                  0.591912D-01           1.0000000
            D    1   1.00
                  0.168000D+01           1.0000000
            D    1   1.00
                  0.380000D+00           1.0000000
            F    1   1.00
                  0.540000D+00           1.0000000
            ****
            -P     0
            S    8   1.00
                  0.116416D+06           0.230715D-03
                  0.174500D+05           0.178960D-02
                  0.397149D+04           0.932116D-02
                  0.112447D+04           0.380591D-01
                  0.366347D+03           0.125148D+00
                  0.131757D+03           0.310022D+00
                  0.506988D+02           0.500000D+00
                  0.199436D+02           0.347528D+00
            S    3   1.00
                  0.101878D+03          -0.446755D-01
                  0.308249D+02          -0.196376D+00
                  0.573688D+01           0.500000D+00
            S    2   1.00
                  0.296868D+01           0.500000D+00
                  0.135315D+01           0.355098D+00
            S    1   1.00
                  0.332196D+00           1.0000000
            S    1   1.00
                  0.116229D+00           1.0000000
            P    7   1.00
                  0.873928D+03           0.112375D-02
                  0.207298D+03           0.933330D-02
                  0.664628D+02           0.477213D-01
                  0.245665D+02           0.160733D+00
                  0.996820D+01           0.359760D+00
                  0.416536D+01           0.500000D+00
                  0.173022D+01           0.346593D+00
            P    2   1.00
                  0.772530D+01          -0.175718D-01
                  0.657252D+00           0.500000D+00
            P    1   1.00
                  0.239903D+00           1.0000000
            P    1   1.00
                  0.800988D-01           1.0000000
            D    1   1.00
                  0.189000D+01           1.0000000
            D    1   1.00
                  0.430000D+00           1.0000000
            F    1   1.00
                  0.600000D+00           1.0000000
            ****
            
 Initial command:
 /usr/local/apps/g16_b01_avx/g16/l1.exe "/wrk/irikura/Gau-166078.inp" -scrdir="/wrk/irikura/"
 Entering Link 1 = /usr/local/apps/g16_b01_avx/g16/l1.exe PID=    166080.
  
 Copyright (c) 1988-2017, Gaussian, Inc.  All Rights Reserved.
  
 This is part of the Gaussian(R) 16 program.  It is based on
 the Gaussian(R) 09 system (copyright 2009, Gaussian, Inc.),
 the Gaussian(R) 03 system (copyright 2003, Gaussian, Inc.),
 the Gaussian(R) 98 system (copyright 1998, Gaussian, Inc.),
 the Gaussian(R) 94 system (copyright 1995, Gaussian, Inc.),
 the Gaussian 92(TM) system (copyright 1992, Gaussian, Inc.),
 the Gaussian 90(TM) system (copyright 1990, Gaussian, Inc.),
 the Gaussian 88(TM) system (copyright 1988, Gaussian, Inc.),
 the Gaussian 86(TM) system (copyright 1986, Carnegie Mellon
 University), and the Gaussian 82(TM) system (copyright 1983,
 Carnegie Mellon University). Gaussian is a federally registered
 trademark of Gaussian, Inc.
  
 This software contains proprietary and confidential information,
 including trade secrets, belonging to Gaussian, Inc.
  
 This software is provided under written license and may be
 used, copied, transmitted, or stored only in accord with that
 written license.
  
 The following legend is applicable only to US Government
 contracts under FAR:
  
                    RESTRICTED RIGHTS LEGEND
  
 Use, reproduction and disclosure by the US Government is
 subject to restrictions as set forth in subparagraphs (a)
 and (c) of the Commercial Computer Software - Restricted
 Rights clause in FAR 52.227-19.
  
 Gaussian, Inc.
 340 Quinnipiac St., Bldg. 40, Wallingford CT 06492
  
  
 ---------------------------------------------------------------
 Warning -- This program may not be used in any manner that
 competes with the business of Gaussian, Inc. or will provide
 assistance to any competitor of Gaussian, Inc.  The licensee
 of this program is prohibited from giving any competitor of
 Gaussian, Inc. access to this program.  By using this program,
 the user acknowledges that Gaussian, Inc. is engaged in the
 business of creating and licensing software in the field of
 computational chemistry and represents and warrants to the
 licensee that it is not a competitor of Gaussian, Inc. and that
 it will not use this program in any manner prohibited above.
 ---------------------------------------------------------------
  

 Cite this work as:
 Gaussian 16, Revision B.01,
 M. J. Frisch, G. W. Trucks, H. B. Schlegel, G. E. Scuseria, 
 M. A. Robb, J. R. Cheeseman, G. Scalmani, V. Barone, 
 G. A. Petersson, H. Nakatsuji, X. Li, M. Caricato, A. V. Marenich, 
 J. Bloino, B. G. Janesko, R. Gomperts, B. Mennucci, H. P. Hratchian, 
 J. V. Ortiz, A. F. Izmaylov, J. L. Sonnenberg, D. Williams-Young, 
 F. Ding, F. Lipparini, F. Egidi, J. Goings, B. Peng, A. Petrone, 
 T. Henderson, D. Ranasinghe, V. G. Zakrzewski, J. Gao, N. Rega, 
 G. Zheng, W. Liang, M. Hada, M. Ehara, K. Toyota, R. Fukuda, 
 J. Hasegawa, M. Ishida, T. Nakajima, Y. Honda, O. Kitao, H. Nakai, 
 T. Vreven, K. Throssell, J. A. Montgomery, Jr., J. E. Peralta, 
 F. Ogliaro, M. J. Bearpark, J. J. Heyd, E. N. Brothers, K. N. Kudin, 
 V. N. Staroverov, T. A. Keith, R. Kobayashi, J. Normand, 
 K. Raghavachari, A. P. Rendell, J. C. Burant, S. S. Iyengar, 
 J. Tomasi, M. Cossi, J. M. Millam, M. Klene, C. Adamo, R. Cammi, 
 J. W. Ochterski, R. L. Martin, K. Morokuma, O. Farkas, 
 J. B. Foresman, and D. J. Fox, Gaussian, Inc., Wallingford CT, 2016.
 
 ******************************************
 Gaussian 16:  ES64L-G16RevB.01 20-Dec-2017
                28-Sep-2023 
 ******************************************
 %chk=butene1.chk
 %mem=500mw
 %nprocs=4
 Will use up to    4 processors via shared memory.
 ---------------------------------------
 # b3lyp/gen opt freq CPHF(Grid=OneStep)
 ---------------------------------------
 1/18=20,19=15,26=3,38=1/1,3;
 2/9=110,12=2,17=6,18=5,40=1/2;
 3/5=7,11=2,25=1,30=1,71=1,74=-5/1,2,3;
 4//1;
 5/5=2,38=5/2;
 6/7=2,8=2,9=2,10=2,28=1/1;
 7//1,2,3,16;
 1/18=20,19=15,26=3/3(2);
 2/9=110/2;
 99//99;
 2/9=110/2;
 3/5=7,6=1,11=2,25=1,30=1,71=1,74=-5,82=7/1,2,3;
 4/5=5,16=3,69=1/1;
 5/5=2,38=5/2;
 7//1,2,3,16;
 1/18=20,19=15,26=3/3(-5);
 2/9=110/2;
 6/7=2,8=2,9=2,10=2,19=2,28=1/1;
 99/9=1/99;
 -----------------------
 1-butene, B3LYP/pcseg-2
 -----------------------
 Symbolic Z-matrix:
 Charge =  0 Multiplicity = 1
 C                     1.72881  -0.24187  -0.2904 
 C                     0.53631   0.51671   0.30591 
 C                    -0.72104  -0.29971   0.32948 
 C                    -1.85907   0.01999  -0.27403 
 H                    -0.66714  -1.23159   0.88711 
 H                     1.53857  -0.51424  -1.32909 
 H                     2.63377   0.36599  -0.25931 
 H                     1.92649  -1.16163   0.26298 
 H                     0.7868    0.81447   1.32955 
 H                     0.3627    1.43869  -0.25323 
 H                    -1.96082   0.93639  -0.84351 
 H                    -2.73037  -0.61878  -0.22027 
 

 GradGradGradGradGradGradGradGradGradGradGradGradGradGradGradGradGradGrad
 Berny optimization.
 Initialization pass.
                           ----------------------------
                           !    Initial Parameters    !
                           ! (Angstroms and Degrees)  !
 --------------------------                            --------------------------
 ! Name  Definition              Value          Derivative Info.                !
 --------------------------------------------------------------------------------
 ! R1    R(1,2)                  1.534          estimate D2E/DX2                !
 ! R2    R(1,6)                  1.0905         estimate D2E/DX2                !
 ! R3    R(1,7)                  1.0906         estimate D2E/DX2                !
 ! R4    R(1,8)                  1.0914         estimate D2E/DX2                !
 ! R5    R(2,3)                  1.4993         estimate D2E/DX2                !
 ! R6    R(2,9)                  1.0951         estimate D2E/DX2                !
 ! R7    R(2,10)                 1.0922         estimate D2E/DX2                !
 ! R8    R(3,4)                  1.3272         estimate D2E/DX2                !
 ! R9    R(3,5)                  1.0873         estimate D2E/DX2                !
 ! R10   R(4,11)                 1.0837         estimate D2E/DX2                !
 ! R11   R(4,12)                 1.0817         estimate D2E/DX2                !
 ! A1    A(2,1,6)              110.9868         estimate D2E/DX2                !
 ! A2    A(2,1,7)              110.9997         estimate D2E/DX2                !
 ! A3    A(2,1,8)              111.1269         estimate D2E/DX2                !
 ! A4    A(6,1,7)              108.1257         estimate D2E/DX2                !
 ! A5    A(6,1,8)              107.7003         estimate D2E/DX2                !
 ! A6    A(7,1,8)              107.7547         estimate D2E/DX2                !
 ! A7    A(1,2,3)              112.8775         estimate D2E/DX2                !
 ! A8    A(1,2,9)              108.6634         estimate D2E/DX2                !
 ! A9    A(1,2,10)             109.9998         estimate D2E/DX2                !
 ! A10   A(3,2,9)              108.9766         estimate D2E/DX2                !
 ! A11   A(3,2,10)             109.5368         estimate D2E/DX2                !
 ! A12   A(9,2,10)             106.5814         estimate D2E/DX2                !
 ! A13   A(2,3,4)              125.5033         estimate D2E/DX2                !
 ! A14   A(2,3,5)              115.6685         estimate D2E/DX2                !
 ! A15   A(4,3,5)              118.8257         estimate D2E/DX2                !
 ! A16   A(3,4,11)             121.5425         estimate D2E/DX2                !
 ! A17   A(3,4,12)             121.7238         estimate D2E/DX2                !
 ! A18   A(11,4,12)            116.7335         estimate D2E/DX2                !
 ! D1    D(6,1,2,3)             61.7961         estimate D2E/DX2                !
 ! D2    D(6,1,2,9)           -177.2025         estimate D2E/DX2                !
 ! D3    D(6,1,2,10)           -60.8762         estimate D2E/DX2                !
 ! D4    D(7,1,2,3)           -177.9282         estimate D2E/DX2                !
 ! D5    D(7,1,2,9)            -56.9269         estimate D2E/DX2                !
 ! D6    D(7,1,2,10)            59.3995         estimate D2E/DX2                !
 ! D7    D(8,1,2,3)            -58.0275         estimate D2E/DX2                !
 ! D8    D(8,1,2,9)             62.9739         estimate D2E/DX2                !
 ! D9    D(8,1,2,10)           179.3002         estimate D2E/DX2                !
 ! D10   D(1,2,3,4)           -120.7197         estimate D2E/DX2                !
 ! D11   D(1,2,3,5)             58.7011         estimate D2E/DX2                !
 ! D12   D(9,2,3,4)            118.4572         estimate D2E/DX2                !
 ! D13   D(9,2,3,5)            -62.122          estimate D2E/DX2                !
 ! D14   D(10,2,3,4)             2.2108         estimate D2E/DX2                !
 ! D15   D(10,2,3,5)          -178.3684         estimate D2E/DX2                !
 ! D16   D(2,3,4,11)            -0.4332         estimate D2E/DX2                !
 ! D17   D(2,3,4,12)           179.7098         estimate D2E/DX2                !
 ! D18   D(5,3,4,11)          -179.8373         estimate D2E/DX2                !
 ! D19   D(5,3,4,12)             0.3057         estimate D2E/DX2                !
 --------------------------------------------------------------------------------
 Trust Radius=3.00D-01 FncErr=1.00D-07 GrdErr=1.00D-06 EigMax=2.50D+02 EigMin=1.00D-04
 Number of steps in this run=     58 maximum allowed number of steps=    100.
 GradGradGradGradGradGradGradGradGradGradGradGradGradGradGradGradGradGrad

                          Input orientation:                          
 ---------------------------------------------------------------------
 Center     Atomic      Atomic             Coordinates (Angstroms)
 Number     Number       Type             X           Y           Z
 ---------------------------------------------------------------------
      1          6           0        1.728805   -0.241870   -0.290396
      2          6           0        0.536306    0.516706    0.305911
      3          6           0       -0.721041   -0.299706    0.329480
      4          6           0       -1.859071    0.019988   -0.274032
      5          1           0       -0.667136   -1.231594    0.887106
      6          1           0        1.538570   -0.514235   -1.329085
      7          1           0        2.633769    0.365986   -0.259309
      8          1           0        1.926486   -1.161626    0.262979
      9          1           0        0.786798    0.814467    1.329551
     10          1           0        0.362697    1.438685   -0.253232
     11          1           0       -1.960815    0.936385   -0.843511
     12          1           0       -2.730367   -0.618776   -0.220272
 ---------------------------------------------------------------------
                    Distance matrix (angstroms):
                    1          2          3          4          5
     1  C    0.000000
     2  C    1.533973   0.000000
     3  C    2.527714   1.499335   0.000000
     4  C    3.597456   2.514139   1.327231   0.000000
     5  H    2.847209   2.200594   1.087321   2.082164   0.000000
     6  H    1.090526   2.177288   2.811175   3.597568   3.207997
     7  H    1.090603   2.177508   3.470529   4.506167   3.842200
     8  H    1.091445   2.179734   2.785090   4.001879   2.668577
     9  H    2.151152   1.095101   2.124877   3.194260   2.548734
    10  H    2.166079   1.092166   2.129799   2.636169   3.080798
    11  H    3.912482   2.780812   2.107337   1.083717   3.060845
    12  H    4.475622   3.498191   2.107469   1.081696   2.420486
                    6          7          8          9         10
     6  H    0.000000
     7  H    1.765976   0.000000
     8  H    1.761892   1.762564   0.000000
     9  H    3.065772   2.477279   2.518215   0.000000
    10  H    2.520721   2.511670   3.077910   1.753486   0.000000
    11  H    3.819133   4.666567   4.553798   3.505202   2.449376
    12  H    4.411827   5.453919   4.713226   4.102022   3.715007
                   11         12
    11  H    0.000000
    12  H    1.843682   0.000000
 Stoichiometry    C4H8
 Framework group  C1[X(C4H8)]
 Deg. of freedom    30
 Full point group                 C1      NOp   1
 Largest Abelian subgroup         C1      NOp   1
 Largest concise Abelian subgroup C1      NOp   1
                         Standard orientation:                         
 ---------------------------------------------------------------------
 Center     Atomic      Atomic             Coordinates (Angstroms)
 Number     Number       Type             X           Y           Z
 ---------------------------------------------------------------------
      1          6           0        1.728805   -0.241870   -0.290396
      2          6           0        0.536306    0.516706    0.305911
      3          6           0       -0.721041   -0.299706    0.329480
      4          6           0       -1.859071    0.019988   -0.274032
      5          1           0       -0.667136   -1.231594    0.887106
      6          1           0        1.538570   -0.514235   -1.329085
      7          1           0        2.633769    0.365986   -0.259309
      8          1           0        1.926486   -1.161626    0.262979
      9          1           0        0.786798    0.814467    1.329551
     10          1           0        0.362697    1.438685   -0.253232
     11          1           0       -1.960815    0.936385   -0.843511
     12          1           0       -2.730367   -0.618776   -0.220272
 ---------------------------------------------------------------------
 Rotational constants (GHZ):          23.0142143           4.1375994           4.0374209
 General basis read from cards:  (5D, 7F)
 There are   260 symmetry adapted cartesian basis functions of A   symmetry.
 There are   232 symmetry adapted basis functions of A   symmetry.
   232 basis functions,   348 primitive gaussians,   260 cartesian basis functions
    16 alpha electrons       16 beta electrons
       nuclear repulsion energy       117.2264399060 Hartrees.
 NAtoms=   12 NActive=   12 NUniq=   12 SFac= 1.00D+00 NAtFMM=   60 NAOKFM=F Big=F
 Integral buffers will be    131072 words long.
 Raffenetti 2 integral format.
 Two-electron integral symmetry is turned on.
 One-electron integrals computed using PRISM.
 NBasis=   232 RedAO= T EigKep=  2.89D-04  NBF=   232
 NBsUse=   232 1.00D-06 EigRej= -1.00D+00 NBFU=   232
 ExpMin= 7.42D-02 ExpMax= 7.32D+03 ExpMxC= 2.50D+02 IAcc=3 IRadAn=         5 AccDes= 0.00D+00
 Harris functional with IExCor=  402 and IRadAn=       5 diagonalized for initial guess.
 HarFok:  IExCor=  402 AccDes= 0.00D+00 IRadAn=         5 IDoV= 1 UseB2=F ITyADJ=14
 ICtDFT=  3500011 ScaDFX=  1.000000  1.000000  1.000000  1.000000
 FoFCou: FMM=F IPFlag=           0 FMFlag=      100000 FMFlg1=           0
         NFxFlg=           0 DoJE=T BraDBF=F KetDBF=T FulRan=T
         wScrn=  0.000000 ICntrl=       500 IOpCl=  0 I1Cent=   200000004 NGrid=           0
         NMat0=    1 NMatS0=      1 NMatT0=    0 NMatD0=    1 NMtDS0=    0 NMtDT0=    0
 Petite list used in FoFCou.
 Keep R1 ints in memory in canonical form, NReq=374160853.
 Requested convergence on RMS density matrix=1.00D-08 within 128 cycles.
 Requested convergence on MAX density matrix=1.00D-06.
 Requested convergence on             energy=1.00D-06.
 No special actions if energy rises.
 Integral accuracy reduced to 1.0D-05 until final iterations.
 Initial convergence to 1.0D-05 achieved.  Increase integral accuracy.
 SCF Done:  E(RB3LYP) =  -157.289186255     A.U. after   12 cycles
            NFock= 12  Conv=0.37D-08     -V/T= 2.0045

 **********************************************************************

            Population analysis using the SCF Density.

 **********************************************************************

 Orbital symmetries:
       Occupied  (A) (A) (A) (A) (A) (A) (A) (A) (A) (A) (A) (A)
                 (A) (A) (A) (A)
       Virtual   (A) (A) (A) (A) (A) (A) (A) (A) (A) (A) (A) (A)
                 (A) (A) (A) (A) (A) (A) (A) (A) (A) (A) (A) (A)
                 (A) (A) (A) (A) (A) (A) (A) (A) (A) (A) (A) (A)
                 (A) (A) (A) (A) (A) (A) (A) (A) (A) (A) (A) (A)
                 (A) (A) (A) (A) (A) (A) (A) (A) (A) (A) (A) (A)
                 (A) (A) (A) (A) (A) (A) (A) (A) (A) (A) (A) (A)
                 (A) (A) (A) (A) (A) (A) (A) (A) (A) (A) (A) (A)
                 (A) (A) (A) (A) (A) (A) (A) (A) (A) (A) (A) (A)
                 (A) (A) (A) (A) (A) (A) (A) (A) (A) (A) (A) (A)
                 (A) (A) (A) (A) (A) (A) (A) (A) (A) (A) (A) (A)
                 (A) (A) (A) (A) (A) (A) (A) (A) (A) (A) (A) (A)
                 (A) (A) (A) (A) (A) (A) (A) (A) (A) (A) (A) (A)
                 (A) (A) (A) (A) (A) (A) (A) (A) (A) (A) (A) (A)
                 (A) (A) (A) (A) (A) (A) (A) (A) (A) (A) (A) (A)
                 (A) (A) (A) (A) (A) (A) (A) (A) (A) (A) (A) (A)
                 (A) (A) (A) (A) (A) (A) (A) (A) (A) (A) (A) (A)
                 (A) (A) (A) (A) (A) (A) (A) (A) (A) (A) (A) (A)
                 (A) (A) (A) (A) (A) (A) (A) (A) (A) (A) (A) (A)
 The electronic state is 1-A.
 Alpha  occ. eigenvalues --  -10.17365 -10.17317 -10.16320 -10.16143  -0.80266
 Alpha  occ. eigenvalues --   -0.73095  -0.63010  -0.55579  -0.47411  -0.44574
 Alpha  occ. eigenvalues --   -0.42872  -0.38582  -0.37714  -0.34687  -0.33790
 Alpha  occ. eigenvalues --   -0.26348
 Alpha virt. eigenvalues --    0.00073   0.02178   0.04052   0.04308   0.05585
 Alpha virt. eigenvalues --    0.08067   0.08922   0.09380   0.11007   0.13330
 Alpha virt. eigenvalues --    0.15664   0.16588   0.18408   0.20164   0.21661
 Alpha virt. eigenvalues --    0.23111   0.23866   0.25806   0.28461   0.30071
 Alpha virt. eigenvalues --    0.32459   0.33218   0.33847   0.34266   0.34595
 Alpha virt. eigenvalues --    0.35244   0.36019   0.37516   0.38711   0.39798
 Alpha virt. eigenvalues --    0.41636   0.47149   0.52160   0.54404   0.56185
 Alpha virt. eigenvalues --    0.58379   0.65145   0.71114   0.73215   0.77573
 Alpha virt. eigenvalues --    0.83252   0.84927   0.87828   0.91632   0.93207
 Alpha virt. eigenvalues --    0.94756   0.98190   0.98777   0.99732   1.00936
 Alpha virt. eigenvalues --    1.03002   1.04315   1.04962   1.08050   1.09509
 Alpha virt. eigenvalues --    1.11584   1.12286   1.14340   1.15790   1.19728
 Alpha virt. eigenvalues --    1.20407   1.22007   1.24099   1.27287   1.30761
 Alpha virt. eigenvalues --    1.31402   1.33359   1.35382   1.38513   1.43180
 Alpha virt. eigenvalues --    1.43758   1.47212   1.51130   1.54316   1.58739
 Alpha virt. eigenvalues --    1.62796   1.64761   1.66630   1.71531   1.73988
 Alpha virt. eigenvalues --    1.74653   1.77879   1.79935   1.82185   1.84798
 Alpha virt. eigenvalues --    1.86081   1.93506   1.94928   2.01644   2.04974
 Alpha virt. eigenvalues --    2.05350   2.09338   2.19895   2.27460   2.31260
 Alpha virt. eigenvalues --    2.37484   2.43139   2.47695   2.58588   2.62063
 Alpha virt. eigenvalues --    2.68110   2.79816   3.01904   3.03665   3.14944
 Alpha virt. eigenvalues --    3.15820   3.18957   3.23008   3.27449   3.27991
 Alpha virt. eigenvalues --    3.29776   3.34593   3.38597   3.39809   3.41779
 Alpha virt. eigenvalues --    3.44862   3.47185   3.52235   3.54820   3.59835
 Alpha virt. eigenvalues --    3.63389   3.67883   3.69577   3.74820   3.79918
 Alpha virt. eigenvalues --    3.81713   3.82806   3.85572   3.88018   3.91874
 Alpha virt. eigenvalues --    3.94027   3.96285   3.99462   4.01720   4.03118
 Alpha virt. eigenvalues --    4.04930   4.07641   4.10035   4.14640   4.18853
 Alpha virt. eigenvalues --    4.20884   4.22920   4.25788   4.26676   4.27754
 Alpha virt. eigenvalues --    4.29810   4.32567   4.33777   4.36164   4.36952
 Alpha virt. eigenvalues --    4.39895   4.40595   4.42472   4.46298   4.47502
 Alpha virt. eigenvalues --    4.49388   4.50831   4.52487   4.53515   4.56915
 Alpha virt. eigenvalues --    4.58612   4.58780   4.61373   4.64025   4.64578
 Alpha virt. eigenvalues --    4.65636   4.68286   4.73489   4.76344   4.77723
 Alpha virt. eigenvalues --    4.84465   4.85612   4.88193   4.92337   4.96359
 Alpha virt. eigenvalues --    5.00191   5.03588   5.07011   5.10123   5.12762
 Alpha virt. eigenvalues --    5.18026   5.19934   5.21583   5.28184   5.34942
 Alpha virt. eigenvalues --    5.36727   5.38988   5.41044   5.43796   5.48078
 Alpha virt. eigenvalues --    5.51666   5.54432   5.58210   5.61553   5.64906
 Alpha virt. eigenvalues --    5.70086   5.71385   5.75153   5.77707   5.78801
 Alpha virt. eigenvalues --    5.80604   5.85679   5.87680   5.92487   5.92987
 Alpha virt. eigenvalues --    5.99235   6.03272   6.09364   6.11313   6.15849
 Alpha virt. eigenvalues --    6.16748   6.19413   6.23898   6.28097   6.77858
 Alpha virt. eigenvalues --    7.02049
          Condensed to atoms (all electrons):
               1          2          3          4          5          6
     1  C    4.644203   0.311192  -0.052801  -0.002944  -0.001212   0.417090
     2  C    0.311192   4.656115   0.329892  -0.062340  -0.040724  -0.032686
     3  C   -0.052801   0.329892   4.921115   0.637581   0.422865  -0.002645
     4  C   -0.002944  -0.062340   0.637581   4.715802  -0.032755   0.001573
     5  H   -0.001212  -0.040724   0.422865  -0.032755   0.620739  -0.000264
     6  H    0.417090  -0.032686  -0.002645   0.001573  -0.000264   0.638660
     7  H    0.422310  -0.038792   0.013608  -0.000575  -0.000160  -0.024706
     8  H    0.424889  -0.032807  -0.010496   0.000579   0.002917  -0.028579
     9  H   -0.058914   0.439636  -0.044188  -0.001452  -0.003513   0.010717
    10  H   -0.034411   0.445232  -0.058275   0.000589   0.006230  -0.007402
    11  H    0.000245  -0.008088  -0.052712   0.434783   0.007876   0.000207
    12  H   -0.000870   0.009037  -0.041438   0.430268  -0.010151  -0.000168
               7          8          9         10         11         12
     1  C    0.422310   0.424889  -0.058914  -0.034411   0.000245  -0.000870
     2  C   -0.038792  -0.032807   0.439636   0.445232  -0.008088   0.009037
     3  C    0.013608  -0.010496  -0.044188  -0.058275  -0.052712  -0.041438
     4  C   -0.000575   0.000579  -0.001452   0.000589   0.434783   0.430268
     5  H   -0.000160   0.002917  -0.003513   0.006230   0.007876  -0.010151
     6  H   -0.024706  -0.028579   0.010717  -0.007402   0.000207  -0.000168
     7  H    0.634866  -0.025942  -0.005483  -0.006077  -0.000070   0.000069
     8  H   -0.025942   0.647665  -0.007614   0.010114  -0.000074   0.000020
     9  H   -0.005483  -0.007614   0.673558  -0.029954   0.000324  -0.000594
    10  H   -0.006077   0.010114  -0.029954   0.657982   0.003714   0.000345
    11  H   -0.000070  -0.000074   0.000324   0.003714   0.610720  -0.032953
    12  H    0.000069   0.000020  -0.000594   0.000345  -0.032953   0.600433
 Mulliken charges:
               1
     1  C   -0.068777
     2  C    0.024333
     3  C   -0.062505
     4  C   -0.121110
     5  H    0.028153
     6  H    0.028204
     7  H    0.030953
     8  H    0.019328
     9  H    0.027478
    10  H    0.011913
    11  H    0.036028
    12  H    0.046001
 Sum of Mulliken charges =  -0.00000
 Mulliken charges with hydrogens summed into heavy atoms:
               1
     1  C    0.009709
     2  C    0.063724
     3  C   -0.034352
     4  C   -0.039081
 Electronic spatial extent (au):  <R**2>=            368.5390
 Charge=             -0.0000 electrons
 Dipole moment (field-independent basis, Debye):
    X=              0.4041    Y=              0.0629    Z=              0.1046  Tot=              0.4221
 Quadrupole moment (field-independent basis, Debye-Ang):
   XX=            -27.0434   YY=            -26.7322   ZZ=            -27.7511
   XY=              0.5099   XZ=              0.8250   YZ=             -1.2474
 Traceless Quadrupole moment (field-independent basis, Debye-Ang):
   XX=              0.1322   YY=              0.4433   ZZ=             -0.5755
   XY=              0.5099   XZ=              0.8250   YZ=             -1.2474
 Octapole moment (field-independent basis, Debye-Ang**2):
  XXX=             -1.3202  YYY=              0.2160  ZZZ=              0.5400  XYY=             -0.0621
  XXY=             -0.6889  XXZ=             -1.5095  XZZ=              2.0502  YZZ=              0.3441
  YYZ=              0.4719  XYZ=              1.4355
 Hexadecapole moment (field-independent basis, Debye-Ang**3):
 XXXX=           -374.3859 YYYY=            -77.6505 ZZZZ=            -67.9821 XXXY=              9.0352
 XXXZ=              5.9182 YYYX=              0.0889 YYYZ=             -4.0033 ZZZX=              0.7029
 ZZZY=             -0.6253 XXYY=            -74.8711 XXZZ=            -78.7132 YYZZ=            -23.6551
 XXYZ=             -2.9426 YYXZ=              0.9671 ZZXY=             -0.7147
 N-N= 1.172264399060D+02 E-N=-5.983227442365D+02  KE= 1.565784324720D+02
 Calling FoFJK, ICntrl=      2127 FMM=F ISym2X=0 I1Cent= 0 IOpClX= 0 NMat=1 NMatS=1 NMatT=0.
 ***** Axes restored to original set *****
 -------------------------------------------------------------------
 Center     Atomic                   Forces (Hartrees/Bohr)
 Number     Number              X              Y              Z
 -------------------------------------------------------------------
      1        6          -0.000018895   -0.000005171    0.000003479
      2        6           0.000030967    0.000021252   -0.000004530
      3        6          -0.000044976   -0.000031893   -0.000012094
      4        6           0.000042480    0.000008940    0.000007958
      5        1           0.000004242    0.000001810    0.000001806
      6        1          -0.000011022    0.000001607   -0.000008259
      7        1           0.000005732    0.000007685    0.000003533
      8        1           0.000002561   -0.000006606    0.000007364
      9        1          -0.000006034   -0.000001454    0.000006940
     10        1          -0.000002904    0.000003669   -0.000011665
     11        1           0.000001394    0.000003262    0.000001042
     12        1          -0.000003544   -0.000003102    0.000004426
 -------------------------------------------------------------------
 Cartesian Forces:  Max     0.000044976 RMS     0.000014612

 GradGradGradGradGradGradGradGradGradGradGradGradGradGradGradGradGradGrad
 Berny optimization.
 FormGI is forming the generalized inverse of G from B-inverse, IUseBI=4.
 Internal  Forces:  Max     0.000038529 RMS     0.000009772
 Search for a local minimum.
 Step number   1 out of a maximum of   58
 All quantities printed in internal units (Hartrees-Bohrs-Radians)
 Mixed Optimization -- En-DIIS/RFO-DIIS
 Second derivative matrix not updated -- first step.
 ITU=  0
     Eigenvalues ---    0.00317   0.00775   0.01717   0.03051   0.03051
     Eigenvalues ---    0.04077   0.05421   0.05480   0.05486   0.09457
     Eigenvalues ---    0.12892   0.16000   0.16000   0.16000   0.16000
     Eigenvalues ---    0.16000   0.16000   0.21945   0.22000   0.29060
     Eigenvalues ---    0.32447   0.34230   0.34564   0.34646   0.34743
     Eigenvalues ---    0.34752   0.35124   0.35549   0.35790   0.60164
 RFO step:  Lambda=-2.01402449D-08 EMin= 3.16548632D-03
 Linear search not attempted -- first point.
 Iteration  1 RMS(Cart)=  0.00012474 RMS(Int)=  0.00000001
 Iteration  2 RMS(Cart)=  0.00000001 RMS(Int)=  0.00000000
 Variable       Old X    -DE/DX   Delta X   Delta X   Delta X     New X
                                 (Linear)    (Quad)   (Total)
    R1        2.89879  -0.00002   0.00000  -0.00006  -0.00006   2.89872
    R2        2.06080   0.00001   0.00000   0.00003   0.00003   2.06082
    R3        2.06094   0.00001   0.00000   0.00003   0.00003   2.06097
    R4        2.06253   0.00001   0.00000   0.00003   0.00003   2.06256
    R5        2.83333   0.00001   0.00000   0.00004   0.00004   2.83337
    R6        2.06944   0.00000   0.00000   0.00001   0.00001   2.06946
    R7        2.06389   0.00001   0.00000   0.00003   0.00003   2.06392
    R8        2.50810  -0.00004   0.00000  -0.00006  -0.00006   2.50804
    R9        2.05474  -0.00000   0.00000  -0.00000  -0.00000   2.05474
   R10        2.04793   0.00000   0.00000   0.00001   0.00001   2.04793
   R11        2.04411   0.00001   0.00000   0.00001   0.00001   2.04412
    A1        1.93709  -0.00001   0.00000  -0.00008  -0.00008   1.93700
    A2        1.93731  -0.00000   0.00000  -0.00003  -0.00003   1.93728
    A3        1.93953   0.00000   0.00000   0.00002   0.00002   1.93955
    A4        1.88715   0.00001   0.00000   0.00004   0.00004   1.88719
    A5        1.87972   0.00001   0.00000   0.00005   0.00005   1.87977
    A6        1.88067   0.00000   0.00000   0.00001   0.00001   1.88068
    A7        1.97008  -0.00002   0.00000  -0.00010  -0.00010   1.96998
    A8        1.89653   0.00001   0.00000   0.00009   0.00009   1.89662
    A9        1.91986   0.00000   0.00000  -0.00001  -0.00001   1.91985
   A10        1.90200   0.00000   0.00000  -0.00002  -0.00002   1.90198
   A11        1.91178   0.00000   0.00000  -0.00002  -0.00002   1.91176
   A12        1.86020   0.00000   0.00000   0.00007   0.00007   1.86027
   A13        2.19045  -0.00003   0.00000  -0.00013  -0.00013   2.19032
   A14        2.01880   0.00001   0.00000   0.00003   0.00003   2.01883
   A15        2.07390   0.00002   0.00000   0.00009   0.00009   2.07399
   A16        2.12132  -0.00000   0.00000  -0.00001  -0.00001   2.12131
   A17        2.12448  -0.00000   0.00000  -0.00002  -0.00002   2.12447
   A18        2.03738   0.00000   0.00000   0.00002   0.00002   2.03741
    D1        1.07855   0.00000   0.00000  -0.00009  -0.00009   1.07846
    D2       -3.09277  -0.00000   0.00000  -0.00012  -0.00012  -3.09289
    D3       -1.06249   0.00000   0.00000   0.00001   0.00001  -1.06248
    D4       -3.10543  -0.00000   0.00000  -0.00011  -0.00011  -3.10554
    D5       -0.99356  -0.00000   0.00000  -0.00014  -0.00014  -0.99371
    D6        1.03672   0.00000   0.00000  -0.00001  -0.00001   1.03671
    D7       -1.01277  -0.00000   0.00000  -0.00011  -0.00011  -1.01288
    D8        1.09910  -0.00000   0.00000  -0.00014  -0.00014   1.09896
    D9        3.12938   0.00000   0.00000  -0.00001  -0.00001   3.12937
   D10       -2.10696   0.00000   0.00000  -0.00016  -0.00016  -2.10711
   D11        1.02453   0.00000   0.00000  -0.00005  -0.00005   1.02448
   D12        2.06747  -0.00000   0.00000  -0.00019  -0.00019   2.06728
   D13       -1.08423   0.00000   0.00000  -0.00008  -0.00008  -1.08431
   D14        0.03859  -0.00000   0.00000  -0.00025  -0.00025   0.03834
   D15       -3.11312  -0.00000   0.00000  -0.00014  -0.00014  -3.11326
   D16       -0.00756  -0.00000   0.00000  -0.00000  -0.00000  -0.00756
   D17        3.13653   0.00000   0.00000   0.00013   0.00013   3.13665
   D18       -3.13875  -0.00000   0.00000  -0.00011  -0.00011  -3.13886
   D19        0.00534   0.00000   0.00000   0.00002   0.00002   0.00535
         Item               Value     Threshold  Converged?
 Maximum Force            0.000039     0.000450     YES
 RMS     Force            0.000010     0.000300     YES
 Maximum Displacement     0.000292     0.001800     YES
 RMS     Displacement     0.000125     0.001200     YES
 Predicted change in Energy=-1.007008D-08
 Optimization completed.
    -- Stationary point found.
                           ----------------------------
                           !   Optimized Parameters   !
                           ! (Angstroms and Degrees)  !
 --------------------------                            --------------------------
 ! Name  Definition              Value          Derivative Info.                !
 --------------------------------------------------------------------------------
 ! R1    R(1,2)                  1.534          -DE/DX =    0.0                 !
 ! R2    R(1,6)                  1.0905         -DE/DX =    0.0                 !
 ! R3    R(1,7)                  1.0906         -DE/DX =    0.0                 !
 ! R4    R(1,8)                  1.0914         -DE/DX =    0.0                 !
 ! R5    R(2,3)                  1.4993         -DE/DX =    0.0                 !
 ! R6    R(2,9)                  1.0951         -DE/DX =    0.0                 !
 ! R7    R(2,10)                 1.0922         -DE/DX =    0.0                 !
 ! R8    R(3,4)                  1.3272         -DE/DX =    0.0                 !
 ! R9    R(3,5)                  1.0873         -DE/DX =    0.0                 !
 ! R10   R(4,11)                 1.0837         -DE/DX =    0.0                 !
 ! R11   R(4,12)                 1.0817         -DE/DX =    0.0                 !
 ! A1    A(2,1,6)              110.9868         -DE/DX =    0.0                 !
 ! A2    A(2,1,7)              110.9997         -DE/DX =    0.0                 !
 ! A3    A(2,1,8)              111.1269         -DE/DX =    0.0                 !
 ! A4    A(6,1,7)              108.1257         -DE/DX =    0.0                 !
 ! A5    A(6,1,8)              107.7003         -DE/DX =    0.0                 !
 ! A6    A(7,1,8)              107.7547         -DE/DX =    0.0                 !
 ! A7    A(1,2,3)              112.8775         -DE/DX =    0.0                 !
 ! A8    A(1,2,9)              108.6634         -DE/DX =    0.0                 !
 ! A9    A(1,2,10)             109.9998         -DE/DX =    0.0                 !
 ! A10   A(3,2,9)              108.9766         -DE/DX =    0.0                 !
 ! A11   A(3,2,10)             109.5368         -DE/DX =    0.0                 !
 ! A12   A(9,2,10)             106.5814         -DE/DX =    0.0                 !
 ! A13   A(2,3,4)              125.5033         -DE/DX =    0.0                 !
 ! A14   A(2,3,5)              115.6685         -DE/DX =    0.0                 !
 ! A15   A(4,3,5)              118.8257         -DE/DX =    0.0                 !
 ! A16   A(3,4,11)             121.5425         -DE/DX =    0.0                 !
 ! A17   A(3,4,12)             121.7238         -DE/DX =    0.0                 !
 ! A18   A(11,4,12)            116.7335         -DE/DX =    0.0                 !
 ! D1    D(6,1,2,3)             61.7961         -DE/DX =    0.0                 !
 ! D2    D(6,1,2,9)           -177.2025         -DE/DX =    0.0                 !
 ! D3    D(6,1,2,10)           -60.8762         -DE/DX =    0.0                 !
 ! D4    D(7,1,2,3)           -177.9282         -DE/DX =    0.0                 !
 ! D5    D(7,1,2,9)            -56.9269         -DE/DX =    0.0                 !
 ! D6    D(7,1,2,10)            59.3995         -DE/DX =    0.0                 !
 ! D7    D(8,1,2,3)            -58.0275         -DE/DX =    0.0                 !
 ! D8    D(8,1,2,9)             62.9739         -DE/DX =    0.0                 !
 ! D9    D(8,1,2,10)           179.3002         -DE/DX =    0.0                 !
 ! D10   D(1,2,3,4)           -120.7197         -DE/DX =    0.0                 !
 ! D11   D(1,2,3,5)             58.7011         -DE/DX =    0.0                 !
 ! D12   D(9,2,3,4)            118.4572         -DE/DX =    0.0                 !
 ! D13   D(9,2,3,5)            -62.122          -DE/DX =    0.0                 !
 ! D14   D(10,2,3,4)             2.2108         -DE/DX =    0.0                 !
 ! D15   D(10,2,3,5)          -178.3684         -DE/DX =    0.0                 !
 ! D16   D(2,3,4,11)            -0.4332         -DE/DX =    0.0                 !
 ! D17   D(2,3,4,12)           179.7098         -DE/DX =    0.0                 !
 ! D18   D(5,3,4,11)          -179.8373         -DE/DX =    0.0                 !
 ! D19   D(5,3,4,12)             0.3057         -DE/DX =    0.0                 !
 --------------------------------------------------------------------------------
 GradGradGradGradGradGradGradGradGradGradGradGradGradGradGradGradGradGrad

                          Input orientation:                          
 ---------------------------------------------------------------------
 Center     Atomic      Atomic             Coordinates (Angstroms)
 Number     Number       Type             X           Y           Z
 ---------------------------------------------------------------------
      1          6           0        1.728805   -0.241870   -0.290396
      2          6           0        0.536306    0.516706    0.305911
      3          6           0       -0.721041   -0.299706    0.329480
      4          6           0       -1.859071    0.019988   -0.274032
      5          1           0       -0.667136   -1.231594    0.887106
      6          1           0        1.538570   -0.514235   -1.329085
      7          1           0        2.633769    0.365986   -0.259309
      8          1           0        1.926486   -1.161626    0.262979
      9          1           0        0.786798    0.814467    1.329551
     10          1           0        0.362697    1.438685   -0.253232
     11          1           0       -1.960815    0.936385   -0.843511
     12          1           0       -2.730367   -0.618776   -0.220272
 ---------------------------------------------------------------------
                    Distance matrix (angstroms):
                    1          2          3          4          5
     1  C    0.000000
     2  C    1.533973   0.000000
     3  C    2.527714   1.499335   0.000000
     4  C    3.597456   2.514139   1.327231   0.000000
     5  H    2.847209   2.200594   1.087321   2.082164   0.000000
     6  H    1.090526   2.177288   2.811175   3.597568   3.207997
     7  H    1.090603   2.177508   3.470529   4.506167   3.842200
     8  H    1.091445   2.179734   2.785090   4.001879   2.668577
     9  H    2.151152   1.095101   2.124877   3.194260   2.548734
    10  H    2.166079   1.092166   2.129799   2.636169   3.080798
    11  H    3.912482   2.780812   2.107337   1.083717   3.060845
    12  H    4.475622   3.498191   2.107469   1.081696   2.420486
                    6          7          8          9         10
     6  H    0.000000
     7  H    1.765976   0.000000
     8  H    1.761892   1.762564   0.000000
     9  H    3.065772   2.477279   2.518215   0.000000
    10  H    2.520721   2.511670   3.077910   1.753486   0.000000
    11  H    3.819133   4.666567   4.553798   3.505202   2.449376
    12  H    4.411827   5.453919   4.713226   4.102022   3.715007
                   11         12
    11  H    0.000000
    12  H    1.843682   0.000000
 Stoichiometry    C4H8
 Framework group  C1[X(C4H8)]
 Deg. of freedom    30
 Full point group                 C1      NOp   1
 Largest Abelian subgroup         C1      NOp   1
 Largest concise Abelian subgroup C1      NOp   1
                         Standard orientation:                         
 ---------------------------------------------------------------------
 Center     Atomic      Atomic             Coordinates (Angstroms)
 Number     Number       Type             X           Y           Z
 ---------------------------------------------------------------------
      1          6           0        1.728805   -0.241870   -0.290396
      2          6           0        0.536306    0.516706    0.305911
      3          6           0       -0.721041   -0.299706    0.329480
      4          6           0       -1.859071    0.019988   -0.274032
      5          1           0       -0.667136   -1.231594    0.887106
      6          1           0        1.538570   -0.514235   -1.329085
      7          1           0        2.633769    0.365986   -0.259309
      8          1           0        1.926486   -1.161626    0.262979
      9          1           0        0.786798    0.814467    1.329551
     10          1           0        0.362697    1.438685   -0.253232
     11          1           0       -1.960815    0.936385   -0.843511
     12          1           0       -2.730367   -0.618776   -0.220272
 ---------------------------------------------------------------------
 Rotational constants (GHZ):          23.0142143           4.1375994           4.0374209
 1\1\GINC-GAMBA\FOpt\RB3LYP\Gen\C4H8\IRIKURA\28-Sep-2023\0\\# b3lyp/gen
  opt freq CPHF(Grid=OneStep)\\1-butene, B3LYP/pcseg-2\\0,1\C,1.728805,
 -0.24187,-0.290396\C,0.536306,0.516706,0.305911\C,-0.721041,-0.299706,
 0.32948\C,-1.859071,0.019988,-0.274032\H,-0.667136,-1.231594,0.887106\
 H,1.53857,-0.514235,-1.329085\H,2.633769,0.365986,-0.259309\H,1.926486
 ,-1.161626,0.262979\H,0.786798,0.814467,1.329551\H,0.362697,1.438685,-
 0.253232\H,-1.960815,0.936385,-0.843511\H,-2.730367,-0.618776,-0.22027
 2\\Version=ES64L-G16RevB.01\State=1-A\HF=-157.2891863\RMSD=3.675e-09\R
 MSF=1.461e-05\Dipole=0.1589744,0.024757,0.0411705\Quadrupole=0.0982694
 ,0.3296127,-0.4278821,0.3790788,0.6133495,-0.9274181\PG=C01 [X(C4H8)]\
 \@


 I (ERNEST RUTHERFORD) CAME INTO THE ROOM, WHICH WAS HALF DARK, AND PRESENTLY
 SPOTTED LORD KELVIN IN THE AUDIENCE AND REALIZED I WAS IN TROUBLE AT
 THE LAST PART OF MY SPEECH DEALING THE AGE OF THE EARTH, WHERE MY VIEWS
 CONFLICTED WITH HIS.  TO MY RELIEF KELVIN FELL FAST ASLEEP, BUT AS I CAME
 TO THE IMPORTANT POINT, I SAW THE OLD BIRD SIT UP AND COCK A BALEFUL GLANCE
 AT ME! THEN A SUDDEN INSPIRATION CAME AND I SAID LORD KELVIN HAD LIMITED
 THE AGE OF THE EARTH PROVIDED NO NEW SOURCE WAS DISCOVERED. THAT
 PROPHETIC UTTERANCE REFERS TO WHAT WE ARE NOW CONSIDERING TONIGHT, RADIUM!
 BEHOLD!  THE OLD BOY BEAMED UPON ME.
 Job cpu time:       0 days  0 hours  2 minutes 59.3 seconds.
 Elapsed time:       0 days  0 hours  0 minutes 53.2 seconds.
 File lengths (MBytes):  RWF=     27 Int=      0 D2E=      0 Chk=      5 Scr=      1
 Normal termination of Gaussian 16 at Thu Sep 28 14:22:43 2023.
 Link1:  Proceeding to internal job step number  2.
 ------------------------------------------------------------------
 #N Geom=AllCheck Guess=TCheck SCRF=Check GenChk RB3LYP/ChkBas Freq
 ------------------------------------------------------------------
 1/10=4,29=7,30=1,38=1,40=1/1,3;
 2/12=2,40=1/2;
 3/5=7,6=2,11=2,14=-4,25=1,30=1,67=1,70=2,71=2,74=-5,82=7,116=1,140=1/1,2,3;
 4/5=101/1;
 5/5=2,38=6,98=1/2;
 8/6=4,10=90,11=11/1;
 11/6=1,8=1,9=11,15=111,16=1/1,2,10;
 10/6=1,60=-420/2;
 6/7=2,8=2,9=2,10=2,28=1/1;
 7/8=1,10=1,25=1/1,2,3,16;
 1/10=4,30=1/3;
 99//99;
 Structure from the checkpoint file:  "butene1.chk"
 -----------------------
 1-butene, B3LYP/pcseg-2
 -----------------------
 Charge =  0 Multiplicity = 1
 Redundant internal coordinates found in file.  (old form).
 C,0,1.728805,-0.24187,-0.290396
 C,0,0.536306,0.516706,0.305911
 C,0,-0.721041,-0.299706,0.32948
 C,0,-1.859071,0.019988,-0.274032
 H,0,-0.667136,-1.231594,0.887106
 H,0,1.53857,-0.514235,-1.329085
 H,0,2.633769,0.365986,-0.259309
 H,0,1.926486,-1.161626,0.262979
 H,0,0.786798,0.814467,1.329551
 H,0,0.362697,1.438685,-0.253232
 H,0,-1.960815,0.936385,-0.843511
 H,0,-2.730367,-0.618776,-0.220272
 Recover connectivity data from disk.

 GradGradGradGradGradGradGradGradGradGradGradGradGradGradGradGradGradGrad
 Berny optimization.
 Initialization pass.
                           ----------------------------
                           !    Initial Parameters    !
                           ! (Angstroms and Degrees)  !
 --------------------------                            --------------------------
 ! Name  Definition              Value          Derivative Info.                !
 --------------------------------------------------------------------------------
 ! R1    R(1,2)                  1.534          calculate D2E/DX2 analytically  !
 ! R2    R(1,6)                  1.0905         calculate D2E/DX2 analytically  !
 ! R3    R(1,7)                  1.0906         calculate D2E/DX2 analytically  !
 ! R4    R(1,8)                  1.0914         calculate D2E/DX2 analytically  !
 ! R5    R(2,3)                  1.4993         calculate D2E/DX2 analytically  !
 ! R6    R(2,9)                  1.0951         calculate D2E/DX2 analytically  !
 ! R7    R(2,10)                 1.0922         calculate D2E/DX2 analytically  !
 ! R8    R(3,4)                  1.3272         calculate D2E/DX2 analytically  !
 ! R9    R(3,5)                  1.0873         calculate D2E/DX2 analytically  !
 ! R10   R(4,11)                 1.0837         calculate D2E/DX2 analytically  !
 ! R11   R(4,12)                 1.0817         calculate D2E/DX2 analytically  !
 ! A1    A(2,1,6)              110.9868         calculate D2E/DX2 analytically  !
 ! A2    A(2,1,7)              110.9997         calculate D2E/DX2 analytically  !
 ! A3    A(2,1,8)              111.1269         calculate D2E/DX2 analytically  !
 ! A4    A(6,1,7)              108.1257         calculate D2E/DX2 analytically  !
 ! A5    A(6,1,8)              107.7003         calculate D2E/DX2 analytically  !
 ! A6    A(7,1,8)              107.7547         calculate D2E/DX2 analytically  !
 ! A7    A(1,2,3)              112.8775         calculate D2E/DX2 analytically  !
 ! A8    A(1,2,9)              108.6634         calculate D2E/DX2 analytically  !
 ! A9    A(1,2,10)             109.9998         calculate D2E/DX2 analytically  !
 ! A10   A(3,2,9)              108.9766         calculate D2E/DX2 analytically  !
 ! A11   A(3,2,10)             109.5368         calculate D2E/DX2 analytically  !
 ! A12   A(9,2,10)             106.5814         calculate D2E/DX2 analytically  !
 ! A13   A(2,3,4)              125.5033         calculate D2E/DX2 analytically  !
 ! A14   A(2,3,5)              115.6685         calculate D2E/DX2 analytically  !
 ! A15   A(4,3,5)              118.8257         calculate D2E/DX2 analytically  !
 ! A16   A(3,4,11)             121.5425         calculate D2E/DX2 analytically  !
 ! A17   A(3,4,12)             121.7238         calculate D2E/DX2 analytically  !
 ! A18   A(11,4,12)            116.7335         calculate D2E/DX2 analytically  !
 ! D1    D(6,1,2,3)             61.7961         calculate D2E/DX2 analytically  !
 ! D2    D(6,1,2,9)           -177.2025         calculate D2E/DX2 analytically  !
 ! D3    D(6,1,2,10)           -60.8762         calculate D2E/DX2 analytically  !
 ! D4    D(7,1,2,3)           -177.9282         calculate D2E/DX2 analytically  !
 ! D5    D(7,1,2,9)            -56.9269         calculate D2E/DX2 analytically  !
 ! D6    D(7,1,2,10)            59.3995         calculate D2E/DX2 analytically  !
 ! D7    D(8,1,2,3)            -58.0275         calculate D2E/DX2 analytically  !
 ! D8    D(8,1,2,9)             62.9739         calculate D2E/DX2 analytically  !
 ! D9    D(8,1,2,10)           179.3002         calculate D2E/DX2 analytically  !
 ! D10   D(1,2,3,4)           -120.7197         calculate D2E/DX2 analytically  !
 ! D11   D(1,2,3,5)             58.7011         calculate D2E/DX2 analytically  !
 ! D12   D(9,2,3,4)            118.4572         calculate D2E/DX2 analytically  !
 ! D13   D(9,2,3,5)            -62.122          calculate D2E/DX2 analytically  !
 ! D14   D(10,2,3,4)             2.2108         calculate D2E/DX2 analytically  !
 ! D15   D(10,2,3,5)          -178.3684         calculate D2E/DX2 analytically  !
 ! D16   D(2,3,4,11)            -0.4332         calculate D2E/DX2 analytically  !
 ! D17   D(2,3,4,12)           179.7098         calculate D2E/DX2 analytically  !
 ! D18   D(5,3,4,11)          -179.8373         calculate D2E/DX2 analytically  !
 ! D19   D(5,3,4,12)             0.3057         calculate D2E/DX2 analytically  !
 --------------------------------------------------------------------------------
 Trust Radius=3.00D-01 FncErr=1.00D-07 GrdErr=1.00D-07 EigMax=2.50D+02 EigMin=1.00D-04
 Number of steps in this run=      2 maximum allowed number of steps=      2.
 GradGradGradGradGradGradGradGradGradGradGradGradGradGradGradGradGradGrad

                          Input orientation:                          
 ---------------------------------------------------------------------
 Center     Atomic      Atomic             Coordinates (Angstroms)
 Number     Number       Type             X           Y           Z
 ---------------------------------------------------------------------
      1          6           0        1.728805   -0.241870   -0.290396
      2          6           0        0.536306    0.516706    0.305911
      3          6           0       -0.721041   -0.299706    0.329480
      4          6           0       -1.859071    0.019988   -0.274032
      5          1           0       -0.667136   -1.231594    0.887106
      6          1           0        1.538570   -0.514235   -1.329085
      7          1           0        2.633769    0.365986   -0.259309
      8          1           0        1.926486   -1.161626    0.262979
      9          1           0        0.786798    0.814467    1.329551
     10          1           0        0.362697    1.438685   -0.253232
     11          1           0       -1.960815    0.936385   -0.843511
     12          1           0       -2.730367   -0.618776   -0.220272
 ---------------------------------------------------------------------
                    Distance matrix (angstroms):
                    1          2          3          4          5
     1  C    0.000000
     2  C    1.533973   0.000000
     3  C    2.527714   1.499335   0.000000
     4  C    3.597456   2.514139   1.327231   0.000000
     5  H    2.847209   2.200594   1.087321   2.082164   0.000000
     6  H    1.090526   2.177288   2.811175   3.597568   3.207997
     7  H    1.090603   2.177508   3.470529   4.506167   3.842200
     8  H    1.091445   2.179734   2.785090   4.001879   2.668577
     9  H    2.151152   1.095101   2.124877   3.194260   2.548734
    10  H    2.166079   1.092166   2.129799   2.636169   3.080798
    11  H    3.912482   2.780812   2.107337   1.083717   3.060845
    12  H    4.475622   3.498191   2.107469   1.081696   2.420486
                    6          7          8          9         10
     6  H    0.000000
     7  H    1.765976   0.000000
     8  H    1.761892   1.762564   0.000000
     9  H    3.065772   2.477279   2.518215   0.000000
    10  H    2.520721   2.511670   3.077910   1.753486   0.000000
    11  H    3.819133   4.666567   4.553798   3.505202   2.449376
    12  H    4.411827   5.453919   4.713226   4.102022   3.715007
                   11         12
    11  H    0.000000
    12  H    1.843682   0.000000
 Stoichiometry    C4H8
 Framework group  C1[X(C4H8)]
 Deg. of freedom    30
 Full point group                 C1      NOp   1
 Largest Abelian subgroup         C1      NOp   1
 Largest concise Abelian subgroup C1      NOp   1
                         Standard orientation:                         
 ---------------------------------------------------------------------
 Center     Atomic      Atomic             Coordinates (Angstroms)
 Number     Number       Type             X           Y           Z
 ---------------------------------------------------------------------
      1          6           0        1.728805   -0.241870   -0.290396
      2          6           0        0.536306    0.516706    0.305911
      3          6           0       -0.721041   -0.299706    0.329480
      4          6           0       -1.859071    0.019988   -0.274032
      5          1           0       -0.667136   -1.231594    0.887106
      6          1           0        1.538570   -0.514235   -1.329085
      7          1           0        2.633769    0.365986   -0.259309
      8          1           0        1.926486   -1.161626    0.262979
      9          1           0        0.786798    0.814467    1.329551
     10          1           0        0.362697    1.438685   -0.253232
     11          1           0       -1.960815    0.936385   -0.843511
     12          1           0       -2.730367   -0.618776   -0.220272
 ---------------------------------------------------------------------
 Rotational constants (GHZ):          23.0142143           4.1375994           4.0374209
 Basis read from chk: "butene1.chk" (5D, 7F)
 There are   260 symmetry adapted cartesian basis functions of A   symmetry.
 There are   232 symmetry adapted basis functions of A   symmetry.
   232 basis functions,   348 primitive gaussians,   260 cartesian basis functions
    16 alpha electrons       16 beta electrons
       nuclear repulsion energy       117.2264399060 Hartrees.
 NAtoms=   12 NActive=   12 NUniq=   12 SFac= 1.00D+00 NAtFMM=   60 NAOKFM=F Big=F
 Integral buffers will be    131072 words long.
 Raffenetti 2 integral format.
 Two-electron integral symmetry is turned on.
 One-electron integrals computed using PRISM.
 NBasis=   232 RedAO= T EigKep=  2.89D-04  NBF=   232
 NBsUse=   232 1.00D-06 EigRej= -1.00D+00 NBFU=   232
 Initial guess from the checkpoint file:  "butene1.chk"
 B after Tr=     0.000000    0.000000    0.000000
         Rot=    1.000000   -0.000000    0.000000   -0.000000 Ang=   0.00 deg.
 Keep R1 ints in memory in canonical form, NReq=374160853.
 Requested convergence on RMS density matrix=1.00D-08 within 128 cycles.
 Requested convergence on MAX density matrix=1.00D-06.
 Requested convergence on             energy=1.00D-06.
 No special actions if energy rises.
 SCF Done:  E(RB3LYP) =  -157.289186255     A.U. after    1 cycles
            NFock=  1  Conv=0.15D-08     -V/T= 2.0045
 DoSCS=F DFT=T ScalE2(SS,OS)=  1.000000  1.000000
 Range of M.O.s used for correlation:     1   232
 NBasis=   232 NAE=    16 NBE=    16 NFC=     0 NFV=     0
 NROrb=    232 NOA=    16 NOB=    16 NVA=   216 NVB=   216

 **** Warning!!: The largest alpha MO coefficient is  0.16982673D+02

 Symmetrizing basis deriv contribution to polar:
 IMax=3 JMax=2 DiffMx= 0.00D+00
 G2DrvN: will do    13 centers at a time, making    1 passes.
 Calling FoFCou, ICntrl=  3107 FMM=F I1Cent=   0 AccDes= 0.00D+00.
 End of G2Drv F.D. properties file   721 does not exist.
 End of G2Drv F.D. properties file   722 does not exist.
 End of G2Drv F.D. properties file   788 does not exist.
          IDoAtm=111111111111
          Differentiating once with respect to electric field.
                with respect to dipole field.
          Differentiating once with respect to nuclear coordinates.
 Keep R1 ints in memory in canonical form, NReq=374168158.
          There are    39 degrees of freedom in the 1st order CPHF.  IDoFFX=6 NUNeed=     3.
     36 vectors produced by pass  0 Test12= 8.86D-15 2.56D-09 XBig12= 5.16D+01 5.22D+00.
 AX will form    36 AO Fock derivatives at one time.
     36 vectors produced by pass  1 Test12= 8.86D-15 2.56D-09 XBig12= 6.98D+00 6.99D-01.
     36 vectors produced by pass  2 Test12= 8.86D-15 2.56D-09 XBig12= 1.36D-01 8.27D-02.
     36 vectors produced by pass  3 Test12= 8.86D-15 2.56D-09 XBig12= 2.37D-04 2.55D-03.
     36 vectors produced by pass  4 Test12= 8.86D-15 2.56D-09 XBig12= 2.51D-07 7.58D-05.
     16 vectors produced by pass  5 Test12= 8.86D-15 2.56D-09 XBig12= 2.16D-10 1.84D-06.
      3 vectors produced by pass  6 Test12= 8.86D-15 2.56D-09 XBig12= 1.49D-13 3.89D-08.
 InvSVY:  IOpt=1 It=  1 EMax= 6.22D-15
 Solved reduced A of dimension   199 with    39 vectors.
 Isotropic polarizability for W=    0.000000       51.16 Bohr**3.
 End of Minotr F.D. properties file   721 does not exist.
 End of Minotr F.D. properties file   722 does not exist.
 End of Minotr F.D. properties file   788 does not exist.

 **********************************************************************

            Population analysis using the SCF Density.

 **********************************************************************

 Orbital symmetries:
       Occupied  (A) (A) (A) (A) (A) (A) (A) (A) (A) (A) (A) (A)
                 (A) (A) (A) (A)
       Virtual   (A) (A) (A) (A) (A) (A) (A) (A) (A) (A) (A) (A)
                 (A) (A) (A) (A) (A) (A) (A) (A) (A) (A) (A) (A)
                 (A) (A) (A) (A) (A) (A) (A) (A) (A) (A) (A) (A)
                 (A) (A) (A) (A) (A) (A) (A) (A) (A) (A) (A) (A)
                 (A) (A) (A) (A) (A) (A) (A) (A) (A) (A) (A) (A)
                 (A) (A) (A) (A) (A) (A) (A) (A) (A) (A) (A) (A)
                 (A) (A) (A) (A) (A) (A) (A) (A) (A) (A) (A) (A)
                 (A) (A) (A) (A) (A) (A) (A) (A) (A) (A) (A) (A)
                 (A) (A) (A) (A) (A) (A) (A) (A) (A) (A) (A) (A)
                 (A) (A) (A) (A) (A) (A) (A) (A) (A) (A) (A) (A)
                 (A) (A) (A) (A) (A) (A) (A) (A) (A) (A) (A) (A)
                 (A) (A) (A) (A) (A) (A) (A) (A) (A) (A) (A) (A)
                 (A) (A) (A) (A) (A) (A) (A) (A) (A) (A) (A) (A)
                 (A) (A) (A) (A) (A) (A) (A) (A) (A) (A) (A) (A)
                 (A) (A) (A) (A) (A) (A) (A) (A) (A) (A) (A) (A)
                 (A) (A) (A) (A) (A) (A) (A) (A) (A) (A) (A) (A)
                 (A) (A) (A) (A) (A) (A) (A) (A) (A) (A) (A) (A)
                 (A) (A) (A) (A) (A) (A) (A) (A) (A) (A) (A) (A)
 The electronic state is 1-A.
 Alpha  occ. eigenvalues --  -10.17365 -10.17317 -10.16320 -10.16143  -0.80266
 Alpha  occ. eigenvalues --   -0.73095  -0.63010  -0.55579  -0.47411  -0.44574
 Alpha  occ. eigenvalues --   -0.42872  -0.38582  -0.37714  -0.34687  -0.33790
 Alpha  occ. eigenvalues --   -0.26348
 Alpha virt. eigenvalues --    0.00073   0.02178   0.04052   0.04308   0.05585
 Alpha virt. eigenvalues --    0.08067   0.08922   0.09380   0.11007   0.13330
 Alpha virt. eigenvalues --    0.15664   0.16588   0.18408   0.20164   0.21661
 Alpha virt. eigenvalues --    0.23111   0.23866   0.25806   0.28461   0.30071
 Alpha virt. eigenvalues --    0.32459   0.33218   0.33847   0.34266   0.34595
 Alpha virt. eigenvalues --    0.35244   0.36019   0.37516   0.38711   0.39798
 Alpha virt. eigenvalues --    0.41636   0.47149   0.52160   0.54404   0.56185
 Alpha virt. eigenvalues --    0.58379   0.65145   0.71114   0.73215   0.77573
 Alpha virt. eigenvalues --    0.83252   0.84927   0.87828   0.91632   0.93207
 Alpha virt. eigenvalues --    0.94756   0.98190   0.98777   0.99732   1.00936
 Alpha virt. eigenvalues --    1.03002   1.04315   1.04962   1.08050   1.09509
 Alpha virt. eigenvalues --    1.11584   1.12286   1.14340   1.15790   1.19728
 Alpha virt. eigenvalues --    1.20407   1.22007   1.24099   1.27287   1.30761
 Alpha virt. eigenvalues --    1.31402   1.33359   1.35382   1.38513   1.43180
 Alpha virt. eigenvalues --    1.43758   1.47212   1.51130   1.54316   1.58739
 Alpha virt. eigenvalues --    1.62796   1.64761   1.66630   1.71531   1.73988
 Alpha virt. eigenvalues --    1.74653   1.77879   1.79935   1.82185   1.84798
 Alpha virt. eigenvalues --    1.86081   1.93506   1.94928   2.01644   2.04974
 Alpha virt. eigenvalues --    2.05350   2.09338   2.19895   2.27460   2.31260
 Alpha virt. eigenvalues --    2.37484   2.43139   2.47695   2.58588   2.62063
 Alpha virt. eigenvalues --    2.68110   2.79816   3.01904   3.03665   3.14944
 Alpha virt. eigenvalues --    3.15820   3.18957   3.23008   3.27449   3.27991
 Alpha virt. eigenvalues --    3.29776   3.34593   3.38597   3.39809   3.41779
 Alpha virt. eigenvalues --    3.44862   3.47185   3.52235   3.54820   3.59835
 Alpha virt. eigenvalues --    3.63389   3.67883   3.69577   3.74820   3.79918
 Alpha virt. eigenvalues --    3.81713   3.82806   3.85572   3.88018   3.91874
 Alpha virt. eigenvalues --    3.94027   3.96285   3.99462   4.01720   4.03118
 Alpha virt. eigenvalues --    4.04930   4.07641   4.10035   4.14640   4.18853
 Alpha virt. eigenvalues --    4.20884   4.22920   4.25788   4.26676   4.27754
 Alpha virt. eigenvalues --    4.29810   4.32567   4.33777   4.36164   4.36952
 Alpha virt. eigenvalues --    4.39895   4.40595   4.42472   4.46298   4.47502
 Alpha virt. eigenvalues --    4.49388   4.50831   4.52487   4.53515   4.56915
 Alpha virt. eigenvalues --    4.58612   4.58780   4.61373   4.64025   4.64578
 Alpha virt. eigenvalues --    4.65636   4.68286   4.73489   4.76344   4.77723
 Alpha virt. eigenvalues --    4.84465   4.85612   4.88193   4.92337   4.96359
 Alpha virt. eigenvalues --    5.00191   5.03588   5.07011   5.10123   5.12762
 Alpha virt. eigenvalues --    5.18026   5.19934   5.21583   5.28184   5.34942
 Alpha virt. eigenvalues --    5.36727   5.38988   5.41044   5.43796   5.48078
 Alpha virt. eigenvalues --    5.51666   5.54432   5.58210   5.61553   5.64906
 Alpha virt. eigenvalues --    5.70086   5.71385   5.75153   5.77707   5.78801
 Alpha virt. eigenvalues --    5.80604   5.85679   5.87680   5.92487   5.92987
 Alpha virt. eigenvalues --    5.99235   6.03272   6.09364   6.11313   6.15849
 Alpha virt. eigenvalues --    6.16748   6.19413   6.23898   6.28097   6.77858
 Alpha virt. eigenvalues --    7.02049
          Condensed to atoms (all electrons):
               1          2          3          4          5          6
     1  C    4.644202   0.311192  -0.052801  -0.002944  -0.001212   0.417090
     2  C    0.311192   4.656115   0.329892  -0.062340  -0.040724  -0.032686
     3  C   -0.052801   0.329892   4.921114   0.637581   0.422865  -0.002645
     4  C   -0.002944  -0.062340   0.637581   4.715803  -0.032755   0.001573
     5  H   -0.001212  -0.040724   0.422865  -0.032755   0.620739  -0.000264
     6  H    0.417090  -0.032686  -0.002645   0.001573  -0.000264   0.638660
     7  H    0.422310  -0.038792   0.013608  -0.000575  -0.000160  -0.024706
     8  H    0.424889  -0.032807  -0.010496   0.000579   0.002917  -0.028579
     9  H   -0.058914   0.439636  -0.044188  -0.001452  -0.003513   0.010717
    10  H   -0.034411   0.445232  -0.058275   0.000589   0.006230  -0.007402
    11  H    0.000245  -0.008088  -0.052712   0.434783   0.007876   0.000207
    12  H   -0.000870   0.009037  -0.041438   0.430268  -0.010151  -0.000168
               7          8          9         10         11         12
     1  C    0.422310   0.424889  -0.058914  -0.034411   0.000245  -0.000870
     2  C   -0.038792  -0.032807   0.439636   0.445232  -0.008088   0.009037
     3  C    0.013608  -0.010496  -0.044188  -0.058275  -0.052712  -0.041438
     4  C   -0.000575   0.000579  -0.001452   0.000589   0.434783   0.430268
     5  H   -0.000160   0.002917  -0.003513   0.006230   0.007876  -0.010151
     6  H   -0.024706  -0.028579   0.010717  -0.007402   0.000207  -0.000168
     7  H    0.634866  -0.025942  -0.005483  -0.006077  -0.000070   0.000069
     8  H   -0.025942   0.647665  -0.007614   0.010114  -0.000074   0.000020
     9  H   -0.005483  -0.007614   0.673558  -0.029954   0.000324  -0.000594
    10  H   -0.006077   0.010114  -0.029954   0.657982   0.003714   0.000345
    11  H   -0.000070  -0.000074   0.000324   0.003714   0.610720  -0.032953
    12  H    0.000069   0.000020  -0.000594   0.000345  -0.032953   0.600433
 Mulliken charges:
               1
     1  C   -0.068776
     2  C    0.024333
     3  C   -0.062505
     4  C   -0.121110
     5  H    0.028153
     6  H    0.028204
     7  H    0.030953
     8  H    0.019328
     9  H    0.027478
    10  H    0.011913
    11  H    0.036028
    12  H    0.046001
 Sum of Mulliken charges =  -0.00000
 Mulliken charges with hydrogens summed into heavy atoms:
               1
     1  C    0.009709
     2  C    0.063724
     3  C   -0.034352
     4  C   -0.039081
 APT charges:
               1
     1  C    0.084083
     2  C    0.095111
     3  C    0.050890
     4  C   -0.134940
     5  H    0.004115
     6  H   -0.018154
     7  H   -0.034475
     8  H   -0.021500
     9  H   -0.041726
[...]
                 (A) (A) (A) (A) (A) (A) (A) (A) (A) (A) (A) (A)
                 (A) (A) (A) (A) (A) (A) (A) (A) (A) (A) (A) (A)
                 (A) (A) (A) (A) (A) (A) (A) (A) (A) (A) (A) (A)
                 (A) (A) (A) (A) (A) (A) (A) (A) (A) (A) (A) (A)
                 (A) (A) (A) (A) (A) (A) (A) (A) (A) (A) (A) (A)
                 (A) (A) (A) (A) (A) (A) (A) (A) (A) (A) (A) (A)
                 (A) (A) (A) (A) (A) (A) (A) (A) (A) (A) (A) (A)
                 (A) (A) (A) (A) (A) (A) (A) (A) (A) (A) (A) (A)
                 (A) (A) (A) (A)
 The electronic state is 1-A.
 Alpha  occ. eigenvalues --  -11.22932 -11.22477 -11.21573 -11.21458  -1.07989
 Alpha  occ. eigenvalues --   -0.98925  -0.85659  -0.75503  -0.64252  -0.60684
 Alpha  occ. eigenvalues --   -0.58570  -0.53550  -0.51752  -0.48722  -0.47527
 Alpha  occ. eigenvalues --   -0.35982
 Alpha virt. eigenvalues --    0.05126   0.05188   0.05488   0.06175   0.08071
 Alpha virt. eigenvalues --    0.08922   0.09163   0.09498   0.10080   0.12003
 Alpha virt. eigenvalues --    0.12252   0.13450   0.14639   0.17756   0.18177
 Alpha virt. eigenvalues --    0.19381   0.20208   0.21913   0.23670   0.24037
 Alpha virt. eigenvalues --    0.25442   0.26158   0.27429   0.29001   0.29863
 Alpha virt. eigenvalues --    0.33414   0.35300   0.35857   0.36903   0.38101
 Alpha virt. eigenvalues --    0.38976   0.40635   0.43818   0.44908   0.46006
 Alpha virt. eigenvalues --    0.46554   0.47699   0.48267   0.49863   0.50689
 Alpha virt. eigenvalues --    0.51451   0.52063   0.53200   0.54803   0.55173
 Alpha virt. eigenvalues --    0.56083   0.56380   0.58311   0.59930   0.61446
 Alpha virt. eigenvalues --    0.62241   0.63445   0.66639   0.67407   0.69084
 Alpha virt. eigenvalues --    0.69483   0.70959   0.72683   0.73021   0.75075
 Alpha virt. eigenvalues --    0.76700   0.77868   0.80681   0.81640   0.84566
 Alpha virt. eigenvalues --    0.87881   0.88453   0.89703   0.90725   0.92742
 Alpha virt. eigenvalues --    0.93529   0.95298   0.95680   0.98600   0.99768
 Alpha virt. eigenvalues --    1.00422   1.01118   1.03256   1.03661   1.04762
 Alpha virt. eigenvalues --    1.06811   1.07267   1.10990   1.12006   1.14787
 Alpha virt. eigenvalues --    1.15762   1.16143   1.19372   1.21774   1.25005
 Alpha virt. eigenvalues --    1.27893   1.30650   1.33959   1.35905   1.36790
 Alpha virt. eigenvalues --    1.41639   1.45040   1.47609   1.48983   1.49818
 Alpha virt. eigenvalues --    1.51666   1.52362   1.55673   1.59167   1.60262
 Alpha virt. eigenvalues --    1.62033   1.63034   1.64987   1.66139   1.69418
 Alpha virt. eigenvalues --    1.70832   1.72318   1.73238   1.75133   1.77060
 Alpha virt. eigenvalues --    1.80196   1.80775   1.81427   1.83681   1.86225
 Alpha virt. eigenvalues --    1.86678   1.87555   1.89368   1.90335   1.90651
 Alpha virt. eigenvalues --    1.90816   1.91996   1.93100   1.94302   1.95783
 Alpha virt. eigenvalues --    1.96625   1.98036   1.98662   2.00070   2.00446
 Alpha virt. eigenvalues --    2.02376   2.04438   2.05069   2.07158   2.08692
 Alpha virt. eigenvalues --    2.09529   2.10674   2.11787   2.13693   2.15913
 Alpha virt. eigenvalues --    2.16113   2.20416   2.20749   2.22289   2.22862
 Alpha virt. eigenvalues --    2.26381   2.28208   2.29944   2.30147   2.31504
 Alpha virt. eigenvalues --    2.32773   2.35042   2.35318   2.36210   2.38700
 Alpha virt. eigenvalues --    2.39261   2.41980   2.43687   2.44124   2.48215
 Alpha virt. eigenvalues --    2.49307   2.51011   2.51977   2.54601   2.55752
 Alpha virt. eigenvalues --    2.57330   2.59401   2.61650   2.64268   2.64910
 Alpha virt. eigenvalues --    2.65924   2.71259   2.72533   2.73820   2.74170
 Alpha virt. eigenvalues --    2.77306   2.77790   2.81216   2.82134   2.84111
 Alpha virt. eigenvalues --    2.88500   2.89014   2.94025   2.96380   2.98195
 Alpha virt. eigenvalues --    3.01403   3.02999   3.05577   3.07818   3.12285
 Alpha virt. eigenvalues --    3.13862   3.14888   3.18815   3.21975   3.24873
 Alpha virt. eigenvalues --    3.26653   3.28229   3.30927   3.32628   3.34324
 Alpha virt. eigenvalues --    3.35051   3.36435   3.39057   3.45926   3.47436
 Alpha virt. eigenvalues --    3.47917   3.54805   3.56410   3.60763   3.61743
 Alpha virt. eigenvalues --    3.65606   3.67595   3.69615   3.72332   3.72781
 Alpha virt. eigenvalues --    3.81427   3.82810   3.89653   3.93482   3.97282
 Alpha virt. eigenvalues --    4.00787   4.04935   4.08301   4.20234   4.23352
 Alpha virt. eigenvalues --    4.32867   4.39565   4.60846   4.65879   4.68966
 Alpha virt. eigenvalues --    4.78561   4.83007   4.87410   4.87687   4.92177
 Alpha virt. eigenvalues --    4.95604   4.98462   5.00573   5.04085   5.07563
 Alpha virt. eigenvalues --    5.13750   5.16203   5.20034   5.24370   5.30440
 Alpha virt. eigenvalues --    5.39958   5.42813   5.43721   5.44931   5.50640
 Alpha virt. eigenvalues --    5.60471   5.62178   5.72838   5.77464   5.82315
 Alpha virt. eigenvalues --    5.85860   5.89883   5.95377   6.00357   6.03402
 Alpha virt. eigenvalues --    6.07428   6.11444   6.15230   6.17000   6.20646
 Alpha virt. eigenvalues --    6.22252   6.22936   6.23978   6.28896   6.30477
 Alpha virt. eigenvalues --    6.31616   6.35335   6.37356   6.40552   6.49998
 Alpha virt. eigenvalues --    6.51214   6.54803   6.61133   6.64529   6.81621
 Alpha virt. eigenvalues --    6.93572   7.03981   7.15011   7.19680   7.20672
 Alpha virt. eigenvalues --    7.24331   7.25290   7.27808   7.29554   7.37573
 Alpha virt. eigenvalues --    7.82843   8.18392   8.22971   8.29066   8.36968
 Alpha virt. eigenvalues --    8.38012   8.51061   8.55401   8.58270   8.63172
 Alpha virt. eigenvalues --    8.69931   8.71906   8.85203   8.93746   8.94886
 Alpha virt. eigenvalues --    8.99162   9.10554   9.21620   9.40350   9.41721
 Alpha virt. eigenvalues --    9.55096   9.59028   9.61351   9.66151   9.72433
 Alpha virt. eigenvalues --    9.76325   9.81678   9.98346  10.07040  20.76179
 Alpha virt. eigenvalues --   21.15941  21.47073  21.49867  21.62307  21.63338
 Alpha virt. eigenvalues --   21.65809  21.69313  21.78200  21.91056  22.11682
 Alpha virt. eigenvalues --   22.38030  23.12330  23.54717  23.75546  24.03719
          Condensed to atoms (all electrons):
               1          2          3          4          5          6
     1  C    4.898563   0.326799  -0.106313   0.004150  -0.001144   0.402454
     2  C    0.326799   4.828944   0.248145  -0.077214  -0.009290  -0.026913
     3  C   -0.106313   0.248145   5.144038   0.571760   0.410332  -0.003136
     4  C    0.004150  -0.077214   0.571760   4.992716  -0.020103   0.002195
     5  H   -0.001144  -0.009290   0.410332  -0.020103   0.471897  -0.000094
     6  H    0.402454  -0.026913  -0.003136   0.002195  -0.000094   0.606312
     7  H    0.424222  -0.041890   0.021099  -0.001890  -0.000112  -0.031519
     8  H    0.405421  -0.020348  -0.014413   0.002424   0.001675  -0.039560
     9  H   -0.052263   0.441068  -0.034109  -0.002413  -0.008235   0.010057
    10  H   -0.032737   0.442591  -0.058098   0.011640   0.004091  -0.007993
    11  H    0.001502  -0.005790  -0.040272   0.435531   0.002636   0.000045
    12  H   -0.000850   0.008771  -0.059070   0.446236  -0.003515  -0.000056
               7          8          9         10         11         12
     1  C    0.424222   0.405421  -0.052263  -0.032737   0.001502  -0.000850
     2  C   -0.041890  -0.020348   0.441068   0.442591  -0.005790   0.008771
     3  C    0.021099  -0.014413  -0.034109  -0.058098  -0.040272  -0.059070
     4  C   -0.001890   0.002424  -0.002413   0.011640   0.435531   0.446236
     5  H   -0.000112   0.001675  -0.008235   0.004091   0.002636  -0.003515
     6  H   -0.031519  -0.039560   0.010057  -0.007993   0.000045  -0.000056
     7  H    0.590197  -0.034492  -0.006910  -0.007646   0.000002   0.000035
     8  H   -0.034492   0.620978  -0.008918   0.007496  -0.000037  -0.000058
     9  H   -0.006910  -0.008918   0.622169  -0.036672   0.000227  -0.000340
    10  H   -0.007646   0.007496  -0.036672   0.605063   0.004138  -0.000364
    11  H    0.000002  -0.000037   0.000227   0.004138   0.486888  -0.017214
    12  H    0.000035  -0.000058  -0.000340  -0.000364  -0.017214   0.482739
          Atomic-Atomic Spin Densities.
               1          2          3          4          5          6
     1  C    0.000000   0.000000   0.000000   0.000000   0.000000   0.000000
     2  C    0.000000   0.000000   0.000000   0.000000   0.000000   0.000000
     3  C    0.000000   0.000000   0.000000   0.000000   0.000000   0.000000
     4  C    0.000000   0.000000   0.000000   0.000000   0.000000   0.000000
     5  H    0.000000   0.000000   0.000000   0.000000   0.000000   0.000000
     6  H    0.000000   0.000000   0.000000   0.000000   0.000000   0.000000
     7  H    0.000000   0.000000   0.000000   0.000000   0.000000   0.000000
     8  H    0.000000   0.000000   0.000000   0.000000   0.000000   0.000000
     9  H    0.000000   0.000000   0.000000   0.000000   0.000000   0.000000
    10  H    0.000000   0.000000   0.000000   0.000000   0.000000   0.000000
    11  H    0.000000   0.000000   0.000000   0.000000   0.000000   0.000000
    12  H    0.000000   0.000000   0.000000   0.000000   0.000000   0.000000
               7          8          9         10         11         12
     1  C    0.000000   0.000000   0.000000   0.000000   0.000000   0.000000
     2  C    0.000000   0.000000   0.000000   0.000000   0.000000   0.000000
     3  C    0.000000   0.000000   0.000000   0.000000   0.000000   0.000000
     4  C    0.000000   0.000000   0.000000   0.000000   0.000000   0.000000
     5  H    0.000000   0.000000   0.000000   0.000000   0.000000   0.000000
     6  H    0.000000   0.000000   0.000000   0.000000   0.000000   0.000000
     7  H    0.000000   0.000000   0.000000   0.000000   0.000000   0.000000
     8  H    0.000000   0.000000   0.000000   0.000000   0.000000   0.000000
     9  H    0.000000   0.000000   0.000000   0.000000   0.000000   0.000000
    10  H    0.000000   0.000000   0.000000   0.000000   0.000000   0.000000
    11  H    0.000000   0.000000   0.000000   0.000000   0.000000   0.000000
    12  H    0.000000   0.000000   0.000000   0.000000   0.000000   0.000000
 Mulliken charges and spin densities:
               1          2
     1  C   -0.269804   0.000000
     2  C   -0.114872   0.000000
     3  C   -0.079964   0.000000
     4  C   -0.365030   0.000000
     5  H    0.151863   0.000000
     6  H    0.088209   0.000000
     7  H    0.088906   0.000000
     8  H    0.079834   0.000000
     9  H    0.076338   0.000000
    10  H    0.068492   0.000000
    11  H    0.132343   0.000000
    12  H    0.143686   0.000000
 Sum of Mulliken charges =  -0.00000   0.00000
 Mulliken charges and spin densities with hydrogens summed into heavy atoms:
               1          2
     1  C   -0.012856   0.000000
     2  C    0.029958   0.000000
     3  C    0.071899   0.000000
     4  C   -0.089001   0.000000
 Electronic spatial extent (au):  <R**2>=            368.4240
 Charge=             -0.0000 electrons
 Dipole moment (field-independent basis, Debye):
    X=              0.4100    Y=              0.0638    Z=              0.1013  Tot=              0.4271
 Quadrupole moment (field-independent basis, Debye-Ang):
   XX=            -26.9216   YY=            -26.6616   ZZ=            -27.7888
   XY=              0.4761   XZ=              0.9580   YZ=             -1.3983
 Traceless Quadrupole moment (field-independent basis, Debye-Ang):
   XX=              0.2024   YY=              0.4624   ZZ=             -0.6648
   XY=              0.4761   XZ=              0.9580   YZ=             -1.3983
 Octapole moment (field-independent basis, Debye-Ang**2):
  XXX=             -1.4835  YYY=              0.2883  ZZZ=              0.4822  XYY=              0.0742
  XXY=             -0.6632  XXZ=             -1.9275  XZZ=              2.3387  YZZ=              0.3757
  YYZ=              0.4917  XYZ=              1.5944
 Hexadecapole moment (field-independent basis, Debye-Ang**3):
 XXXX=           -368.7913 YYYY=            -75.2758 ZZZZ=            -66.4817 XXXY=              9.1190
 XXXZ=              6.9093 YYYX=             -0.1639 YYYZ=             -4.4996 ZZZX=              0.9833
 ZZZY=             -0.8630 XXYY=            -73.7942 XXZZ=            -78.1124 YYZZ=            -22.9546
 XXYZ=             -3.1701 YYXZ=              1.0129 ZZXY=             -0.8370
 N-N= 1.172264399060D+02 E-N=-5.972744082868D+02  KE= 1.560253866680D+02
                          Isotropic Fermi Contact Couplings
        Atom                 a.u.       MegaHertz       Gauss      10(-4) cm-1
     1  C(13)              0.00000       0.00000       0.00000       0.00000
     2  C(13)              0.00000       0.00000       0.00000       0.00000
     3  C(13)              0.00000       0.00000       0.00000       0.00000
     4  C(13)              0.00000       0.00000       0.00000       0.00000
     5  H(1)               0.00000       0.00000       0.00000       0.00000
     6  H(1)               0.00000       0.00000       0.00000       0.00000
     7  H(1)               0.00000       0.00000       0.00000       0.00000
     8  H(1)               0.00000       0.00000       0.00000       0.00000
     9  H(1)               0.00000       0.00000       0.00000       0.00000
    10  H(1)               0.00000       0.00000       0.00000       0.00000
    11  H(1)               0.00000       0.00000       0.00000       0.00000
    12  H(1)               0.00000       0.00000       0.00000       0.00000
 --------------------------------------------------------
       Center         ----  Spin Dipole Couplings  ----
                      3XX-RR        3YY-RR        3ZZ-RR
 --------------------------------------------------------
     1   Atom        0.000000      0.000000      0.000000
     2   Atom        0.000000      0.000000      0.000000
     3   Atom        0.000000      0.000000      0.000000
     4   Atom        0.000000      0.000000      0.000000
     5   Atom        0.000000      0.000000      0.000000
     6   Atom        0.000000      0.000000      0.000000
     7   Atom        0.000000      0.000000      0.000000
     8   Atom        0.000000      0.000000      0.000000
     9   Atom        0.000000      0.000000      0.000000
    10   Atom        0.000000      0.000000      0.000000
    11   Atom        0.000000      0.000000      0.000000
    12   Atom        0.000000      0.000000      0.000000
 --------------------------------------------------------
                        XY            XZ            YZ
 --------------------------------------------------------
     1   Atom        0.000000      0.000000      0.000000
     2   Atom        0.000000      0.000000      0.000000
     3   Atom        0.000000      0.000000      0.000000
     4   Atom        0.000000      0.000000      0.000000
     5   Atom        0.000000      0.000000      0.000000
     6   Atom        0.000000      0.000000      0.000000
     7   Atom        0.000000      0.000000      0.000000
     8   Atom        0.000000      0.000000      0.000000
     9   Atom        0.000000      0.000000      0.000000
    10   Atom        0.000000      0.000000      0.000000
    11   Atom        0.000000      0.000000      0.000000
    12   Atom        0.000000      0.000000      0.000000
 --------------------------------------------------------


 ---------------------------------------------------------------------------------
              Anisotropic Spin Dipole Couplings in Principal Axis System
 ---------------------------------------------------------------------------------

       Atom             a.u.   MegaHertz   Gauss  10(-4) cm-1        Axes

              Baa     0.0000     0.000     0.000     0.000  1.0000  0.0000  0.0000
     1 C(13)  Bbb     0.0000     0.000     0.000     0.000 -0.0000  1.0000  0.0000
              Bcc     0.0000     0.000     0.000     0.000  0.0000  0.0000  1.0000
 
              Baa     0.0000     0.000     0.000     0.000  1.0000  0.0000  0.0000
     2 C(13)  Bbb     0.0000     0.000     0.000     0.000 -0.0000  1.0000  0.0000
              Bcc     0.0000     0.000     0.000     0.000  0.0000  0.0000  1.0000
 
              Baa     0.0000     0.000     0.000     0.000  1.0000  0.0000  0.0000
     3 C(13)  Bbb     0.0000     0.000     0.000     0.000 -0.0000  1.0000  0.0000
              Bcc     0.0000     0.000     0.000     0.000  0.0000  0.0000  1.0000
 
              Baa     0.0000     0.000     0.000     0.000  1.0000  0.0000  0.0000
     4 C(13)  Bbb     0.0000     0.000     0.000     0.000 -0.0000  1.0000  0.0000
              Bcc     0.0000     0.000     0.000     0.000  0.0000  0.0000  1.0000
 
              Baa     0.0000     0.000     0.000     0.000  1.0000  0.0000  0.0000
     5 H(1)   Bbb     0.0000     0.000     0.000     0.000 -0.0000  1.0000  0.0000
              Bcc     0.0000     0.000     0.000     0.000  0.0000  0.0000  1.0000
 
              Baa     0.0000     0.000     0.000     0.000  1.0000  0.0000  0.0000
     6 H(1)   Bbb     0.0000     0.000     0.000     0.000 -0.0000  1.0000  0.0000
              Bcc     0.0000     0.000     0.000     0.000  0.0000  0.0000  1.0000
 
              Baa     0.0000     0.000     0.000     0.000  1.0000  0.0000  0.0000
     7 H(1)   Bbb     0.0000     0.000     0.000     0.000 -0.0000  1.0000  0.0000
              Bcc     0.0000     0.000     0.000     0.000  0.0000  0.0000  1.0000
 
              Baa     0.0000     0.000     0.000     0.000  1.0000  0.0000  0.0000
     8 H(1)   Bbb     0.0000     0.000     0.000     0.000 -0.0000  1.0000  0.0000
              Bcc     0.0000     0.000     0.000     0.000  0.0000  0.0000  1.0000
 
              Baa     0.0000     0.000     0.000     0.000  1.0000  0.0000  0.0000
     9 H(1)   Bbb     0.0000     0.000     0.000     0.000 -0.0000  1.0000  0.0000
              Bcc     0.0000     0.000     0.000     0.000  0.0000  0.0000  1.0000
 
              Baa     0.0000     0.000     0.000     0.000  1.0000  0.0000  0.0000
    10 H(1)   Bbb     0.0000     0.000     0.000     0.000 -0.0000  1.0000  0.0000
              Bcc     0.0000     0.000     0.000     0.000  0.0000  0.0000  1.0000
 
              Baa     0.0000     0.000     0.000     0.000  1.0000  0.0000  0.0000
    11 H(1)   Bbb     0.0000     0.000     0.000     0.000 -0.0000  1.0000  0.0000
              Bcc     0.0000     0.000     0.000     0.000  0.0000  0.0000  1.0000
 
              Baa     0.0000     0.000     0.000     0.000  1.0000  0.0000  0.0000
    12 H(1)   Bbb     0.0000     0.000     0.000     0.000 -0.0000  1.0000  0.0000
              Bcc     0.0000     0.000     0.000     0.000  0.0000  0.0000  1.0000
 

 ---------------------------------------------------------------------------------

 1\1\GINC-GAMBA\SP\ROHF\Gen\C4H8\IRIKURA\28-Sep-2023\0\\# rohf/gen geom
 =check guess=check\\1-butene, ROHF/cc-pVTZ-F12\\0,1\C,0,1.728805,-0.24
 187,-0.290396\C,0,0.536306,0.516706,0.305911\C,0,-0.721041,-0.299706,0
 .32948\C,0,-1.859071,0.019988,-0.274032\H,0,-0.667136,-1.231594,0.8871
 06\H,0,1.53857,-0.514235,-1.329085\H,0,2.633769,0.365986,-0.259309\H,0
 ,1.926486,-1.161626,0.262979\H,0,0.786798,0.814467,1.329551\H,0,0.3626
 97,1.438685,-0.253232\H,0,-1.960815,0.936385,-0.843511\H,0,-2.730367,-
 0.618776,-0.220272\\Version=ES64L-G16RevB.01\State=1-A\HF=-156.1736004
 \RMSD=3.223e-09\Dipole=0.1612946,0.0251084,0.039868\Quadrupole=0.15049
 73,0.3437979,-0.4942952,0.3539941,0.7122741,-1.0396218\PG=C01 [X(C4H8)
 ]\\@


 A DANDELION FROM A LOVER MEANS MORE THAN AN ORCHID FROM A FRIEND.
 Job cpu time:       0 days  0 hours 11 minutes 19.9 seconds.
 Elapsed time:       0 days  0 hours  2 minutes 50.1 seconds.
 File lengths (MBytes):  RWF=     91 Int=      0 D2E=      0 Chk=     12 Scr=      1
 Normal termination of Gaussian 16 at Thu Sep 28 14:33:47 2023.
