 Entering Gaussian System, Link 0=g16
 AtFile(1): pcseg2.gbs
            -H     0
            S   4   1.00
                  0.754732D+02           0.427821D-02
                  0.113575D+02           0.328672D-01
                  0.260081D+01           0.159578D+00
                  0.735503D+00           0.500000D+00
            S   1   1.00
                  0.231761D+00           1.0000000
            S   1   1.00
                  0.741675D-01           1.0000000
            P   1   1.00
                  0.160000D+01           1.0000000
            P   1   1.00
                  0.450000D+00           1.0000000
            D   1   1.00
                  0.125000D+01           1.0000000
            ****
            -C     0
            S   7   1.00
                  0.731999D+04           0.695369D-03
                  0.109818D+04           0.537138D-02
                  0.250014D+03           0.274734D-01
                  0.707586D+02           0.105078D+00
                  0.228595D+02           0.291262D+00
                  0.803936D+01           0.500000D+00
                  0.289309D+01           0.362224D+00
            S   2   1.00
                  0.521640D+01          -0.957844D-01
                  0.556124D+00           0.500000D+00
            S   1   1.00
                  0.228813D+00           1.0000000
            S   1   1.00
                  0.936338D-01           1.0000000
            P   4   1.00
                  0.339855D+02           0.818395D-02
                  0.772957D+01           0.586921D-01
                  0.224954D+01           0.222514D+00
                  0.767681D+00           0.500000D+00
            P   1   1.00
                  0.263283D+00           1.0000000
            P   1   1.00
                  0.848744D-01           1.0000000
            D   1   1.00
                  0.140000D+01           1.0000000
            D   1   1.00
                  0.450000D+00           1.0000000
            F   1   1.00
                  0.950000D+00           1.0000000
            ****
            -O     0
            S   7   1.00
                  0.135887D+05           0.665492D-03
                  0.203847D+04           0.514222D-02
                  0.464041D+03           0.263472D-01
                  0.131339D+03           0.101500D+00
                  0.425340D+02           0.285877D+00
                  0.150429D+02           0.500000D+00
                  0.546616D+01           0.368211D+00
            S   2   1.00
                  0.100915D+02          -0.100084D+00
                  0.110429D+01           0.500000D+00
            S   1   1.00
                  0.448082D+00           1.0000000
            S   1   1.00
                  0.175325D+00           1.0000000
            P   4   1.00
                  0.608220D+02           0.908253D-02
                  0.140332D+02           0.645878D-01
                  0.418244D+01           0.241502D+00
                  0.142490D+01           0.500000D+00
            P   1   1.00
                  0.478741D+00           1.0000000
            P   1   1.00
                  0.146257D+00           1.0000000
            D   1   1.00
                  0.220000D+01           1.0000000
            D   1   1.00
                  0.650000D+00           1.0000000
            F   1   1.00
                  0.110000D+01           1.0000000
            ****
            -N     0
            S   7   1.00
                  0.101643D+05           0.682757D-03
                  0.152481D+04           0.527488D-02
                  0.347119D+03           0.270037D-01
                  0.982389D+02           0.103673D+00
                  0.317799D+02           0.289575D+00
                  0.112240D+02           0.500000D+00
                  0.406611D+01           0.364621D+00
            S   2   1.00
                  0.747898D+01          -0.975681D-01
                  0.805040D+00           0.500000D+00
            S   1   1.00
                  0.324626D+00           1.0000000
            S   1   1.00
                  0.128132D+00           1.0000000
            P   4   1.00
                  0.482704D+02           0.829547D-02
                  0.110815D+02           0.596223D-01
                  0.326643D+01           0.227889D+00
                  0.111680D+01           0.500000D+00
            P   1   1.00
                  0.382049D+00           1.0000000
            P   1   1.00
                  0.121222D+00           1.0000000
            D   1   1.00
                  0.180000D+01           1.0000000
            D   1   1.00
                  0.550000D+00           1.0000000
            F   1   1.00
                  0.102000D+01           1.0000000
            ****
            -F     0
            S   7   1.00
                  0.174507D+05           0.655972D-03
                  0.261768D+04           0.506944D-02
                  0.595857D+03           0.259899D-01
                  0.168651D+03           0.100353D+00
                  0.546654D+02           0.284095D+00
                  0.193717D+02           0.500000D+00
                  0.706202D+01           0.370721D+00
            S   2   1.00
                  0.131197D+02          -0.101997D+00
                  0.145046D+01           0.500000D+00
            S   1   1.00
                  0.588255D+00           1.0000000
            S   1   1.00
                  0.227960D+00           1.0000000
            P   4   1.00
                  0.779407D+02           0.931135D-02
                  0.180425D+02           0.663964D-01
                  0.542342D+01           0.246386D+00
                  0.184876D+01           0.500000D+00
            P   1   1.00
                  0.617455D+00           1.0000000
            P   1   1.00
                  0.185496D+00           1.0000000
            D   1   1.00
                  0.280000D+01           1.0000000
            D   1   1.00
                  0.800000D+00           1.0000000
            F   1   1.00
                  0.120000D+01           1.0000000
            ****
            -Cl     0
            S   8   1.00
                  0.154272D+06           0.222473D-03
                  0.231232D+05           0.172590D-02
                  0.526257D+04           0.899286D-02
                  0.148995D+04           0.367724D-01
                  0.485417D+03           0.121446D+00
                  0.174634D+03           0.304148D+00
                  0.672393D+02           0.500000D+00
                  0.265780D+02           0.360252D+00
            S   3   1.00
                  0.131826D+03          -0.531330D-01
                  0.400703D+02          -0.233346D+00
                  0.789448D+01           0.500000D+00
            S   2   1.00
                  0.427711D+01           0.500000D+00
                  0.196233D+01           0.370517D+00
            S   1   1.00
                  0.520793D+00           1.0000000
            S   1   1.00
                  0.181633D+00           1.0000000
            P   7   1.00
                  0.124440D+04           0.988206D-03
                  0.295109D+03           0.829674D-02
                  0.947224D+02           0.430906D-01
                  0.352588D+02           0.148443D+00
                  0.144211D+02           0.344744D+00
                  0.610371D+01           0.500000D+00
                  0.258886D+01           0.348278D+00
            P   2   1.00
                  0.109447D+02          -0.196768D-01
                  0.104413D+01           0.500000D+00
            P   1   1.00
                  0.376184D+00           1.0000000
            P   1   1.00
                  0.120613D+00           1.0000000
            D   1   1.00
                  0.231000D+01           1.0000000
            D   1   1.00
                  0.520000D+00           1.0000000
            F   1   1.00
                  0.720000D+00           1.0000000
            ****
            -S     0
            S   8   1.00
                  0.134700D+06           0.226231D-03
                  0.201904D+05           0.175488D-02
                  0.459528D+04           0.914190D-02
                  0.130109D+04           0.373551D-01
                  0.423902D+03           0.123121D+00
                  0.152485D+03           0.306801D+00
                  0.586925D+02           0.500000D+00
                  0.231461D+02           0.354358D+00
            S   3   1.00
                  0.116327D+03          -0.491772D-01
                  0.352841D+02          -0.215962D+00
                  0.677831D+01           0.500000D+00
            S   2   1.00
                  0.360404D+01           0.500000D+00
                  0.164871D+01           0.366278D+00
            S   1   1.00
                  0.421821D+00           1.0000000
            S   1   1.00
                  0.147554D+00           1.0000000
            P   7   1.00
                  0.104863D+04           0.105273D-02
                  0.248717D+03           0.879338D-02
                  0.797887D+02           0.453358D-01
                  0.296023D+02           0.154476D+00
                  0.120627D+02           0.352366D+00
                  0.507628D+01           0.500000D+00
                  0.213375D+01           0.346429D+00
            P   2   1.00
                  0.928958D+01          -0.185932D-01
                  0.837819D+00           0.500000D+00
            P   1   1.00
                  0.301495D+00           1.0000000
            P   1   1.00
                  0.974740D-01           1.0000000
            D   1   1.00
                  0.210000D+01           1.0000000
            D   1   1.00
                  0.480000D+00           1.0000000
            F   1   1.00
                  0.660000D+00           1.0000000
            ****
            -Si     0
            S    8   1.00
                  0.996133D+05           0.235546D-03
                  0.149311D+05           0.182707D-02
                  0.339820D+04           0.951425D-02
                  0.962140D+03           0.388172D-01
                  0.313430D+03           0.127328D+00
                  0.112683D+03           0.313522D+00
                  0.433372D+02           0.500000D+00
                  0.170029D+02           0.340347D+00
            S    3   1.00
                  0.884208D+02          -0.404451D-01
                  0.266756D+02          -0.178059D+00
                  0.479640D+01           0.500000D+00
            S    2   1.00
                  0.239385D+01           0.500000D+00
                  0.108333D+01           0.338016D+00
            S    1   1.00
                  0.252420D+00           1.0000000
            S    1   1.00
                  0.891210D-01           1.0000000
            P    7   1.00
                  0.709901D+03           0.123028D-02
                  0.168426D+03           0.101366D-01
                  0.539946D+02           0.511840D-01
                  0.198646D+02           0.169967D+00
                  0.801369D+01           0.370717D+00
                  0.331870D+01           0.500000D+00
                  0.136112D+01           0.344128D+00
            P    2   1.00
                  0.622158D+01          -0.166609D-01
                  0.503049D+00           0.500000D+00
            P    1   1.00
                  0.179848D+00           1.0000000
            P    1   1.00
                  0.591912D-01           1.0000000
            D    1   1.00
                  0.168000D+01           1.0000000
            D    1   1.00
                  0.380000D+00           1.0000000
            F    1   1.00
                  0.540000D+00           1.0000000
            ****
            -P     0
            S    8   1.00
                  0.116416D+06           0.230715D-03
                  0.174500D+05           0.178960D-02
                  0.397149D+04           0.932116D-02
                  0.112447D+04           0.380591D-01
                  0.366347D+03           0.125148D+00
                  0.131757D+03           0.310022D+00
                  0.506988D+02           0.500000D+00
                  0.199436D+02           0.347528D+00
            S    3   1.00
                  0.101878D+03          -0.446755D-01
                  0.308249D+02          -0.196376D+00
                  0.573688D+01           0.500000D+00
            S    2   1.00
                  0.296868D+01           0.500000D+00
                  0.135315D+01           0.355098D+00
            S    1   1.00
                  0.332196D+00           1.0000000
            S    1   1.00
                  0.116229D+00           1.0000000
            P    7   1.00
                  0.873928D+03           0.112375D-02
                  0.207298D+03           0.933330D-02
                  0.664628D+02           0.477213D-01
                  0.245665D+02           0.160733D+00
                  0.996820D+01           0.359760D+00
                  0.416536D+01           0.500000D+00
                  0.173022D+01           0.346593D+00
            P    2   1.00
                  0.772530D+01          -0.175718D-01
                  0.657252D+00           0.500000D+00
            P    1   1.00
                  0.239903D+00           1.0000000
            P    1   1.00
                  0.800988D-01           1.0000000
            D    1   1.00
                  0.189000D+01           1.0000000
            D    1   1.00
                  0.430000D+00           1.0000000
            F    1   1.00
                  0.600000D+00           1.0000000
            ****
            
 Initial command:
 /usr/local/apps/g16_b01_avx/g16/l1.exe "/wrk/irikura/Gau-23705.inp" -scrdir="/wrk/irikura/"
 Entering Link 1 = /usr/local/apps/g16_b01_avx/g16/l1.exe PID=     23707.
  
 Copyright (c) 1988-2017, Gaussian, Inc.  All Rights Reserved.
  
 This is part of the Gaussian(R) 16 program.  It is based on
 the Gaussian(R) 09 system (copyright 2009, Gaussian, Inc.),
 the Gaussian(R) 03 system (copyright 2003, Gaussian, Inc.),
 the Gaussian(R) 98 system (copyright 1998, Gaussian, Inc.),
 the Gaussian(R) 94 system (copyright 1995, Gaussian, Inc.),
 the Gaussian 92(TM) system (copyright 1992, Gaussian, Inc.),
 the Gaussian 90(TM) system (copyright 1990, Gaussian, Inc.),
 the Gaussian 88(TM) system (copyright 1988, Gaussian, Inc.),
 the Gaussian 86(TM) system (copyright 1986, Carnegie Mellon
 University), and the Gaussian 82(TM) system (copyright 1983,
 Carnegie Mellon University). Gaussian is a federally registered
 trademark of Gaussian, Inc.
  
 This software contains proprietary and confidential information,
 including trade secrets, belonging to Gaussian, Inc.
  
 This software is provided under written license and may be
 used, copied, transmitted, or stored only in accord with that
 written license.
  
 The following legend is applicable only to US Government
 contracts under FAR:
  
                    RESTRICTED RIGHTS LEGEND
  
 Use, reproduction and disclosure by the US Government is
 subject to restrictions as set forth in subparagraphs (a)
 and (c) of the Commercial Computer Software - Restricted
 Rights clause in FAR 52.227-19.
  
 Gaussian, Inc.
 340 Quinnipiac St., Bldg. 40, Wallingford CT 06492
  
  
 ---------------------------------------------------------------
 Warning -- This program may not be used in any manner that
 competes with the business of Gaussian, Inc. or will provide
 assistance to any competitor of Gaussian, Inc.  The licensee
 of this program is prohibited from giving any competitor of
 Gaussian, Inc. access to this program.  By using this program,
 the user acknowledges that Gaussian, Inc. is engaged in the
 business of creating and licensing software in the field of
 computational chemistry and represents and warrants to the
 licensee that it is not a competitor of Gaussian, Inc. and that
 it will not use this program in any manner prohibited above.
 ---------------------------------------------------------------
  

 Cite this work as:
 Gaussian 16, Revision B.01,
 M. J. Frisch, G. W. Trucks, H. B. Schlegel, G. E. Scuseria, 
 M. A. Robb, J. R. Cheeseman, G. Scalmani, V. Barone, 
 G. A. Petersson, H. Nakatsuji, X. Li, M. Caricato, A. V. Marenich, 
 J. Bloino, B. G. Janesko, R. Gomperts, B. Mennucci, H. P. Hratchian, 
 J. V. Ortiz, A. F. Izmaylov, J. L. Sonnenberg, D. Williams-Young, 
 F. Ding, F. Lipparini, F. Egidi, J. Goings, B. Peng, A. Petrone, 
 T. Henderson, D. Ranasinghe, V. G. Zakrzewski, J. Gao, N. Rega, 
 G. Zheng, W. Liang, M. Hada, M. Ehara, K. Toyota, R. Fukuda, 
 J. Hasegawa, M. Ishida, T. Nakajima, Y. Honda, O. Kitao, H. Nakai, 
 T. Vreven, K. Throssell, J. A. Montgomery, Jr., J. E. Peralta, 
 F. Ogliaro, M. J. Bearpark, J. J. Heyd, E. N. Brothers, K. N. Kudin, 
 V. N. Staroverov, T. A. Keith, R. Kobayashi, J. Normand, 
 K. Raghavachari, A. P. Rendell, J. C. Burant, S. S. Iyengar, 
 J. Tomasi, M. Cossi, J. M. Millam, M. Klene, C. Adamo, R. Cammi, 
 J. W. Ochterski, R. L. Martin, K. Morokuma, O. Farkas, 
 J. B. Foresman, and D. J. Fox, Gaussian, Inc., Wallingford CT, 2016.
 
 ******************************************
 Gaussian 16:  ES64L-G16RevB.01 20-Dec-2017
                25-Feb-2022 
 ******************************************
 %mem=500mw
 %nprocs=4
 Will use up to    4 processors via shared memory.
 --------------------
 # b3lyp/gen opt freq
 --------------------
 1/18=20,19=15,26=3,38=1/1,3;
 2/9=110,12=2,17=6,18=5,40=1/2;
 3/5=7,11=2,25=1,30=1,71=1,74=-5/1,2,3;
 4//1;
 5/5=2,38=5/2;
 6/7=2,8=2,9=2,10=2,28=1/1;
 7//1,2,3,16;
 1/18=20,19=15,26=3/3(2);
 2/9=110/2;
 99//99;
 2/9=110/2;
 3/5=7,6=1,11=2,25=1,30=1,71=1,74=-5,82=7/1,2,3;
 4/5=5,16=3,69=1/1;
 5/5=2,38=5/2;
 7//1,2,3,16;
 1/18=20,19=15,26=3/3(-5);
 2/9=110/2;
 6/7=2,8=2,9=2,10=2,19=2,28=1/1;
 99/9=1/99;
 --------------------------------
 difluoroacetylene, B3LYP/pcseg-2
 --------------------------------
 Symbolic Z-matrix:
 Charge =  0 Multiplicity = 1
 C                     0.        0.        0.59237 
 C                     0.        0.       -0.59237 
 F                     0.        0.        1.87871 
 F                     0.        0.       -1.87871 
 

 GradGradGradGradGradGradGradGradGradGradGradGradGradGradGradGradGradGrad
 Berny optimization.
 Initialization pass.
                           ----------------------------
                           !    Initial Parameters    !
                           ! (Angstroms and Degrees)  !
 --------------------------                            --------------------------
 ! Name  Definition              Value          Derivative Info.                !
 --------------------------------------------------------------------------------
 ! R1    R(1,2)                  1.1847         estimate D2E/DX2                !
 ! R2    R(1,3)                  1.2863         estimate D2E/DX2                !
 ! R3    R(2,4)                  1.2863         estimate D2E/DX2                !
 ! A1    L(2,1,3,-1,-1)        180.0            estimate D2E/DX2                !
 ! A2    L(1,2,4,-1,-1)        180.0            estimate D2E/DX2                !
 ! A3    L(2,1,3,-2,-2)        180.0            estimate D2E/DX2                !
 ! A4    L(1,2,4,-2,-2)        180.0            estimate D2E/DX2                !
 --------------------------------------------------------------------------------
 Trust Radius=3.00D-01 FncErr=1.00D-07 GrdErr=1.00D-06 EigMax=2.50D+02 EigMin=1.00D-04
 Number of steps in this run=     20 maximum allowed number of steps=    100.
 GradGradGradGradGradGradGradGradGradGradGradGradGradGradGradGradGradGrad

                          Input orientation:                          
 ---------------------------------------------------------------------
 Center     Atomic      Atomic             Coordinates (Angstroms)
 Number     Number       Type             X           Y           Z
 ---------------------------------------------------------------------
      1          6           0        0.000000    0.000000    0.592367
      2          6           0        0.000000    0.000000   -0.592367
      3          9           0        0.000000    0.000000    1.878706
      4          9           0        0.000000    0.000000   -1.878706
 ---------------------------------------------------------------------
                    Distance matrix (angstroms):
                    1          2          3          4
     1  C    0.000000
     2  C    1.184734   0.000000
     3  F    1.286339   2.471073   0.000000
     4  F    2.471073   1.286339   3.757412   0.000000
 Stoichiometry    C2F2
 Framework group  D*H[C*(FC.CF)]
 Deg. of freedom     2
 Full point group                 D*H     NOp   8
 Largest Abelian subgroup         D2H     NOp   8
 Largest concise Abelian subgroup C2      NOp   2
                         Standard orientation:                         
 ---------------------------------------------------------------------
 Center     Atomic      Atomic             Coordinates (Angstroms)
 Number     Number       Type             X           Y           Z
 ---------------------------------------------------------------------
      1          6           0        0.000000    0.000000    0.592367
      2          6           0        0.000000    0.000000   -0.592367
      3          9           0        0.000000    0.000000    1.878706
      4          9           0        0.000000    0.000000   -1.878706
 ---------------------------------------------------------------------
 Rotational constants (GHZ):           0.0000000           3.5457064           3.5457064
 General basis read from cards:  (5D, 7F)
 There are    32 symmetry adapted cartesian basis functions of AG  symmetry.
 There are     6 symmetry adapted cartesian basis functions of B1G symmetry.
 There are    16 symmetry adapted cartesian basis functions of B2G symmetry.
 There are    16 symmetry adapted cartesian basis functions of B3G symmetry.
 There are     6 symmetry adapted cartesian basis functions of AU  symmetry.
 There are    32 symmetry adapted cartesian basis functions of B1U symmetry.
 There are    16 symmetry adapted cartesian basis functions of B2U symmetry.
 There are    16 symmetry adapted cartesian basis functions of B3U symmetry.
 There are    26 symmetry adapted basis functions of AG  symmetry.
 There are     6 symmetry adapted basis functions of B1G symmetry.
 There are    14 symmetry adapted basis functions of B2G symmetry.
 There are    14 symmetry adapted basis functions of B3G symmetry.
 There are     6 symmetry adapted basis functions of AU  symmetry.
 There are    26 symmetry adapted basis functions of B1U symmetry.
 There are    14 symmetry adapted basis functions of B2U symmetry.
 There are    14 symmetry adapted basis functions of B3U symmetry.
   120 basis functions,   204 primitive gaussians,   140 cartesian basis functions
    15 alpha electrons       15 beta electrons
       nuclear repulsion energy        95.0449230364 Hartrees.
 NAtoms=    4 NActive=    4 NUniq=    2 SFac= 4.00D+00 NAtFMM=   60 NAOKFM=F Big=F
 Integral buffers will be    131072 words long.
 Raffenetti 2 integral format.
 Two-electron integral symmetry is turned on.
 One-electron integrals computed using PRISM.
 NBasis=   120 RedAO= T EigKep=  1.18D-04  NBF=    26     6    14    14     6    26    14    14
 NBsUse=   120 1.00D-06 EigRej= -1.00D+00 NBFU=    26     6    14    14     6    26    14    14
 ExpMin= 8.49D-02 ExpMax= 1.75D+04 ExpMxC= 5.96D+02 IAcc=3 IRadAn=         5 AccDes= 0.00D+00
 Harris functional with IExCor=  402 and IRadAn=       5 diagonalized for initial guess.
 HarFok:  IExCor=  402 AccDes= 0.00D+00 IRadAn=         5 IDoV= 1 UseB2=F ITyADJ=14
 ICtDFT=  3500011 ScaDFX=  1.000000  1.000000  1.000000  1.000000
 FoFCou: FMM=F IPFlag=           0 FMFlag=      100000 FMFlg1=           0
         NFxFlg=           0 DoJE=T BraDBF=F KetDBF=T FulRan=T
         wScrn=  0.000000 ICntrl=       500 IOpCl=  0 I1Cent=   200000004 NGrid=           0
         NMat0=    1 NMatS0=      1 NMatT0=    0 NMatD0=    1 NMtDS0=    0 NMtDT0=    0
 Petite list used in FoFCou.
 Initial guess orbital symmetries:
       Occupied  (SGU) (SGG) (SGG) (SGU) (SGG) (SGU) (SGG) (SGU)
                 (SGG) (PIU) (PIU) (PIG) (PIG) (PIU) (PIU)
       Virtual   (SGU) (SGG) (PIG) (PIG) (SGU) (PIU) (PIU) (SGG)
                 (PIG) (PIG) (SGG) (SGU) (PIU) (PIU) (SGG) (SGU)
                 (PIG) (PIG) (DLTG) (DLTG) (SGU) (SGG) (SGU) (PIU)
                 (PIU) (DLTU) (DLTU) (SGG) (PIU) (PIU) (PIG) (PIG)
                 (SGG) (PIG) (PIG) (SGU) (DLTG) (DLTG) (DLTU) (DLTU)
                 (SGU) (PIU) (PIU) (SGG) (SGU) (PIG) (PIG) (PIU)
                 (PIU) (SGG) (DLTG) (DLTG) (SGU) (PHIU) (PHIU)
                 (PIG) (PIG) (PHIG) (PHIG) (PIU) (PIU) (SGU) (DLTG)
                 (DLTG) (DLTU) (DLTU) (SGG) (SGG) (PIG) (PIG) (DLTU)
                 (DLTU) (PIU) (PIU) (PHIU) (PHIU) (PHIG) (PHIG)
                 (SGU) (DLTG) (DLTG) (SGU) (SGG) (PIG) (PIG) (DLTU)
                 (DLTU) (SGG) (PIU) (PIU) (PIG) (PIG) (SGU) (SGU)
                 (DLTG) (DLTG) (DLTU) (DLTU) (PIU) (PIU) (SGG)
                 (PIG) (PIG) (SGG) (SGU)
 The electronic state of the initial guess is 1-SGG.
 Keep R1 ints in memory in symmetry-blocked form, NReq=30252838.
 Requested convergence on RMS density matrix=1.00D-08 within 128 cycles.
 Requested convergence on MAX density matrix=1.00D-06.
 Requested convergence on             energy=1.00D-06.
 No special actions if energy rises.
 Integral accuracy reduced to 1.0D-05 until final iterations.
 Initial convergence to 1.0D-05 achieved.  Increase integral accuracy.
 SCF Done:  E(RB3LYP) =  -275.867768275     A.U. after   10 cycles
            NFock= 10  Conv=0.34D-08     -V/T= 2.0029

 **********************************************************************

            Population analysis using the SCF Density.

 **********************************************************************

 Orbital symmetries:
       Occupied  (SGU) (SGG) (SGG) (SGU) (SGG) (SGU) (SGG) (SGU)
                 (SGG) (PIU) (PIU) (PIG) (PIG) (PIU) (PIU)
       Virtual   (SGU) (SGG) (PIG) (PIG) (SGU) (PIU) (PIU) (SGG)
                 (PIG) (PIG) (SGG) (SGU) (PIU) (PIU) (SGG) (SGU)
                 (PIG) (PIG) (DLTG) (DLTG) (SGU) (SGG) (SGU) (PIU)
                 (PIU) (DLTU) (DLTU) (SGG) (PIU) (PIU) (PIG) (PIG)
                 (SGG) (PIG) (PIG) (SGU) (DLTG) (DLTG) (DLTU) (DLTU)
                 (SGU) (PIU) (PIU) (SGG) (SGU) (PIG) (PIG) (PIU)
                 (PIU) (SGG) (DLTG) (DLTG) (SGU) (PHIU) (PHIU)
                 (PIG) (PIG) (PHIG) (PHIG) (PIU) (PIU) (SGU) (DLTU)
                 (DLTU) (DLTG) (DLTG) (SGG) (PIG) (PIG) (SGG) (PIU)
                 (PIU) (DLTU) (DLTU) (PHIU) (PHIU) (PHIG) (PHIG)
                 (SGU) (DLTG) (DLTG) (SGU) (SGG) (PIG) (PIG) (DLTU)
                 (DLTU) (SGG) (PIU) (PIU) (PIG) (PIG) (SGU) (SGU)
                 (DLTG) (DLTG) (DLTU) (DLTU) (PIU) (PIU) (SGG)
                 (PIG) (PIG) (SGG) (SGU)
 The electronic state is 1-SGG.
 Alpha  occ. eigenvalues --  -24.76151 -24.76151 -10.28001 -10.27717  -1.30330
 Alpha  occ. eigenvalues --   -1.30197  -0.79602  -0.65369  -0.62408  -0.53878
 Alpha  occ. eigenvalues --   -0.53878  -0.51800  -0.51800  -0.29701  -0.29701
 Alpha virt. eigenvalues --    0.00905   0.03003   0.07313   0.07313   0.14656
 Alpha virt. eigenvalues --    0.15064   0.15064   0.20751   0.23596   0.23596
 Alpha virt. eigenvalues --    0.29047   0.35300   0.50449   0.50449   0.51210
 Alpha virt. eigenvalues --    0.61339   0.63749   0.63749   0.77024   0.77024
 Alpha virt. eigenvalues --    0.89603   0.89832   0.98378   1.01281   1.01281
 Alpha virt. eigenvalues --    1.09786   1.09786   1.19046   1.21386   1.21386
 Alpha virt. eigenvalues --    1.25013   1.25013   1.58383   1.61149   1.61149
 Alpha virt. eigenvalues --    1.61932   1.77930   1.77930   1.88178   1.88178
 Alpha virt. eigenvalues --    2.22495   2.25334   2.25334   2.31917   2.49281
 Alpha virt. eigenvalues --    2.61329   2.61329   2.87211   2.87211   2.93884
 Alpha virt. eigenvalues --    3.04590   3.04590   3.06130   3.11206   3.11206
 Alpha virt. eigenvalues --    3.25179   3.25179   3.50042   3.50042   3.62980
 Alpha virt. eigenvalues --    3.62980   3.63132   3.86095   3.86095   3.86224
 Alpha virt. eigenvalues --    3.86224   3.92682   3.97520   3.97520   4.01082
 Alpha virt. eigenvalues --    4.03778   4.03778   4.04828   4.04828   4.33549
 Alpha virt. eigenvalues --    4.33549   4.34995   4.34995   4.57460   4.62117
 Alpha virt. eigenvalues --    4.62117   4.72188   4.89519   5.05778   5.05778
 Alpha virt. eigenvalues --    5.08558   5.08558   5.56791   5.80857   5.80857
 Alpha virt. eigenvalues --    5.85201   5.85201   5.98594   6.64946   7.47899
 Alpha virt. eigenvalues --    7.47899   7.50292   7.50292   7.93433   7.93433
 Alpha virt. eigenvalues --    8.00945   8.11785   8.11785   8.19460   8.47179
          Condensed to atoms (all electrons):
               1          2          3          4
     1  C    4.614140   1.002628   0.219967  -0.033678
     2  C    1.002628   4.614140  -0.033678   0.219967
     3  F    0.219967  -0.033678   9.009965   0.000688
     4  F   -0.033678   0.219967   0.000688   9.009965
 Mulliken charges:
               1
     1  C    0.196942
     2  C    0.196942
     3  F   -0.196942
     4  F   -0.196942
 Sum of Mulliken charges =  -0.00000
 Mulliken charges with hydrogens summed into heavy atoms:
               1
     1  C    0.196942
     2  C    0.196942
     3  F   -0.196942
     4  F   -0.196942
 Electronic spatial extent (au):  <R**2>=            288.1258
 Charge=             -0.0000 electrons
 Dipole moment (field-independent basis, Debye):
    X=             -0.0000    Y=             -0.0000    Z=              0.0000  Tot=              0.0000
 Quadrupole moment (field-independent basis, Debye-Ang):
   XX=            -20.4387   YY=            -20.4387   ZZ=            -21.2809
   XY=              0.0000   XZ=              0.0000   YZ=              0.0000
 Traceless Quadrupole moment (field-independent basis, Debye-Ang):
   XX=              0.2807   YY=              0.2807   ZZ=             -0.5615
   XY=              0.0000   XZ=              0.0000   YZ=              0.0000
 Octapole moment (field-independent basis, Debye-Ang**2):
  XXX=             -0.0000  YYY=              0.0000  ZZZ=             -0.0000  XYY=             -0.0000
  XXY=              0.0000  XXZ=              0.0000  XZZ=             -0.0000  YZZ=              0.0000
  YYZ=             -0.0000  XYZ=              0.0000
 Hexadecapole moment (field-independent basis, Debye-Ang**3):
 XXXX=            -18.9269 YYYY=            -18.9269 ZZZZ=           -246.1887 XXXY=              0.0000
 XXXZ=              0.0000 YYYX=              0.0000 YYYZ=              0.0000 ZZZX=              0.0000
 ZZZY=              0.0000 XXYY=             -6.3090 XXZZ=            -42.4125 YYZZ=            -42.4125
 XXYZ=              0.0000 YYXZ=              0.0000 ZZXY=             -0.0000
 N-N= 9.504492303639D+01 E-N=-8.435448147052D+02  KE= 2.750582612524D+02
 Symmetry AG   KE= 1.240939668271D+02
 Symmetry B1G  KE= 2.258374064511D-33
 Symmetry B2G  KE= 6.171815603467D+00
 Symmetry B3G  KE= 6.171815603467D+00
 Symmetry AU   KE= 5.291340476864D-33
 Symmetry B1U  KE= 1.200399674846D+02
 Symmetry B2U  KE= 9.290347866877D+00
 Symmetry B3U  KE= 9.290347866877D+00
 Calling FoFJK, ICntrl=      2127 FMM=F ISym2X=1 I1Cent= 0 IOpClX= 0 NMat=1 NMatS=1 NMatT=0.
 ***** Axes restored to original set *****
 -------------------------------------------------------------------
 Center     Atomic                   Forces (Hartrees/Bohr)
 Number     Number              X              Y              Z
 -------------------------------------------------------------------
      1        6           0.000000000    0.000000000   -0.002701242
      2        6           0.000000000    0.000000000    0.002701242
      3        9          -0.000000000   -0.000000000   -0.001451082
      4        9          -0.000000000   -0.000000000    0.001451082
 -------------------------------------------------------------------
 Cartesian Forces:  Max     0.002701242 RMS     0.001251822

 GradGradGradGradGradGradGradGradGradGradGradGradGradGradGradGradGradGrad
 Berny optimization.
 FormGI is forming the generalized inverse of G from B-inverse, IUseBI=4.
 Internal  Forces:  Max     0.004152324 RMS     0.001750636
 Search for a local minimum.
 Step number   1 out of a maximum of   20
 All quantities printed in internal units (Hartrees-Bohrs-Radians)
 Mixed Optimization -- RFO/linear search
 Second derivative matrix not updated -- first step.
 The second derivative matrix:
                          R1        R2        R3        A1        A2
           R1           1.12884
           R2           0.00000   0.71134
           R3           0.00000   0.00000   0.71134
           A1           0.00000   0.00000   0.00000   0.02931
           A2           0.00000   0.00000   0.00000   0.00000   0.02931
           A3           0.00000   0.00000   0.00000   0.00000   0.00000
           A4           0.00000   0.00000   0.00000   0.00000   0.00000
                          A3        A4
           A3           0.02931
           A4           0.00000   0.02931
 ITU=  0
     Eigenvalues ---    0.02931   0.02931   0.02931   0.02931   0.71134
     Eigenvalues ---    0.71134   1.12884
 RFO step:  Lambda=-2.11940983D-05 EMin= 2.93064723D-02
 Linear search not attempted -- first point.
 Iteration  1 RMS(Cart)=  0.00229467 RMS(Int)=  0.00000000
 Iteration  2 RMS(Cart)=  0.00000000 RMS(Int)=  0.00000000
 ClnCor:  largest displacement from symmetrization is 2.49D-13 for atom     1.
 Variable       Old X    -DE/DX   Delta X   Delta X   Delta X     New X
                                 (Linear)    (Quad)   (Total)
    R1        2.23882  -0.00415   0.00000  -0.00368  -0.00368   2.23514
    R2        2.43083  -0.00145   0.00000  -0.00204  -0.00204   2.42879
    R3        2.43083  -0.00145   0.00000  -0.00204  -0.00204   2.42879
    A1        3.14159  -0.00000   0.00000  -0.00000   0.00000   3.14159
    A2        3.14159   0.00000   0.00000   0.00000   0.00000   3.14159
    A3        3.14159   0.00000   0.00000   0.00000   0.00000   3.14159
    A4        3.14159  -0.00000   0.00000  -0.00000   0.00000   3.14159
         Item               Value     Threshold  Converged?
 Maximum Force            0.004152     0.000450     NO 
 RMS     Force            0.001751     0.000300     NO 
 Maximum Displacement     0.003879     0.001800     NO 
 RMS     Displacement     0.002295     0.001200     NO 
 Predicted change in Energy=-1.059705D-05
 GradGradGradGradGradGradGradGradGradGradGradGradGradGradGradGradGradGrad

                          Input orientation:                          
 ---------------------------------------------------------------------
 Center     Atomic      Atomic             Coordinates (Angstroms)
 Number     Number       Type             X           Y           Z
 ---------------------------------------------------------------------
      1          6           0        0.000000    0.000000    0.591394
      2          6           0        0.000000    0.000000   -0.591394
      3          9           0        0.000000    0.000000    1.876653
      4          9           0        0.000000    0.000000   -1.876653
 ---------------------------------------------------------------------
                    Distance matrix (angstroms):
                    1          2          3          4
     1  C    0.000000
     2  C    1.182788   0.000000
     3  F    1.285260   2.468047   0.000000
     4  F    2.468047   1.285260   3.753307   0.000000
 Stoichiometry    C2F2
 Framework group  D*H[C*(FC.CF)]
 Deg. of freedom     2
 Full point group                 D*H     NOp   8
 Largest Abelian subgroup         D2H     NOp   8
 Largest concise Abelian subgroup C2      NOp   2
                         Standard orientation:                         
 ---------------------------------------------------------------------
 Center     Atomic      Atomic             Coordinates (Angstroms)
 Number     Number       Type             X           Y           Z
 ---------------------------------------------------------------------
      1          6           0        0.000000    0.000000    0.591394
      2          6           0        0.000000    0.000000   -0.591394
      3          9           0        0.000000    0.000000    1.876653
      4          9           0        0.000000    0.000000   -1.876653
 ---------------------------------------------------------------------
 Rotational constants (GHZ):           0.0000000           3.5536985           3.5536985
 Basis read from rwf:  (5D, 7F)
 There are    32 symmetry adapted cartesian basis functions of AG  symmetry.
 There are     6 symmetry adapted cartesian basis functions of B1G symmetry.
 There are    16 symmetry adapted cartesian basis functions of B2G symmetry.
 There are    16 symmetry adapted cartesian basis functions of B3G symmetry.
 There are     6 symmetry adapted cartesian basis functions of AU  symmetry.
 There are    32 symmetry adapted cartesian basis functions of B1U symmetry.
 There are    16 symmetry adapted cartesian basis functions of B2U symmetry.
 There are    16 symmetry adapted cartesian basis functions of B3U symmetry.
 There are    26 symmetry adapted basis functions of AG  symmetry.
 There are     6 symmetry adapted basis functions of B1G symmetry.
 There are    14 symmetry adapted basis functions of B2G symmetry.
 There are    14 symmetry adapted basis functions of B3G symmetry.
 There are     6 symmetry adapted basis functions of AU  symmetry.
 There are    26 symmetry adapted basis functions of B1U symmetry.
 There are    14 symmetry adapted basis functions of B2U symmetry.
 There are    14 symmetry adapted basis functions of B3U symmetry.
   120 basis functions,   204 primitive gaussians,   140 cartesian basis functions
    15 alpha electrons       15 beta electrons
       nuclear repulsion energy        95.1495337962 Hartrees.
 NAtoms=    4 NActive=    4 NUniq=    2 SFac= 4.00D+00 NAtFMM=   60 NAOKFM=F Big=F
 Integral buffers will be    131072 words long.
 Raffenetti 2 integral format.
 Two-electron integral symmetry is turned on.
 One-electron integrals computed using PRISM.
 NBasis=   120 RedAO= T EigKep=  1.17D-04  NBF=    26     6    14    14     6    26    14    14
 NBsUse=   120 1.00D-06 EigRej= -1.00D+00 NBFU=    26     6    14    14     6    26    14    14
 Initial guess from the checkpoint file:  "/wrk/irikura/Gau-23707.chk"
 B after Tr=    -0.000000    0.000000    0.000000
         Rot=    1.000000    0.000000    0.000000    0.000000 Ang=   0.00 deg.
 Initial guess orbital symmetries:
       Occupied  (SGU) (SGG) (SGG) (SGU) (SGG) (SGU) (SGG) (SGU)
                 (SGG) (PIU) (PIU) (PIG) (PIG) (PIU) (PIU)
       Virtual   (SGU) (SGG) (PIG) (PIG) (SGU) (PIU) (PIU) (SGG)
                 (PIG) (PIG) (SGG) (SGU) (PIU) (PIU) (SGG) (SGU)
                 (PIG) (PIG) (DLTG) (DLTG) (SGU) (SGG) (SGU) (PIU)
                 (PIU) (DLTU) (DLTU) (SGG) (PIU) (PIU) (PIG) (PIG)
                 (SGG) (PIG) (PIG) (SGU) (DLTG) (DLTG) (DLTU) (DLTU)
                 (SGU) (PIU) (PIU) (SGG) (SGU) (PIG) (PIG) (PIU)
                 (PIU) (SGG) (DLTG) (DLTG) (SGU) (PHIU) (PHIU)
                 (PIG) (PIG) (PHIG) (PHIG) (PIU) (PIU) (SGU) (DLTU)
                 (DLTU) (DLTG) (DLTG) (SGG) (PIG) (PIG) (SGG) (PIU)
                 (PIU) (DLTU) (DLTU) (PHIU) (PHIU) (PHIG) (PHIG)
                 (SGU) (DLTG) (DLTG) (SGU) (SGG) (PIG) (PIG) (DLTU)
                 (DLTU) (SGG) (PIU) (PIU) (PIG) (PIG) (SGU) (SGU)
                 (DLTG) (DLTG) (DLTU) (DLTU) (PIU) (PIU) (SGG)
                 (PIG) (PIG) (SGG) (SGU)
 Keep R1 ints in memory in symmetry-blocked form, NReq=30252838.
 Requested convergence on RMS density matrix=1.00D-08 within 128 cycles.
 Requested convergence on MAX density matrix=1.00D-06.
 Requested convergence on             energy=1.00D-06.
 No special actions if energy rises.
 SCF Done:  E(RB3LYP) =  -275.867778913     A.U. after    6 cycles
            NFock=  6  Conv=0.63D-08     -V/T= 2.0029
 Calling FoFJK, ICntrl=      2127 FMM=F ISym2X=1 I1Cent= 0 IOpClX= 0 NMat=1 NMatS=1 NMatT=0.
 ***** Axes restored to original set *****
 -------------------------------------------------------------------
 Center     Atomic                   Forces (Hartrees/Bohr)
 Number     Number              X              Y              Z
 -------------------------------------------------------------------
      1        6           0.000000000    0.000000000    0.000502453
      2        6           0.000000000    0.000000000   -0.000502453
      3        9          -0.000000000   -0.000000000   -0.000244410
      4        9          -0.000000000   -0.000000000    0.000244410
 -------------------------------------------------------------------
 Cartesian Forces:  Max     0.000502453 RMS     0.000228106

 GradGradGradGradGradGradGradGradGradGradGradGradGradGradGradGradGradGrad
 Berny optimization.
 Using GEDIIS/GDIIS optimizer.
 Internal  Forces:  Max     0.000258042 RMS     0.000163033
 Search for a local minimum.
 Step number   2 out of a maximum of   20
 All quantities printed in internal units (Hartrees-Bohrs-Radians)
 Mixed Optimization -- En-DIIS/RFO-DIIS
 Update second derivatives using D2CorX and points    1    2
 DE= -1.06D-05 DEPred=-1.06D-05 R= 1.00D+00
 TightC=F SS=  1.41D+00  RLast= 4.67D-03 DXNew= 5.0454D-01 1.4024D-02
 Trust test= 1.00D+00 RLast= 4.67D-03 DXMaxT set to 3.00D-01
 The second derivative matrix:
                          R1        R2        R3        A1        A2
           R1           1.23519
           R2          -0.03262   0.68085
           R3          -0.03262  -0.03049   0.68085
           A1          -0.00000  -0.00000  -0.00000   0.02931
           A2           0.00000   0.00000   0.00000  -0.00000   0.02931
           A3           0.00000   0.00000   0.00000  -0.00000   0.00000
           A4          -0.00000  -0.00000  -0.00000   0.00000  -0.00000
                          A3        A4
           A3           0.02931
           A4          -0.00000   0.02931
 ITU=  1  0
 Use linear search instead of GDIIS.
     Eigenvalues ---    0.02931   0.02931   0.02931   0.02931   0.64675
     Eigenvalues ---    0.71134   1.23880
 RFO step:  Lambda=-2.27844453D-07 EMin= 2.93064723D-02
 Quartic linear search produced a step of  0.00226.
 Iteration  1 RMS(Cart)=  0.00015370 RMS(Int)=  0.00000000
 Iteration  2 RMS(Cart)=  0.00000000 RMS(Int)=  0.00000001
 ClnCor:  largest displacement from symmetrization is 2.50D-13 for atom     1.
 Variable       Old X    -DE/DX   Delta X   Delta X   Delta X     New X
                                 (Linear)    (Quad)   (Total)
    R1        2.23514   0.00026  -0.00001   0.00020   0.00019   2.23533
    R2        2.42879  -0.00024  -0.00000  -0.00036  -0.00037   2.42842
    R3        2.42879  -0.00024  -0.00000  -0.00036  -0.00037   2.42842
    A1        3.14159  -0.00000   0.00000  -0.00000   0.00000   3.14159
    A2        3.14159   0.00000   0.00000   0.00000   0.00000   3.14159
    A3        3.14159   0.00000   0.00000   0.00000   0.00000   3.14159
    A4        3.14159  -0.00000   0.00000  -0.00000   0.00000   3.14159
         Item               Value     Threshold  Converged?
 Maximum Force            0.000258     0.000450     YES
 RMS     Force            0.000163     0.000300     YES
 Maximum Displacement     0.000271     0.001800     YES
 RMS     Displacement     0.000154     0.001200     YES
 Predicted change in Energy=-1.139850D-07
 Optimization completed.
    -- Stationary point found.
                           ----------------------------
                           !   Optimized Parameters   !
                           ! (Angstroms and Degrees)  !
 --------------------------                            --------------------------
 ! Name  Definition              Value          Derivative Info.                !
 --------------------------------------------------------------------------------
 ! R1    R(1,2)                  1.1828         -DE/DX =    0.0003              !
 ! R2    R(1,3)                  1.2853         -DE/DX =   -0.0002              !
 ! R3    R(2,4)                  1.2853         -DE/DX =   -0.0002              !
 ! A1    L(2,1,3,-1,-1)        180.0            -DE/DX =    0.0                 !
 ! A2    L(1,2,4,-1,-1)        180.0            -DE/DX =    0.0                 !
 ! A3    L(2,1,3,-2,-2)        180.0            -DE/DX =    0.0                 !
 ! A4    L(1,2,4,-2,-2)        180.0            -DE/DX =    0.0                 !
 --------------------------------------------------------------------------------
 GradGradGradGradGradGradGradGradGradGradGradGradGradGradGradGradGradGrad

                          Input orientation:                          
 ---------------------------------------------------------------------
 Center     Atomic      Atomic             Coordinates (Angstroms)
 Number     Number       Type             X           Y           Z
 ---------------------------------------------------------------------
      1          6           0        0.000000    0.000000    0.591394
      2          6           0        0.000000    0.000000   -0.591394
      3          9           0        0.000000    0.000000    1.876653
      4          9           0        0.000000    0.000000   -1.876653
 ---------------------------------------------------------------------
                    Distance matrix (angstroms):
                    1          2          3          4
     1  C    0.000000
     2  C    1.182788   0.000000
     3  F    1.285260   2.468047   0.000000
     4  F    2.468047   1.285260   3.753307   0.000000
 Stoichiometry    C2F2
 Framework group  D*H[C*(FC.CF)]
 Deg. of freedom     2
 Full point group                 D*H     NOp   8
 Largest Abelian subgroup         D2H     NOp   8
 Largest concise Abelian subgroup C2      NOp   2
                         Standard orientation:                         
 ---------------------------------------------------------------------
 Center     Atomic      Atomic             Coordinates (Angstroms)
 Number     Number       Type             X           Y           Z
 ---------------------------------------------------------------------
      1          6           0        0.000000    0.000000    0.591394
      2          6           0        0.000000    0.000000   -0.591394
      3          9           0        0.000000    0.000000    1.876653
      4          9           0        0.000000    0.000000   -1.876653
 ---------------------------------------------------------------------
 Rotational constants (GHZ):           0.0000000           3.5536985           3.5536985

 **********************************************************************

            Population analysis using the SCF Density.

 **********************************************************************

 Orbital symmetries:
       Occupied  (SGU) (SGG) (SGG) (SGU) (SGG) (SGU) (SGG) (SGU)
                 (SGG) (PIU) (PIU) (PIG) (PIG) (PIU) (PIU)
       Virtual   (SGU) (SGG) (PIG) (PIG) (SGU) (PIU) (PIU) (SGG)
                 (PIG) (PIG) (SGG) (SGU) (PIU) (PIU) (SGG) (SGU)
                 (PIG) (PIG) (DLTG) (DLTG) (SGU) (SGG) (SGU) (PIU)
                 (PIU) (DLTU) (DLTU) (SGG) (PIU) (PIU) (PIG) (PIG)
                 (SGG) (PIG) (PIG) (SGU) (DLTG) (DLTG) (DLTU) (DLTU)
                 (SGU) (PIU) (PIU) (SGG) (SGU) (PIG) (PIG) (PIU)
                 (PIU) (SGG) (DLTG) (DLTG) (SGU) (PHIU) (PHIU)
                 (PIG) (PIG) (PHIG) (PHIG) (PIU) (PIU) (SGU) (DLTG)
                 (DLTG) (DLTU) (DLTU) (SGG) (PIG) (PIG) (SGG) (PIU)
                 (PIU) (DLTU) (DLTU) (PHIU) (PHIU) (PHIG) (PHIG)
                 (SGU) (DLTG) (DLTG) (SGU) (SGG) (PIG) (PIG) (DLTU)
                 (DLTU) (SGG) (PIU) (PIU) (PIG) (PIG) (SGU) (SGU)
                 (DLTG) (DLTG) (DLTU) (DLTU) (PIU) (PIU) (SGG)
                 (PIG) (PIG) (SGG) (SGU)
 The electronic state is 1-SGG.
 Alpha  occ. eigenvalues --  -24.76134 -24.76134 -10.27930 -10.27641  -1.30361
 Alpha  occ. eigenvalues --   -1.30227  -0.79629  -0.65372  -0.62428  -0.53900
 Alpha  occ. eigenvalues --   -0.53900  -0.51808  -0.51808  -0.29701  -0.29701
 Alpha virt. eigenvalues --    0.01001   0.03020   0.07415   0.07415   0.14710
 Alpha virt. eigenvalues --    0.15057   0.15057   0.20753   0.23605   0.23605
 Alpha virt. eigenvalues --    0.29161   0.35325   0.50471   0.50471   0.51248
 Alpha virt. eigenvalues --    0.61318   0.63780   0.63780   0.77018   0.77018
 Alpha virt. eigenvalues --    0.89668   0.89826   0.98797   1.01373   1.01373
 Alpha virt. eigenvalues --    1.09830   1.09830   1.19079   1.21419   1.21419
 Alpha virt. eigenvalues --    1.25000   1.25000   1.58298   1.61302   1.61302
 Alpha virt. eigenvalues --    1.62060   1.77939   1.77939   1.88248   1.88248
 Alpha virt. eigenvalues --    2.22476   2.25512   2.25512   2.32020   2.49471
 Alpha virt. eigenvalues --    2.61441   2.61441   2.87335   2.87335   2.94429
 Alpha virt. eigenvalues --    3.04719   3.04719   3.05305   3.11137   3.11137
 Alpha virt. eigenvalues --    3.25460   3.25460   3.50154   3.50154   3.62820
 Alpha virt. eigenvalues --    3.62820   3.63168   3.86182   3.86182   3.86193
 Alpha virt. eigenvalues --    3.86193   3.92963   3.97329   3.97329   4.00985
 Alpha virt. eigenvalues --    4.04177   4.04177   4.04938   4.04938   4.33555
 Alpha virt. eigenvalues --    4.33555   4.35021   4.35021   4.58044   4.62284
 Alpha virt. eigenvalues --    4.62284   4.72571   4.89300   5.06354   5.06354
 Alpha virt. eigenvalues --    5.09033   5.09033   5.57382   5.81542   5.81542
 Alpha virt. eigenvalues --    5.85089   5.85089   5.97509   6.65954   7.47920
 Alpha virt. eigenvalues --    7.47920   7.50334   7.50334   7.93530   7.93530
 Alpha virt. eigenvalues --    8.03059   8.11979   8.11979   8.20776   8.47723
          Condensed to atoms (all electrons):
               1          2          3          4
     1  C    4.613075   1.003676   0.219887  -0.033703
     2  C    1.003676   4.613075  -0.033703   0.219887
     3  F    0.219887  -0.033703   9.010188   0.000693
     4  F   -0.033703   0.219887   0.000693   9.010188
 Mulliken charges:
               1
     1  C    0.197065
     2  C    0.197065
     3  F   -0.197065
     4  F   -0.197065
 Sum of Mulliken charges =  -0.00000
 Mulliken charges with hydrogens summed into heavy atoms:
               1
     1  C    0.197065
     2  C    0.197065
     3  F   -0.197065
     4  F   -0.197065
 Electronic spatial extent (au):  <R**2>=            287.5621
 Charge=             -0.0000 electrons
 Dipole moment (field-independent basis, Debye):
    X=             -0.0000    Y=             -0.0000    Z=              0.0000  Tot=              0.0000
 Quadrupole moment (field-independent basis, Debye-Ang):
   XX=            -20.4279   YY=            -20.4279   ZZ=            -21.2772
   XY=              0.0000   XZ=              0.0000   YZ=              0.0000
 Traceless Quadrupole moment (field-independent basis, Debye-Ang):
   XX=              0.2831   YY=              0.2831   ZZ=             -0.5662
   XY=              0.0000   XZ=              0.0000   YZ=              0.0000
 Octapole moment (field-independent basis, Debye-Ang**2):
  XXX=             -0.0000  YYY=             -0.0000  ZZZ=             -0.0000  XYY=             -0.0000
  XXY=              0.0000  XXZ=             -0.0000  XZZ=             -0.0000  YZZ=             -0.0000
  YYZ=             -0.0000  XYZ=              0.0000
 Hexadecapole moment (field-independent basis, Debye-Ang**3):
 XXXX=            -18.9030 YYYY=            -18.9030 ZZZZ=           -245.6592 XXXY=              0.0000
 XXXZ=              0.0000 YYYX=              0.0000 YYYZ=              0.0000 ZZZX=              0.0000
 ZZZY=              0.0000 XXYY=             -6.3010 XXZZ=            -42.3167 YYZZ=            -42.3167
 XXYZ=              0.0000 YYXZ=              0.0000 ZZXY=             -0.0000
 N-N= 9.514953379616D+01 E-N=-8.437680953795D+02  KE= 2.750741016669D+02
 Symmetry AG   KE= 1.241029612806D+02
 Symmetry B1G  KE= 2.269798536292D-33
 Symmetry B2G  KE= 6.171457711714D+00
 Symmetry B3G  KE= 6.171457711714D+00
 Symmetry AU   KE= 5.337975320946D-33
 Symmetry B1U  KE= 1.200434783804D+02
 Symmetry B2U  KE= 9.292373291276D+00
 Symmetry B3U  KE= 9.292373291276D+00
 1\1\GINC-GAMBA\FOpt\RB3LYP\Gen\C2F2\IRIKURA\25-Feb-2022\0\\# b3lyp/gen
  opt freq\\difluoroacetylene, B3LYP/pcseg-2\\0,1\C,0.,0.,0.5913937543\
 C,0.,0.,-0.5913937543\F,0.,0.,1.8766533101\F,0.,0.,-1.8766533101\\Vers
 ion=ES64L-G16RevB.01\State=1-SGG\HF=-275.8677789\RMSD=6.343e-09\RMSF=2
 .281e-04\Dipole=0.,0.,0.\Quadrupole=0.210474,0.210474,-0.420948,0.,0.,
 0.\PG=D*H [C*(F1C1.C1F1)]\\@


 What some people mistake for the high cost
 of living is really the cost of living high.
                              -- Doug Larson
 Job cpu time:       0 days  0 hours  0 minutes 26.9 seconds.
 Elapsed time:       0 days  0 hours  0 minutes  6.7 seconds.
 File lengths (MBytes):  RWF=     10 Int=      0 D2E=      0 Chk=      2 Scr=      1
 Normal termination of Gaussian 16 at Fri Feb 25 20:50:32 2022.
 Link1:  Proceeding to internal job step number  2.
 ------------------------------------------------------------------
 #N Geom=AllCheck Guess=TCheck SCRF=Check GenChk RB3LYP/ChkBas Freq
 ------------------------------------------------------------------
 1/10=4,29=7,30=1,38=1,40=1/1,3;
 2/12=2,40=1/2;
 3/5=7,6=2,11=2,14=-4,25=1,30=1,67=1,70=2,71=2,74=-5,82=7,116=1,140=1/1,2,3;
 4/5=101/1;
 5/5=2,38=6,98=1/2;
 8/6=4,10=90,11=11/1;
 11/6=1,8=1,9=11,15=111,16=1/1,2,10;
 10/6=1/2;
 6/7=2,8=2,9=2,10=2,28=1/1;
 7/8=1,10=1,25=1/1,2,3,16;
 1/10=4,30=1/3;
 99//99;
 Structure from the checkpoint file:  "/wrk/irikura/Gau-23707.chk"
 --------------------------------
 difluoroacetylene, B3LYP/pcseg-2
 --------------------------------
 Charge =  0 Multiplicity = 1
 Redundant internal coordinates found in file.  (old form).
 C,0,0.,0.,0.5913937543
 C,0,0.,0.,-0.5913937543
 F,0,0.,0.,1.8766533101
 F,0,0.,0.,-1.8766533101
 Recover connectivity data from disk.

 GradGradGradGradGradGradGradGradGradGradGradGradGradGradGradGradGradGrad
 Berny optimization.
 Initialization pass.
                           ----------------------------
                           !    Initial Parameters    !
                           ! (Angstroms and Degrees)  !
 --------------------------                            --------------------------
 ! Name  Definition              Value          Derivative Info.                !
 --------------------------------------------------------------------------------
 ! R1    R(1,2)                  1.1828         calculate D2E/DX2 analytically  !
 ! R2    R(1,3)                  1.2853         calculate D2E/DX2 analytically  !
 ! R3    R(2,4)                  1.2853         calculate D2E/DX2 analytically  !
 ! A1    L(2,1,3,-1,-1)        180.0            calculate D2E/DX2 analytically  !
 ! A2    L(1,2,4,-1,-1)        180.0            calculate D2E/DX2 analytically  !
 ! A3    L(2,1,3,-2,-2)        180.0            calculate D2E/DX2 analytically  !
 ! A4    L(1,2,4,-2,-2)        180.0            calculate D2E/DX2 analytically  !
 --------------------------------------------------------------------------------
 Trust Radius=3.00D-01 FncErr=1.00D-07 GrdErr=1.00D-07 EigMax=2.50D+02 EigMin=1.00D-04
 Number of steps in this run=      2 maximum allowed number of steps=      2.
 GradGradGradGradGradGradGradGradGradGradGradGradGradGradGradGradGradGrad

                          Input orientation:                          
 ---------------------------------------------------------------------
 Center     Atomic      Atomic             Coordinates (Angstroms)
 Number     Number       Type             X           Y           Z
 ---------------------------------------------------------------------
      1          6           0        0.000000    0.000000    0.591394
      2          6           0        0.000000    0.000000   -0.591394
      3          9           0        0.000000    0.000000    1.876653
      4          9           0        0.000000    0.000000   -1.876653
 ---------------------------------------------------------------------
                    Distance matrix (angstroms):
                    1          2          3          4
     1  C    0.000000
     2  C    1.182788   0.000000
     3  F    1.285260   2.468047   0.000000
     4  F    2.468047   1.285260   3.753307   0.000000
 Stoichiometry    C2F2
 Framework group  D*H[C*(FC.CF)]
 Deg. of freedom     2
 Full point group                 D*H     NOp   8
 Largest Abelian subgroup         D2H     NOp   8
 Largest concise Abelian subgroup C2      NOp   2
                         Standard orientation:                         
 ---------------------------------------------------------------------
 Center     Atomic      Atomic             Coordinates (Angstroms)
 Number     Number       Type             X           Y           Z
 ---------------------------------------------------------------------
      1          6           0        0.000000    0.000000    0.591394
      2          6           0        0.000000    0.000000   -0.591394
      3          9           0        0.000000    0.000000    1.876653
      4          9           0        0.000000    0.000000   -1.876653
 ---------------------------------------------------------------------
 Rotational constants (GHZ):           0.0000000           3.5536985           3.5536985
 Basis read from chk: "/wrk/irikura/Gau-23707.chk" (5D, 7F)
 There are    32 symmetry adapted cartesian basis functions of AG  symmetry.
 There are     6 symmetry adapted cartesian basis functions of B1G symmetry.
 There are    16 symmetry adapted cartesian basis functions of B2G symmetry.
 There are    16 symmetry adapted cartesian basis functions of B3G symmetry.
 There are     6 symmetry adapted cartesian basis functions of AU  symmetry.
 There are    32 symmetry adapted cartesian basis functions of B1U symmetry.
 There are    16 symmetry adapted cartesian basis functions of B2U symmetry.
 There are    16 symmetry adapted cartesian basis functions of B3U symmetry.
 There are    26 symmetry adapted basis functions of AG  symmetry.
 There are     6 symmetry adapted basis functions of B1G symmetry.
 There are    14 symmetry adapted basis functions of B2G symmetry.
 There are    14 symmetry adapted basis functions of B3G symmetry.
 There are     6 symmetry adapted basis functions of AU  symmetry.
 There are    26 symmetry adapted basis functions of B1U symmetry.
 There are    14 symmetry adapted basis functions of B2U symmetry.
 There are    14 symmetry adapted basis functions of B3U symmetry.
   120 basis functions,   204 primitive gaussians,   140 cartesian basis functions
    15 alpha electrons       15 beta electrons
       nuclear repulsion energy        95.1495337962 Hartrees.
 NAtoms=    4 NActive=    4 NUniq=    2 SFac= 4.00D+00 NAtFMM=   60 NAOKFM=F Big=F
 Integral buffers will be    131072 words long.
 Raffenetti 2 integral format.
 Two-electron integral symmetry is turned on.
 One-electron integrals computed using PRISM.
 NBasis=   120 RedAO= T EigKep=  1.17D-04  NBF=    26     6    14    14     6    26    14    14
 NBsUse=   120 1.00D-06 EigRej= -1.00D+00 NBFU=    26     6    14    14     6    26    14    14
 Initial guess from the checkpoint file:  "/wrk/irikura/Gau-23707.chk"
 B after Tr=     0.000000    0.000000    0.000000
         Rot=    1.000000    0.000000    0.000000    0.000000 Ang=   0.00 deg.
 Initial guess orbital symmetries:
       Occupied  (SGU) (SGG) (SGG) (SGU) (SGG) (SGU) (SGG) (SGU)
                 (SGG) (PIU) (PIU) (PIG) (PIG) (PIU) (PIU)
       Virtual   (SGU) (SGG) (PIG) (PIG) (SGU) (PIU) (PIU) (SGG)
                 (PIG) (PIG) (SGG) (SGU) (PIU) (PIU) (SGG) (SGU)
                 (PIG) (PIG) (DLTG) (DLTG) (SGU) (SGG) (SGU) (PIU)
                 (PIU) (DLTU) (DLTU) (SGG) (PIU) (PIU) (PIG) (PIG)
                 (SGG) (PIG) (PIG) (SGU) (DLTG) (DLTG) (DLTU) (DLTU)
                 (SGU) (PIU) (PIU) (SGG) (SGU) (PIG) (PIG) (PIU)
                 (PIU) (SGG) (DLTG) (DLTG) (SGU) (PHIU) (PHIU)
                 (PIG) (PIG) (PHIG) (PHIG) (PIU) (PIU) (SGU) (DLTG)
                 (DLTG) (DLTU) (DLTU) (SGG) (PIG) (PIG) (SGG) (PIU)
                 (PIU) (DLTU) (DLTU) (PHIU) (PHIU) (PHIG) (PHIG)
                 (SGU) (DLTG) (DLTG) (SGU) (SGG) (PIG) (PIG) (DLTU)
                 (DLTU) (SGG) (PIU) (PIU) (PIG) (PIG) (SGU) (SGU)
                 (DLTG) (DLTG) (DLTU) (DLTU) (PIU) (PIU) (SGG)
                 (PIG) (PIG) (SGG) (SGU)
 Keep R1 ints in memory in symmetry-blocked form, NReq=30252838.
 Requested convergence on RMS density matrix=1.00D-08 within 128 cycles.
 Requested convergence on MAX density matrix=1.00D-06.
 Requested convergence on             energy=1.00D-06.
 No special actions if energy rises.
 SCF Done:  E(RB3LYP) =  -275.867778913     A.U. after    1 cycles
            NFock=  1  Conv=0.24D-08     -V/T= 2.0029
 DoSCS=F DFT=T ScalE2(SS,OS)=  1.000000  1.000000
 Range of M.O.s used for correlation:     1   120
 NBasis=   120 NAE=    15 NBE=    15 NFC=     0 NFV=     0
 NROrb=    120 NOA=    15 NOB=    15 NVA=   105 NVB=   105

 **** Warning!!: The largest alpha MO coefficient is  0.29325156D+02

 Symmetrizing basis deriv contribution to polar:
 IMax=3 JMax=2 DiffMx= 0.00D+00
 G2DrvN: will do     5 centers at a time, making    1 passes.
 Calling FoFCou, ICntrl=  3107 FMM=F I1Cent=   0 AccDes= 0.00D+00.
 End of G2Drv F.D. properties file   721 does not exist.
 End of G2Drv F.D. properties file   722 does not exist.
 End of G2Drv F.D. properties file   788 does not exist.
          IDoAtm=1111
          Differentiating once with respect to electric field.
                with respect to dipole field.
          Differentiating once with respect to nuclear coordinates.
 Keep R1 ints in memory in symmetry-blocked form, NReq=30242861.
          There are     9 degrees of freedom in the 1st order CPHF.  IDoFFX=4 NUNeed=     9.
      9 vectors produced by pass  0 Test12= 1.75D-14 1.11D-08 XBig12= 3.40D+01 3.80D+00.
 AX will form     9 AO Fock derivatives at one time.
      9 vectors produced by pass  1 Test12= 1.75D-14 1.11D-08 XBig12= 1.65D+01 1.29D+00.
      9 vectors produced by pass  2 Test12= 1.75D-14 1.11D-08 XBig12= 8.20D-01 3.13D-01.
      9 vectors produced by pass  3 Test12= 1.75D-14 1.11D-08 XBig12= 3.92D-02 3.31D-02.
      9 vectors produced by pass  4 Test12= 1.75D-14 1.11D-08 XBig12= 2.75D-04 5.35D-03.
      9 vectors produced by pass  5 Test12= 1.75D-14 1.11D-08 XBig12= 6.86D-07 2.17D-04.
      5 vectors produced by pass  6 Test12= 1.75D-14 1.11D-08 XBig12= 2.12D-09 1.43D-05.
      5 vectors produced by pass  7 Test12= 1.75D-14 1.11D-08 XBig12= 5.88D-12 6.72D-07.
      1 vectors produced by pass  8 Test12= 1.75D-14 1.11D-08 XBig12= 9.28D-15 1.88D-08.
 InvSVY:  IOpt=1 It=  1 EMax= 2.78D-16
 Solved reduced A of dimension    65 with     9 vectors.
 Isotropic polarizability for W=    0.000000       20.65 Bohr**3.
 End of Minotr F.D. properties file   721 does not exist.
 End of Minotr F.D. properties file   722 does not exist.
 End of Minotr F.D. properties file   788 does not exist.

 **********************************************************************

            Population analysis using the SCF Density.

 **********************************************************************

 Orbital symmetries:
       Occupied  (SGU) (SGG) (SGG) (SGU) (SGG) (SGU) (SGG) (SGU)
                 (SGG) (PIU) (PIU) (PIG) (PIG) (PIU) (PIU)
       Virtual   (SGU) (SGG) (PIG) (PIG) (SGU) (PIU) (PIU) (SGG)
                 (PIG) (PIG) (SGG) (SGU) (PIU) (PIU) (SGG) (SGU)
                 (PIG) (PIG) (DLTG) (DLTG) (SGU) (SGG) (SGU) (PIU)
                 (PIU) (DLTU) (DLTU) (SGG) (PIU) (PIU) (PIG) (PIG)
                 (SGG) (PIG) (PIG) (SGU) (DLTG) (DLTG) (DLTU) (DLTU)
                 (SGU) (PIU) (PIU) (SGG) (SGU) (PIG) (PIG) (PIU)
                 (PIU) (SGG) (DLTG) (DLTG) (SGU) (PHIU) (PHIU)
                 (PIG) (PIG) (PHIG) (PHIG) (PIU) (PIU) (SGU) (DLTG)
                 (DLTG) (DLTU) (DLTU) (SGG) (PIG) (PIG) (SGG) (PIU)
                 (PIU) (DLTU) (DLTU) (PHIU) (PHIU) (PHIG) (PHIG)
                 (SGU) (DLTG) (DLTG) (SGU) (SGG) (PIG) (PIG) (DLTU)
                 (DLTU) (SGG) (PIU) (PIU) (PIG) (PIG) (SGU) (SGU)
                 (DLTG) (DLTG) (DLTU) (DLTU) (PIU) (PIU) (SGG)
                 (PIG) (PIG) (SGG) (SGU)
 The electronic state is 1-SGG.
 Alpha  occ. eigenvalues --  -24.76134 -24.76134 -10.27930 -10.27641  -1.30361
 Alpha  occ. eigenvalues --   -1.30227  -0.79629  -0.65372  -0.62428  -0.53900
 Alpha  occ. eigenvalues --   -0.53900  -0.51808  -0.51808  -0.29701  -0.29701
 Alpha virt. eigenvalues --    0.01001   0.03020   0.07415   0.07415   0.14710
 Alpha virt. eigenvalues --    0.15057   0.15057   0.20753   0.23605   0.23605
 Alpha virt. eigenvalues --    0.29161   0.35325   0.50471   0.50471   0.51248
 Alpha virt. eigenvalues --    0.61318   0.63780   0.63780   0.77018   0.77018
 Alpha virt. eigenvalues --    0.89668   0.89826   0.98797   1.01373   1.01373
 Alpha virt. eigenvalues --    1.09830   1.09830   1.19079   1.21419   1.21419
 Alpha virt. eigenvalues --    1.25000   1.25000   1.58298   1.61302   1.61302
 Alpha virt. eigenvalues --    1.62060   1.77939   1.77939   1.88248   1.88248
 Alpha virt. eigenvalues --    2.22476   2.25512   2.25512   2.32020   2.49471
 Alpha virt. eigenvalues --    2.61441   2.61441   2.87335   2.87335   2.94429
 Alpha virt. eigenvalues --    3.04719   3.04719   3.05305   3.11137   3.11137
 Alpha virt. eigenvalues --    3.25460   3.25460   3.50154   3.50154   3.62820
 Alpha virt. eigenvalues --    3.62820   3.63168   3.86182   3.86182   3.86193
 Alpha virt. eigenvalues --    3.86193   3.92963   3.97329   3.97329   4.00985
 Alpha virt. eigenvalues --    4.04177   4.04177   4.04938   4.04938   4.33555
 Alpha virt. eigenvalues --    4.33555   4.35021   4.35021   4.58044   4.62284
 Alpha virt. eigenvalues --    4.62284   4.72571   4.89300   5.06354   5.06354
 Alpha virt. eigenvalues --    5.09033   5.09033   5.57382   5.81542   5.81542
 Alpha virt. eigenvalues --    5.85089   5.85089   5.97509   6.65954   7.47920
 Alpha virt. eigenvalues --    7.47920   7.50334   7.50334   7.93530   7.93530
 Alpha virt. eigenvalues --    8.03059   8.11979   8.11979   8.20776   8.47723
          Condensed to atoms (all electrons):
               1          2          3          4
     1  C    4.613076   1.003676   0.219887  -0.033703
     2  C    1.003676   4.613076  -0.033703   0.219887
     3  F    0.219887  -0.033703   9.010188   0.000693
     4  F   -0.033703   0.219887   0.000693   9.010188
 Mulliken charges:
               1
     1  C    0.197065
     2  C    0.197065
     3  F   -0.197065
     4  F   -0.197065
 Sum of Mulliken charges =  -0.00000
 Mulliken charges with hydrogens summed into heavy atoms:
               1
     1  C    0.197065
     2  C    0.197065
     3  F   -0.197065
     4  F   -0.197065
 APT charges:
               1
     1  C    0.382509
     2  C    0.382509
     3  F   -0.382509
     4  F   -0.382509
 Sum of APT charges =  -0.00000
 APT charges with hydrogens summed into heavy atoms:
               1
     1  C    0.382509
     2  C    0.382509
     3  F   -0.382509
     4  F   -0.382509
 Electronic spatial extent (au):  <R**2>=            287.5621
 Charge=             -0.0000 electrons
 Dipole moment (field-independent basis, Debye):
    X=             -0.0000    Y=             -0.0000    Z=              0.0000  Tot=              0.0000
 Quadrupole moment (field-independent basis, Debye-Ang):
   XX=            -20.4279   YY=            -20.4279   ZZ=            -21.2772
   XY=              0.0000   XZ=              0.0000   YZ=              0.0000
 Traceless Quadrupole moment (field-independent basis, Debye-Ang):
   XX=              0.2831   YY=              0.2831   ZZ=             -0.5662
   XY=              0.0000   XZ=              0.0000   YZ=              0.0000
 Octapole moment (field-independent basis, Debye-Ang**2):
  XXX=             -0.0000  YYY=             -0.0000  ZZZ=             -0.0000  XYY=             -0.0000
  XXY=             -0.0000  XXZ=             -0.0000  XZZ=             -0.0000  YZZ=             -0.0000
  YYZ=              0.0000  XYZ=              0.0000
 Hexadecapole moment (field-independent basis, Debye-Ang**3):
 XXXX=            -18.9030 YYYY=            -18.9030 ZZZZ=           -245.6592 XXXY=              0.0000
 XXXZ=              0.0000 YYYX=              0.0000 YYYZ=              0.0000 ZZZX=              0.0000
 ZZZY=              0.0000 XXYY=             -6.3010 XXZZ=            -42.3167 YYZZ=            -42.3167
 XXYZ=              0.0000 YYXZ=              0.0000 ZZXY=             -0.0000
 N-N= 9.514953379616D+01 E-N=-8.437680882818D+02  KE= 2.750740975215D+02
 Symmetry AG   KE= 1.241029605993D+02
 Symmetry B1G  KE= 2.269798696423D-33
 Symmetry B2G  KE= 6.171456779605D+00
 Symmetry B3G  KE= 6.171456779605D+00
 Symmetry AU   KE= 5.337975802298D-33
 Symmetry B1U  KE= 1.200434776713D+02
 Symmetry B2U  KE= 9.292372845870D+00
 Symmetry B3U  KE= 9.292372845870D+00
  Exact polarizability:  14.110   0.000  14.110   0.000   0.000  33.730
 Approx polarizability:  17.689  -0.000  17.689  -0.000  -0.000  58.731
 Calling FoFJK, ICntrl=    100127 FMM=F ISym2X=1 I1Cent= 0 IOpClX= 0 NMat=1 NMatS=1 NMatT=0.
 Full mass-weighted force constant matrix:
 Low frequencies ---   -0.0018   -0.0012   -0.0012    5.4983    5.4983  282.0369
 Low frequencies ---  282.0369  313.0590  313.0590
 Diagonal vibrational polarizability:
        0.0003059       0.0003059       5.0355650
 Harmonic frequencies (cm**-1), IR intensities (KM/Mole), Raman scattering
 activities (A**4/AMU), depolarization ratios for plane and unpolarized
 incident light, reduced masses (AMU), force constants (mDyne/A),
 and normal coordinates:
                      1                      2                      3
                     PIU                    PIU                    PIG
 Frequencies --    282.0369               282.0369               313.0579
 Red. masses --     13.9958                13.9958                12.2667
 Frc consts  --      0.6559                 0.6559                 0.7083
 IR Inten    --      0.0009                 0.0009                 0.0000
  Atom  AN      X      Y      Z        X      Y      Z        X      Y      Z
     1   6     0.00   0.60  -0.00     0.60  -0.00  -0.00     0.00   0.69  -0.00
     2   6     0.00   0.60  -0.00     0.60  -0.00  -0.00    -0.00  -0.69  -0.00
     3   9    -0.00  -0.38   0.00    -0.38   0.00   0.00    -0.00  -0.14   0.00
     4   9    -0.00  -0.38  -0.00    -0.38   0.00   0.00     0.00   0.14   0.00
                      4                      5                      6
                     PIG                    SGG                    SGU
 Frequencies --    313.0579               796.0535              1361.4949
 Red. masses --     12.2667                18.7124                13.9958
 Frc consts  --      0.7083                 6.9866                15.2855
 IR Inten    --      0.0000                 0.0000               346.8543
  Atom  AN      X      Y      Z        X      Y      Z        X      Y      Z
     1   6     0.69  -0.00  -0.00     0.00  -0.00   0.14     0.00   0.00   0.60
     2   6    -0.69   0.00   0.00    -0.00  -0.00  -0.14     0.00  -0.00   0.60
     3   9    -0.14   0.00  -0.00    -0.00   0.00   0.69    -0.00  -0.00  -0.38
     4   9     0.14  -0.00   0.00     0.00   0.00  -0.69    -0.00  -0.00  -0.38
                      7
                     SGG
 Frequencies --   2549.7741
 Red. masses --     12.1170
 Frc consts  --     46.4138
 IR Inten    --      0.0000
  Atom  AN      X      Y      Z
     1   6     0.00   0.00   0.70
     2   6    -0.00  -0.00  -0.70
     3   9    -0.00  -0.00  -0.09
     4   9     0.00   0.00   0.09

 -------------------
 - Thermochemistry -
 -------------------
 Temperature   298.150 Kelvin.  Pressure   1.00000 Atm.
 Atom     1 has atomic number  6 and mass  12.00000
 Atom     2 has atomic number  6 and mass  12.00000
 Atom     3 has atomic number  9 and mass  18.99840
 Atom     4 has atomic number  9 and mass  18.99840
 Molecular mass:    61.99681 amu.
 Principal axes and moments of inertia in atomic units:
                           1         2         3
     Eigenvalues --     0.00000 507.84870 507.84870
           X           -0.00000   1.00000  -0.00000
           Y            0.00000   0.00000   1.00000
           Z            1.00000   0.00000  -0.00000
 This molecule is a prolate symmetric top.
 Rotational symmetry number  2.
 Warning -- assumption of classical behavior for rotation
           may cause significant error
 Rotational temperature (Kelvin)      0.17055
 Rotational constant (GHZ):           3.553699
 Zero-point vibrational energy      35275.0 (Joules/Mol)
                                    8.43092 (Kcal/Mol)
 Warning -- explicit consideration of   4 degrees of freedom as
           vibrations may cause significant error
 Vibrational temperatures:    405.79   405.79   450.42   450.42  1145.34
          (Kelvin)           1958.89  3668.56
 
 Zero-point correction=                           0.013436 (Hartree/Particle)
 Thermal correction to Energy=                    0.017579
 Thermal correction to Enthalpy=                  0.018523
 Thermal correction to Gibbs Free Energy=        -0.009846
 Sum of electronic and zero-point Energies=           -275.854343
 Sum of electronic and thermal Energies=              -275.850200
 Sum of electronic and thermal Enthalpies=            -275.849256
 Sum of electronic and thermal Free Energies=         -275.877625
 
                     E (Thermal)             CV                S
                      KCal/Mol        Cal/Mol-Kelvin    Cal/Mol-Kelvin
 Total                   11.031             12.459             59.706
 Electronic               0.000              0.000              0.000
 Translational            0.889              2.981             38.293
 Rotational               0.592              1.987             15.447
 Vibrational              9.550              7.491              5.967
 Vibration     1          0.681              1.707              1.521
 Vibration     2          0.681              1.707              1.521
 Vibration     3          0.701              1.649              1.346
 Vibration     4          0.701              1.649              1.346
                       Q            Log10(Q)             Ln(Q)
 Total Bot       0.337797D+05          4.528655         10.427614
 Total V=0       0.511164D+11         10.708561         24.657372
 Vib (Bot)       0.201417D-05         -5.695904        -13.115304
 Vib (Bot)    1  0.680955D+00         -0.166882         -0.384259
 Vib (Bot)    2  0.680955D+00         -0.166882         -0.384259
 Vib (Bot)    3  0.602942D+00         -0.219724         -0.505934
 Vib (Bot)    4  0.602942D+00         -0.219724         -0.505934
 Vib (V=0)       0.304790D+01          0.484001          1.114454
 Vib (V=0)    1  0.134481D+01          0.128660          0.296251
 Vib (V=0)    2  0.134481D+01          0.128660          0.296251
 Vib (V=0)    3  0.128329D+01          0.108324          0.249425
 Vib (V=0)    4  0.128329D+01          0.108324          0.249425
 Electronic      0.100000D+01          0.000000          0.000000
 Translational   0.191870D+08          7.283008         16.769745
 Rotational      0.874081D+03          2.941551          6.773173
 ***** Axes restored to original set *****
 -------------------------------------------------------------------
 Center     Atomic                   Forces (Hartrees/Bohr)
 Number     Number              X              Y              Z
 -------------------------------------------------------------------
      1        6           0.000000000    0.000000000    0.000502701
      2        6           0.000000000   -0.000000000   -0.000502701
      3        9           0.000000000    0.000000000   -0.000244459
      4        9          -0.000000000   -0.000000000    0.000244459
 -------------------------------------------------------------------
 Cartesian Forces:  Max     0.000502701 RMS     0.000228206
 FormGI is forming the generalized inverse of G from B-inverse, IUseBI=4.

 GradGradGradGradGradGradGradGradGradGradGradGradGradGradGradGradGradGrad
 Berny optimization.
 Internal  Forces:  Max     0.000258242 RMS     0.000163099
 Search for a local minimum.
 Step number   1 out of a maximum of    2
 All quantities printed in internal units (Hartrees-Bohrs-Radians)
 Second derivative matrix not updated -- analytic derivatives used.
 The second derivative matrix:
                          R1        R2        R3        A1        A2
           R1           1.18879
           R2           0.01529   0.54104
           R3           0.01529   0.02512   0.54104
           A1          -0.00000   0.00000  -0.00000   0.07729
           A2          -0.00000  -0.00000   0.00000  -0.05271   0.07729
           A3           0.00000  -0.00000   0.00000  -0.00000   0.00000
           A4           0.00000   0.00000  -0.00000  -0.00000   0.00000
                          A3        A4
           A3           0.07729
           A4          -0.05271   0.07729
 ITU=  0
     Eigenvalues ---    0.02458   0.02458   0.13001   0.13001   0.51592
     Eigenvalues ---    0.56541   1.18954
 Angle between quadratic step and forces=  16.51 degrees.
 Linear search not attempted -- first point.
 Iteration  1 RMS(Cart)=  0.00018349 RMS(Int)=  0.00000000
 Iteration  2 RMS(Cart)=  0.00000000 RMS(Int)=  0.00000000
 ClnCor:  largest displacement from symmetrization is 7.16D-14 for atom     1.
 Variable       Old X    -DE/DX   Delta X   Delta X   Delta X     New X
                                 (Linear)    (Quad)   (Total)
    R1        2.23514   0.00026   0.00000   0.00023   0.00023   2.23537
    R2        2.42879  -0.00024   0.00000  -0.00044  -0.00044   2.42835
    R3        2.42879  -0.00024   0.00000  -0.00044  -0.00044   2.42835
    A1        3.14159  -0.00000   0.00000  -0.00000  -0.00000   3.14159
    A2        3.14159   0.00000   0.00000  -0.00000  -0.00000   3.14159
    A3        3.14159   0.00000   0.00000   0.00000  -0.00000   3.14159
    A4        3.14159  -0.00000   0.00000  -0.00000   0.00000   3.14159
         Item               Value     Threshold  Converged?
 Maximum Force            0.000258     0.000450     YES
 RMS     Force            0.000163     0.000300     YES
 Maximum Displacement     0.000324     0.001800     YES
 RMS     Displacement     0.000183     0.001200     YES
 Predicted change in Energy=-1.365660D-07
 Optimization completed.
    -- Stationary point found.
                           ----------------------------
                           !   Optimized Parameters   !
                           ! (Angstroms and Degrees)  !
 --------------------------                            --------------------------
 ! Name  Definition              Value          Derivative Info.                !
 --------------------------------------------------------------------------------
 ! R1    R(1,2)                  1.1828         -DE/DX =    0.0003              !
 ! R2    R(1,3)                  1.2853         -DE/DX =   -0.0002              !
 ! R3    R(2,4)                  1.2853         -DE/DX =   -0.0002              !
 ! A1    L(2,1,3,-1,-1)        180.0            -DE/DX =    0.0                 !
 ! A2    L(1,2,4,-1,-1)        180.0            -DE/DX =    0.0                 !
 ! A3    L(2,1,3,-2,-2)        180.0            -DE/DX =    0.0                 !
 ! A4    L(1,2,4,-2,-2)        180.0            -DE/DX =    0.0                 !
 --------------------------------------------------------------------------------
 GradGradGradGradGradGradGradGradGradGradGradGradGradGradGradGradGradGrad

 Dipole is zero, so no output in dipole orientation.

 ----------------------------------------------------------------------

 Electric dipole moment (input orientation):
 (Debye = 10**-18 statcoulomb cm , SI units = C m)
                  (au)            (Debye)         (10**-30 SI)
   Tot        0.000000D+00      0.000000D+00      0.000000D+00
   x          0.000000D+00      0.000000D+00      0.000000D+00
   y          0.000000D+00      0.000000D+00      0.000000D+00
   z          0.000000D+00      0.000000D+00      0.000000D+00

 Dipole polarizability, Alpha (input orientation).
 (esu units = cm**3 , SI units = C**2 m**2 J**-1)
 Alpha(0;0):
               (au)            (10**-24 esu)      (10**-40 SI)
   iso        0.206500D+02      0.306001D+01      0.340472D+01
   aniso      0.196196D+02      0.290732D+01      0.323483D+01
   xx         0.141101D+02      0.209090D+01      0.232644D+01
   yx         0.000000D+00      0.000000D+00      0.000000D+00
   yy         0.141101D+02      0.209090D+01      0.232644D+01
   zx         0.000000D+00      0.000000D+00      0.000000D+00
   zy         0.000000D+00      0.000000D+00      0.000000D+00
   zz         0.337297D+02      0.499822D+01      0.556127D+01

 ----------------------------------------------------------------------
 1\1\GINC-GAMBA\Freq\RB3LYP\Gen\C2F2\IRIKURA\25-Feb-2022\0\\#N Geom=All
 Check Guess=TCheck SCRF=Check GenChk RB3LYP/ChkBas Freq\\difluoroacety
 lene, B3LYP/pcseg-2\\0,1\C,0.,0.,0.5913937543\C,0.,0.,-0.5913937543\F,
 0.,0.,1.8766533101\F,0.,0.,-1.8766533101\\Version=ES64L-G16RevB.01\Sta
 te=1-SGG\HF=-275.8677789\RMSD=2.376e-09\RMSF=2.282e-04\ZeroPoint=0.013
 4355\Thermal=0.0175786\Dipole=0.,0.,0.\DipoleDeriv=0.0018467,0.,0.,0.,
 0.0018467,0.,0.,0.,1.1438326,0.0018467,0.,0.,0.,0.0018467,0.,0.,0.,1.1
 438326,-0.0018467,0.,0.,0.,-0.0018467,0.,0.,0.,-1.1438326,-0.0018467,0
 .,0.,0.,-0.0018467,0.,0.,0.,-1.1438326\Polar=14.1101108,0.,14.1101108,
 0.,0.,33.7296631\Quadrupole=0.2104724,0.2104724,-0.4209448,0.,0.,0.\PG
 =D*H [C*(F1C1.C1F1)]\NImag=0\\0.03198203,0.,0.03198203,0.,0.,1.6992506
 1,-0.00984281,0.,0.,0.03198203,0.,-0.00984281,0.,0.,0.03198203,0.,0.,-
 1.18333040,0.,0.,1.69925061,-0.01773151,0.,0.,-0.00440771,0.,0.,0.0132
 0340,0.,-0.01773151,0.,0.,-0.00440771,0.,0.,0.01320340,0.,0.,-0.525751
 28,0.,0.,0.00983108,0.,0.,0.54103867,-0.00440771,0.,0.,-0.01773151,0.,
 0.,0.00893582,0.,0.,0.01320340,0.,-0.00440771,0.,0.,-0.01773151,0.,0.,
 0.00893582,0.,0.,0.01320340,0.,0.,0.00983108,0.,0.,-0.52575128,0.,0.,-
 0.02511846,0.,0.,0.54103867\\0.,0.,-0.00050270,0.,0.,0.00050270,0.,0.,
 0.00024446,0.,0.,-0.00024446\\\@


 Discoveries are often made by not following instructions,
 by going off the main road, by trying the untried.
 -- Frank Tyger
 Job cpu time:       0 days  0 hours  0 minutes 58.4 seconds.
 Elapsed time:       0 days  0 hours  0 minutes 14.6 seconds.
 File lengths (MBytes):  RWF=     10 Int=      0 D2E=      0 Chk=      2 Scr=      1
 Normal termination of Gaussian 16 at Fri Feb 25 20:50:47 2022.
