 Entering Gaussian System, Link 0=g16
 AtFile(1): pcseg2.gbs
            -H     0
            S   4   1.00
                  0.754732D+02           0.427821D-02
                  0.113575D+02           0.328672D-01
                  0.260081D+01           0.159578D+00
                  0.735503D+00           0.500000D+00
            S   1   1.00
                  0.231761D+00           1.0000000
            S   1   1.00
                  0.741675D-01           1.0000000
            P   1   1.00
                  0.160000D+01           1.0000000
            P   1   1.00
                  0.450000D+00           1.0000000
            D   1   1.00
                  0.125000D+01           1.0000000
            ****
            -C     0
            S   7   1.00
                  0.731999D+04           0.695369D-03
                  0.109818D+04           0.537138D-02
                  0.250014D+03           0.274734D-01
                  0.707586D+02           0.105078D+00
                  0.228595D+02           0.291262D+00
                  0.803936D+01           0.500000D+00
                  0.289309D+01           0.362224D+00
            S   2   1.00
                  0.521640D+01          -0.957844D-01
                  0.556124D+00           0.500000D+00
            S   1   1.00
                  0.228813D+00           1.0000000
            S   1   1.00
                  0.936338D-01           1.0000000
            P   4   1.00
                  0.339855D+02           0.818395D-02
                  0.772957D+01           0.586921D-01
                  0.224954D+01           0.222514D+00
                  0.767681D+00           0.500000D+00
            P   1   1.00
                  0.263283D+00           1.0000000
            P   1   1.00
                  0.848744D-01           1.0000000
            D   1   1.00
                  0.140000D+01           1.0000000
            D   1   1.00
                  0.450000D+00           1.0000000
            F   1   1.00
                  0.950000D+00           1.0000000
            ****
            -O     0
            S   7   1.00
                  0.135887D+05           0.665492D-03
                  0.203847D+04           0.514222D-02
                  0.464041D+03           0.263472D-01
                  0.131339D+03           0.101500D+00
                  0.425340D+02           0.285877D+00
                  0.150429D+02           0.500000D+00
                  0.546616D+01           0.368211D+00
            S   2   1.00
                  0.100915D+02          -0.100084D+00
                  0.110429D+01           0.500000D+00
            S   1   1.00
                  0.448082D+00           1.0000000
            S   1   1.00
                  0.175325D+00           1.0000000
            P   4   1.00
                  0.608220D+02           0.908253D-02
                  0.140332D+02           0.645878D-01
                  0.418244D+01           0.241502D+00
                  0.142490D+01           0.500000D+00
            P   1   1.00
                  0.478741D+00           1.0000000
            P   1   1.00
                  0.146257D+00           1.0000000
            D   1   1.00
                  0.220000D+01           1.0000000
            D   1   1.00
                  0.650000D+00           1.0000000
            F   1   1.00
                  0.110000D+01           1.0000000
            ****
            -N     0
            S   7   1.00
                  0.101643D+05           0.682757D-03
                  0.152481D+04           0.527488D-02
                  0.347119D+03           0.270037D-01
                  0.982389D+02           0.103673D+00
                  0.317799D+02           0.289575D+00
                  0.112240D+02           0.500000D+00
                  0.406611D+01           0.364621D+00
            S   2   1.00
                  0.747898D+01          -0.975681D-01
                  0.805040D+00           0.500000D+00
            S   1   1.00
                  0.324626D+00           1.0000000
            S   1   1.00
                  0.128132D+00           1.0000000
            P   4   1.00
                  0.482704D+02           0.829547D-02
                  0.110815D+02           0.596223D-01
                  0.326643D+01           0.227889D+00
                  0.111680D+01           0.500000D+00
            P   1   1.00
                  0.382049D+00           1.0000000
            P   1   1.00
                  0.121222D+00           1.0000000
            D   1   1.00
                  0.180000D+01           1.0000000
            D   1   1.00
                  0.550000D+00           1.0000000
            F   1   1.00
                  0.102000D+01           1.0000000
            ****
            -F     0
            S   7   1.00
                  0.174507D+05           0.655972D-03
                  0.261768D+04           0.506944D-02
                  0.595857D+03           0.259899D-01
                  0.168651D+03           0.100353D+00
                  0.546654D+02           0.284095D+00
                  0.193717D+02           0.500000D+00
                  0.706202D+01           0.370721D+00
            S   2   1.00
                  0.131197D+02          -0.101997D+00
                  0.145046D+01           0.500000D+00
            S   1   1.00
                  0.588255D+00           1.0000000
            S   1   1.00
                  0.227960D+00           1.0000000
            P   4   1.00
                  0.779407D+02           0.931135D-02
                  0.180425D+02           0.663964D-01
                  0.542342D+01           0.246386D+00
                  0.184876D+01           0.500000D+00
            P   1   1.00
                  0.617455D+00           1.0000000
            P   1   1.00
                  0.185496D+00           1.0000000
            D   1   1.00
                  0.280000D+01           1.0000000
            D   1   1.00
                  0.800000D+00           1.0000000
            F   1   1.00
                  0.120000D+01           1.0000000
            ****
            -Cl     0
            S   8   1.00
                  0.154272D+06           0.222473D-03
                  0.231232D+05           0.172590D-02
                  0.526257D+04           0.899286D-02
                  0.148995D+04           0.367724D-01
                  0.485417D+03           0.121446D+00
                  0.174634D+03           0.304148D+00
                  0.672393D+02           0.500000D+00
                  0.265780D+02           0.360252D+00
            S   3   1.00
                  0.131826D+03          -0.531330D-01
                  0.400703D+02          -0.233346D+00
                  0.789448D+01           0.500000D+00
            S   2   1.00
                  0.427711D+01           0.500000D+00
                  0.196233D+01           0.370517D+00
            S   1   1.00
                  0.520793D+00           1.0000000
            S   1   1.00
                  0.181633D+00           1.0000000
            P   7   1.00
                  0.124440D+04           0.988206D-03
                  0.295109D+03           0.829674D-02
                  0.947224D+02           0.430906D-01
                  0.352588D+02           0.148443D+00
                  0.144211D+02           0.344744D+00
                  0.610371D+01           0.500000D+00
                  0.258886D+01           0.348278D+00
            P   2   1.00
                  0.109447D+02          -0.196768D-01
                  0.104413D+01           0.500000D+00
            P   1   1.00
                  0.376184D+00           1.0000000
            P   1   1.00
                  0.120613D+00           1.0000000
            D   1   1.00
                  0.231000D+01           1.0000000
            D   1   1.00
                  0.520000D+00           1.0000000
            F   1   1.00
                  0.720000D+00           1.0000000
            ****
            -S     0
            S   8   1.00
                  0.134700D+06           0.226231D-03
                  0.201904D+05           0.175488D-02
                  0.459528D+04           0.914190D-02
                  0.130109D+04           0.373551D-01
                  0.423902D+03           0.123121D+00
                  0.152485D+03           0.306801D+00
                  0.586925D+02           0.500000D+00
                  0.231461D+02           0.354358D+00
            S   3   1.00
                  0.116327D+03          -0.491772D-01
                  0.352841D+02          -0.215962D+00
                  0.677831D+01           0.500000D+00
            S   2   1.00
                  0.360404D+01           0.500000D+00
                  0.164871D+01           0.366278D+00
            S   1   1.00
                  0.421821D+00           1.0000000
            S   1   1.00
                  0.147554D+00           1.0000000
            P   7   1.00
                  0.104863D+04           0.105273D-02
                  0.248717D+03           0.879338D-02
                  0.797887D+02           0.453358D-01
                  0.296023D+02           0.154476D+00
                  0.120627D+02           0.352366D+00
                  0.507628D+01           0.500000D+00
                  0.213375D+01           0.346429D+00
            P   2   1.00
                  0.928958D+01          -0.185932D-01
                  0.837819D+00           0.500000D+00
            P   1   1.00
                  0.301495D+00           1.0000000
            P   1   1.00
                  0.974740D-01           1.0000000
            D   1   1.00
                  0.210000D+01           1.0000000
            D   1   1.00
                  0.480000D+00           1.0000000
            F   1   1.00
                  0.660000D+00           1.0000000
            ****
            -Br     0
            S    10   1.00
                  0.233625D+07           0.532336D-04
                  0.349961D+06           0.413715D-03
                  0.796444D+05           0.217123D-02
                  0.225555D+05           0.910109D-02
                  0.735546D+04           0.323789D-01
                  0.265352D+04           0.988755D-01
                  0.103517D+04           0.248138D+00
                  0.422205D+03           0.474328D+00
                  0.180035D+03           0.500000D+00
                  0.793308D+02           0.187769D+00
            S    4   1.00
                  0.620834D+03          -0.226511D-01
                  0.190829D+03          -0.109497D+00
                  0.312505D+02           0.500000D+00
                  0.135270D+02           0.492812D+00
            S    2   1.00
                  0.216097D+02          -0.165418D+00
                  0.372566D+01           0.500000D+00
            S    1   1.00
                  0.169770D+01           1.0000000
            S    1   1.00
                  0.489332D+00           1.0000000
            S    1   1.00
                  0.175712D+00           1.0000000
            P    8   1.00
                  0.960829D+04           0.478974D-03
                  0.227618D+04           0.417853D-02
                  0.736723D+03           0.229315D-01
                  0.281579D+03           0.892653D-01
                  0.118395D+03           0.255288D+00
                  0.527481D+02           0.479074D+00
                  0.245098D+02           0.500000D+00
                  0.112009D+02           0.200944D+00
            P    4   1.00
                  0.587849D+02          -0.189674D-01
                  0.918962D+01           0.264104D+00
                  0.413895D+01           0.500000D+00
                  0.184225D+01           0.319316D+00
            P    1   1.00
                  0.713862D+00           1.0000000
            P    1   1.00
                  0.274232D+00           1.0000000
            P    1   1.00
                  0.944411D-01           1.0000000
            D    7   1.00
                  0.398470D+03           0.204066D-02
                  0.118967D+03           0.175171D-01
                  0.450197D+02           0.829708D-01
                  0.190320D+02           0.236284D+00
                  0.855686D+01           0.428468D+00
                  0.382950D+01           0.500000D+00
                  0.166291D+01           0.349360D+00
            D    1   1.00
                  0.672953D+00           1.0000000
            D    1   1.00
                  0.252000D+00           1.0000000
            F    1   1.00
                  0.530000D+00           1.0000000
            ****
            -Si     0
            S    8   1.00
                  0.996133D+05           0.235546D-03
                  0.149311D+05           0.182707D-02
                  0.339820D+04           0.951425D-02
                  0.962140D+03           0.388172D-01
                  0.313430D+03           0.127328D+00
                  0.112683D+03           0.313522D+00
                  0.433372D+02           0.500000D+00
                  0.170029D+02           0.340347D+00
            S    3   1.00
                  0.884208D+02          -0.404451D-01
                  0.266756D+02          -0.178059D+00
                  0.479640D+01           0.500000D+00
            S    2   1.00
                  0.239385D+01           0.500000D+00
                  0.108333D+01           0.338016D+00
            S    1   1.00
                  0.252420D+00           1.0000000
            S    1   1.00
                  0.891210D-01           1.0000000
            P    7   1.00
                  0.709901D+03           0.123028D-02
                  0.168426D+03           0.101366D-01
                  0.539946D+02           0.511840D-01
                  0.198646D+02           0.169967D+00
                  0.801369D+01           0.370717D+00
                  0.331870D+01           0.500000D+00
                  0.136112D+01           0.344128D+00
            P    2   1.00
                  0.622158D+01          -0.166609D-01
                  0.503049D+00           0.500000D+00
            P    1   1.00
                  0.179848D+00           1.0000000
            P    1   1.00
                  0.591912D-01           1.0000000
            D    1   1.00
                  0.168000D+01           1.0000000
            D    1   1.00
                  0.380000D+00           1.0000000
            F    1   1.00
                  0.540000D+00           1.0000000
            ****
            -P     0
            S    8   1.00
                  0.116416D+06           0.230715D-03
                  0.174500D+05           0.178960D-02
                  0.397149D+04           0.932116D-02
                  0.112447D+04           0.380591D-01
                  0.366347D+03           0.125148D+00
                  0.131757D+03           0.310022D+00
                  0.506988D+02           0.500000D+00
                  0.199436D+02           0.347528D+00
            S    3   1.00
                  0.101878D+03          -0.446755D-01
                  0.308249D+02          -0.196376D+00
                  0.573688D+01           0.500000D+00
            S    2   1.00
                  0.296868D+01           0.500000D+00
                  0.135315D+01           0.355098D+00
            S    1   1.00
                  0.332196D+00           1.0000000
            S    1   1.00
                  0.116229D+00           1.0000000
            P    7   1.00
                  0.873928D+03           0.112375D-02
                  0.207298D+03           0.933330D-02
                  0.664628D+02           0.477213D-01
                  0.245665D+02           0.160733D+00
                  0.996820D+01           0.359760D+00
                  0.416536D+01           0.500000D+00
                  0.173022D+01           0.346593D+00
            P    2   1.00
                  0.772530D+01          -0.175718D-01
                  0.657252D+00           0.500000D+00
            P    1   1.00
                  0.239903D+00           1.0000000
            P    1   1.00
                  0.800988D-01           1.0000000
            D    1   1.00
                  0.189000D+01           1.0000000
            D    1   1.00
                  0.430000D+00           1.0000000
            F    1   1.00
                  0.600000D+00           1.0000000
            ****
            
 Initial command:
 /usr/local/apps/g16_b01_avx/g16/l1.exe "/wrk/irikura/Gau-437721.inp" -scrdir="/wrk/irikura/"
 Entering Link 1 = /usr/local/apps/g16_b01_avx/g16/l1.exe PID=    437723.
  
 Copyright (c) 1988-2017, Gaussian, Inc.  All Rights Reserved.
  
 This is part of the Gaussian(R) 16 program.  It is based on
 the Gaussian(R) 09 system (copyright 2009, Gaussian, Inc.),
 the Gaussian(R) 03 system (copyright 2003, Gaussian, Inc.),
 the Gaussian(R) 98 system (copyright 1998, Gaussian, Inc.),
 the Gaussian(R) 94 system (copyright 1995, Gaussian, Inc.),
 the Gaussian 92(TM) system (copyright 1992, Gaussian, Inc.),
 the Gaussian 90(TM) system (copyright 1990, Gaussian, Inc.),
 the Gaussian 88(TM) system (copyright 1988, Gaussian, Inc.),
 the Gaussian 86(TM) system (copyright 1986, Carnegie Mellon
 University), and the Gaussian 82(TM) system (copyright 1983,
 Carnegie Mellon University). Gaussian is a federally registered
 trademark of Gaussian, Inc.
  
 This software contains proprietary and confidential information,
 including trade secrets, belonging to Gaussian, Inc.
  
 This software is provided under written license and may be
 used, copied, transmitted, or stored only in accord with that
 written license.
  
 The following legend is applicable only to US Government
 contracts under FAR:
  
                    RESTRICTED RIGHTS LEGEND
  
 Use, reproduction and disclosure by the US Government is
 subject to restrictions as set forth in subparagraphs (a)
 and (c) of the Commercial Computer Software - Restricted
 Rights clause in FAR 52.227-19.
  
 Gaussian, Inc.
 340 Quinnipiac St., Bldg. 40, Wallingford CT 06492
  
  
 ---------------------------------------------------------------
 Warning -- This program may not be used in any manner that
 competes with the business of Gaussian, Inc. or will provide
 assistance to any competitor of Gaussian, Inc.  The licensee
 of this program is prohibited from giving any competitor of
 Gaussian, Inc. access to this program.  By using this program,
 the user acknowledges that Gaussian, Inc. is engaged in the
 business of creating and licensing software in the field of
 computational chemistry and represents and warrants to the
 licensee that it is not a competitor of Gaussian, Inc. and that
 it will not use this program in any manner prohibited above.
 ---------------------------------------------------------------
  

 Cite this work as:
 Gaussian 16, Revision B.01,
 M. J. Frisch, G. W. Trucks, H. B. Schlegel, G. E. Scuseria, 
 M. A. Robb, J. R. Cheeseman, G. Scalmani, V. Barone, 
 G. A. Petersson, H. Nakatsuji, X. Li, M. Caricato, A. V. Marenich, 
 J. Bloino, B. G. Janesko, R. Gomperts, B. Mennucci, H. P. Hratchian, 
 J. V. Ortiz, A. F. Izmaylov, J. L. Sonnenberg, D. Williams-Young, 
 F. Ding, F. Lipparini, F. Egidi, J. Goings, B. Peng, A. Petrone, 
 T. Henderson, D. Ranasinghe, V. G. Zakrzewski, J. Gao, N. Rega, 
 G. Zheng, W. Liang, M. Hada, M. Ehara, K. Toyota, R. Fukuda, 
 J. Hasegawa, M. Ishida, T. Nakajima, Y. Honda, O. Kitao, H. Nakai, 
 T. Vreven, K. Throssell, J. A. Montgomery, Jr., J. E. Peralta, 
 F. Ogliaro, M. J. Bearpark, J. J. Heyd, E. N. Brothers, K. N. Kudin, 
 V. N. Staroverov, T. A. Keith, R. Kobayashi, J. Normand, 
 K. Raghavachari, A. P. Rendell, J. C. Burant, S. S. Iyengar, 
 J. Tomasi, M. Cossi, J. M. Millam, M. Klene, C. Adamo, R. Cammi, 
 J. W. Ochterski, R. L. Martin, K. Morokuma, O. Farkas, 
 J. B. Foresman, and D. J. Fox, Gaussian, Inc., Wallingford CT, 2016.
 
 ******************************************
 Gaussian 16:  ES64L-G16RevB.01 20-Dec-2017
                30-Sep-2023 
 ******************************************
 %chk=c2h3cl.chk
 %mem=500mw
 %nprocs=4
 Will use up to    4 processors via shared memory.
 ---------------------------------------
 # b3lyp/gen opt freq CPHF(Grid=OneStep)
 ---------------------------------------
 1/18=20,19=15,26=3,38=1/1,3;
 2/9=110,12=2,17=6,18=5,40=1/2;
 3/5=7,11=2,25=1,30=1,71=1,74=-5/1,2,3;
 4//1;
 5/5=2,38=5/2;
 6/7=2,8=2,9=2,10=2,28=1/1;
 7//1,2,3,16;
 1/18=20,19=15,26=3/3(2);
 2/9=110/2;
 99//99;
 2/9=110/2;
 3/5=7,6=1,11=2,25=1,30=1,71=1,74=-5,82=7/1,2,3;
 4/5=5,16=3,69=1/1;
 5/5=2,38=5/2;
 7//1,2,3,16;
 1/18=20,19=15,26=3/3(-5);
 2/9=110/2;
 6/7=2,8=2,9=2,10=2,19=2,28=1/1;
 99/9=1/99;
 ---------------------
 C2H3Cl, B3LYP/pcseg-2
 ---------------------
 Symbolic Z-matrix:
 Charge =  0 Multiplicity = 1
 C                     1.28825   1.04784   0. 
 C                     0.        0.75999   0. 
 H                     1.60151   2.08287   0. 
 H                     2.0533    0.28488   0. 
 H                    -0.78406   1.50238   0. 
 Cl                   -0.62355  -0.86571   0. 
 

 GradGradGradGradGradGradGradGradGradGradGradGradGradGradGradGradGradGrad
 Berny optimization.
 Initialization pass.
                           ----------------------------
                           !    Initial Parameters    !
                           ! (Angstroms and Degrees)  !
 --------------------------                            --------------------------
 ! Name  Definition              Value          Derivative Info.                !
 --------------------------------------------------------------------------------
 ! R1    R(1,2)                  1.32           estimate D2E/DX2                !
 ! R2    R(1,3)                  1.0814         estimate D2E/DX2                !
 ! R3    R(1,4)                  1.0805         estimate D2E/DX2                !
 ! R4    R(2,5)                  1.0798         estimate D2E/DX2                !
 ! R5    R(2,6)                  1.7412         estimate D2E/DX2                !
 ! A1    A(2,1,3)              119.4346         estimate D2E/DX2                !
 ! A2    A(2,1,4)              122.4823         estimate D2E/DX2                !
 ! A3    A(3,1,4)              118.083          estimate D2E/DX2                !
 ! A4    A(1,2,5)              123.9678         estimate D2E/DX2                !
 ! A5    A(1,2,6)              123.5804         estimate D2E/DX2                !
 ! A6    A(5,2,6)              112.4519         estimate D2E/DX2                !
 ! D1    D(3,1,2,5)              0.0            estimate D2E/DX2                !
 ! D2    D(3,1,2,6)            180.0            estimate D2E/DX2                !
 ! D3    D(4,1,2,5)            180.0            estimate D2E/DX2                !
 ! D4    D(4,1,2,6)              0.0            estimate D2E/DX2                !
 --------------------------------------------------------------------------------
 Trust Radius=3.00D-01 FncErr=1.00D-07 GrdErr=1.00D-06 EigMax=2.50D+02 EigMin=1.00D-04
 Number of steps in this run=     25 maximum allowed number of steps=    100.
 GradGradGradGradGradGradGradGradGradGradGradGradGradGradGradGradGradGrad

                          Input orientation:                          
 ---------------------------------------------------------------------
 Center     Atomic      Atomic             Coordinates (Angstroms)
 Number     Number       Type             X           Y           Z
 ---------------------------------------------------------------------
      1          6           0        1.288253    1.047844    0.000000
      2          6           0        0.000000    0.759985    0.000000
      3          1           0        1.601513    2.082873    0.000000
      4          1           0        2.053304    0.284876    0.000000
      5          1           0       -0.784061    1.502380    0.000000
      6         17           0       -0.623545   -0.865712    0.000000
 ---------------------------------------------------------------------
                    Distance matrix (angstroms):
                    1          2          3          4          5
     1  C    0.000000
     2  C    1.320022   0.000000
     3  H    1.081396   2.077228   0.000000
     4  H    1.080474   2.107554   1.853890   0.000000
     5  H    2.121577   1.079769   2.455185   3.087549   0.000000
     6  Cl   2.704934   1.741178   3.693919   2.913653   2.373526
                    6
     6  Cl   0.000000
 Stoichiometry    C2H3Cl
 Framework group  CS[SG(C2H3Cl)]
 Deg. of freedom     9
 Full point group                 CS      NOp   2
 Largest Abelian subgroup         CS      NOp   2
 Largest concise Abelian subgroup C1      NOp   1
                         Standard orientation:                         
 ---------------------------------------------------------------------
 Center     Atomic      Atomic             Coordinates (Angstroms)
 Number     Number       Type             X           Y           Z
 ---------------------------------------------------------------------
      1          6           0        1.288253    1.047844    0.000000
      2          6           0       -0.000000    0.759985    0.000000
      3          1           0        1.601513    2.082872    0.000000
      4          1           0        2.053304    0.284875    0.000000
      5          1           0       -0.784061    1.502380    0.000000
      6         17           0       -0.623546   -0.865712    0.000000
 ---------------------------------------------------------------------
 Rotational constants (GHZ):          58.2031860           5.9610853           5.4072796
 General basis read from cards:  (5D, 7F)
 There are   108 symmetry adapted cartesian basis functions of A'  symmetry.
 There are    46 symmetry adapted cartesian basis functions of A"  symmetry.
 There are    93 symmetry adapted basis functions of A'  symmetry.
 There are    43 symmetry adapted basis functions of A"  symmetry.
   136 basis functions,   226 primitive gaussians,   154 cartesian basis functions
    16 alpha electrons       16 beta electrons
       nuclear repulsion energy        88.7184482258 Hartrees.
 NAtoms=    6 NActive=    6 NUniq=    6 SFac= 1.00D+00 NAtFMM=   60 NAOKFM=F Big=F
 Integral buffers will be    131072 words long.
 Raffenetti 2 integral format.
 Two-electron integral symmetry is turned on.
 One-electron integrals computed using PRISM.
 NBasis=   136 RedAO= T EigKep=  4.90D-04  NBF=    93    43
 NBsUse=   136 1.00D-06 EigRej= -1.00D+00 NBFU=    93    43
 ExpMin= 7.42D-02 ExpMax= 1.54D+05 ExpMxC= 1.49D+03 IAcc=3 IRadAn=         5 AccDes= 0.00D+00
 Harris functional with IExCor=  402 and IRadAn=       5 diagonalized for initial guess.
 HarFok:  IExCor=  402 AccDes= 0.00D+00 IRadAn=         5 IDoV= 1 UseB2=F ITyADJ=14
 ICtDFT=  3500011 ScaDFX=  1.000000  1.000000  1.000000  1.000000
 FoFCou: FMM=F IPFlag=           0 FMFlag=      100000 FMFlg1=           0
         NFxFlg=           0 DoJE=T BraDBF=F KetDBF=T FulRan=T
         wScrn=  0.000000 ICntrl=       500 IOpCl=  0 I1Cent=   200000004 NGrid=           0
         NMat0=    1 NMatS0=      1 NMatT0=    0 NMatD0=    1 NMtDS0=    0 NMtDT0=    0
 Petite list used in FoFCou.
 Initial guess orbital symmetries:
       Occupied  (A') (A') (A') (A') (A') (A') (A") (A') (A') (A')
                 (A') (A') (A') (A") (A') (A")
       Virtual   (A") (A') (A') (A') (A') (A') (A") (A') (A') (A')
                 (A") (A') (A') (A') (A') (A') (A") (A') (A') (A')
                 (A") (A") (A') (A") (A') (A") (A') (A') (A') (A')
                 (A") (A') (A') (A') (A') (A") (A') (A") (A') (A")
                 (A") (A') (A') (A') (A") (A") (A') (A') (A') (A')
                 (A') (A') (A') (A") (A') (A") (A') (A") (A') (A")
                 (A') (A') (A') (A') (A') (A") (A") (A') (A') (A")
                 (A") (A') (A") (A') (A') (A") (A') (A') (A') (A")
                 (A') (A') (A") (A") (A') (A") (A') (A") (A') (A')
                 (A") (A') (A") (A") (A') (A') (A") (A') (A") (A')
                 (A") (A') (A") (A') (A') (A') (A") (A') (A') (A")
                 (A') (A') (A") (A') (A') (A') (A') (A') (A') (A')
 The electronic state of the initial guess is 1-A'.
 Keep R1 ints in memory in symmetry-blocked form, NReq=65556120.
 Requested convergence on RMS density matrix=1.00D-08 within 128 cycles.
 Requested convergence on MAX density matrix=1.00D-06.
 Requested convergence on             energy=1.00D-06.
 No special actions if energy rises.
 Integral accuracy reduced to 1.0D-05 until final iterations.
 Initial convergence to 1.0D-05 achieved.  Increase integral accuracy.
 SCF Done:  E(RB3LYP) =  -538.262487279     A.U. after   12 cycles
            NFock= 12  Conv=0.99D-08     -V/T= 2.0014

 **********************************************************************

            Population analysis using the SCF Density.

 **********************************************************************

 Orbital symmetries:
       Occupied  (A') (A') (A') (A') (A') (A") (A') (A') (A') (A')
                 (A') (A') (A') (A") (A') (A")
       Virtual   (A") (A') (A') (A') (A') (A') (A') (A") (A') (A")
                 (A') (A') (A') (A') (A') (A") (A') (A') (A') (A')
                 (A") (A") (A') (A") (A') (A') (A") (A') (A') (A')
                 (A") (A') (A') (A') (A') (A") (A') (A") (A') (A")
                 (A") (A') (A') (A') (A") (A") (A') (A') (A') (A')
                 (A') (A') (A') (A") (A') (A") (A") (A') (A') (A")
                 (A') (A') (A') (A') (A') (A") (A") (A') (A') (A")
                 (A") (A') (A") (A') (A') (A") (A') (A') (A') (A")
                 (A') (A") (A') (A") (A') (A") (A') (A") (A') (A')
                 (A") (A') (A") (A") (A') (A') (A") (A') (A") (A")
                 (A') (A') (A") (A') (A') (A') (A") (A') (A') (A")
                 (A') (A') (A") (A') (A') (A') (A') (A') (A') (A')
 The electronic state is 1-A'.
 Alpha  occ. eigenvalues -- -101.51744 -10.24007 -10.18740  -9.46265  -7.22403
 Alpha  occ. eigenvalues --   -7.21577  -7.21518  -0.87785  -0.75849  -0.59110
 Alpha  occ. eigenvalues --   -0.49551  -0.45922  -0.39127  -0.37366  -0.31939
 Alpha  occ. eigenvalues --   -0.27235
 Alpha virt. eigenvalues --   -0.02145   0.01830   0.03013   0.04620   0.08017
 Alpha virt. eigenvalues --    0.14357   0.16552   0.16682   0.19887   0.24175
 Alpha virt. eigenvalues --    0.24966   0.27390   0.31261   0.31717   0.33427
 Alpha virt. eigenvalues --    0.34613   0.35517   0.37310   0.48982   0.49845
 Alpha virt. eigenvalues --    0.51481   0.55783   0.60620   0.67046   0.68630
 Alpha virt. eigenvalues --    0.74383   0.75266   0.83279   0.93100   0.95982
 Alpha virt. eigenvalues --    0.96240   0.98096   1.00849   1.03286   1.12115
 Alpha virt. eigenvalues --    1.13734   1.15498   1.20868   1.23917   1.25220
 Alpha virt. eigenvalues --    1.37317   1.39467   1.49700   1.50470   1.55027
 Alpha virt. eigenvalues --    1.58105   1.69420   1.73405   1.77622   1.82691
 Alpha virt. eigenvalues --    1.93542   2.04087   2.10518   2.11555   2.13087
 Alpha virt. eigenvalues --    2.15728   2.18791   2.22531   2.23507   2.28785
 Alpha virt. eigenvalues --    2.30988   2.37843   2.46087   2.51903   2.74391
 Alpha virt. eigenvalues --    3.02168   3.11511   3.12307   3.27238   3.31442
 Alpha virt. eigenvalues --    3.37409   3.41709   3.46762   3.49600   3.53504
 Alpha virt. eigenvalues --    3.55814   3.61295   3.67381   3.75940   3.84047
 Alpha virt. eigenvalues --    3.86229   3.94342   3.96719   3.99499   4.06113
 Alpha virt. eigenvalues --    4.11326   4.11372   4.15908   4.19188   4.26106
 Alpha virt. eigenvalues --    4.31784   4.32028   4.36759   4.38775   4.41719
 Alpha virt. eigenvalues --    4.44666   4.45532   4.47824   4.51862   4.61273
 Alpha virt. eigenvalues --    4.61606   4.71169   4.92399   5.03103   5.05139
 Alpha virt. eigenvalues --    5.18471   5.24749   5.29859   5.35499   5.48395
 Alpha virt. eigenvalues --    5.52074   5.62270   5.69138   5.73211   5.79538
 Alpha virt. eigenvalues --    5.95395   6.10565   6.13734   6.65513  33.03780
          Condensed to atoms (all electrons):
               1          2          3          4          5          6
     1  C    4.750856   0.634306   0.415773   0.428894  -0.032633  -0.076986
     2  C    0.634306   4.732629  -0.035435  -0.049962   0.417150   0.290544
     3  H    0.415773  -0.035435   0.582970  -0.024512  -0.007445   0.008094
     4  H    0.428894  -0.049962  -0.024512   0.572274   0.007823  -0.003724
     5  H   -0.032633   0.417150  -0.007445   0.007823   0.582859  -0.062508
     6  Cl  -0.076986   0.290544   0.008094  -0.003724  -0.062508  16.959658
 Mulliken charges:
               1
     1  C   -0.120209
     2  C    0.010769
     3  H    0.060555
     4  H    0.069208
     5  H    0.094754
     6  Cl  -0.115077
 Sum of Mulliken charges =  -0.00000
 Mulliken charges with hydrogens summed into heavy atoms:
               1
     1  C    0.009554
     2  C    0.105523
     6  Cl  -0.115077
 Electronic spatial extent (au):  <R**2>=            246.0666
 Charge=             -0.0000 electrons
 Dipole moment (field-independent basis, Debye):
    X=              0.6011    Y=              1.3484    Z=              0.0000  Tot=              1.4763
 Quadrupole moment (field-independent basis, Debye-Ang):
   XX=            -23.7504   YY=            -23.3091   ZZ=            -27.2553
   XY=             -0.1666   XZ=              0.0000   YZ=              0.0000
 Traceless Quadrupole moment (field-independent basis, Debye-Ang):
   XX=              1.0212   YY=              1.4625   ZZ=             -2.4837
   XY=             -0.1666   XZ=              0.0000   YZ=              0.0000
 Octapole moment (field-independent basis, Debye-Ang**2):
  XXX=              0.9603  YYY=             -0.8912  ZZZ=              0.0000  XYY=             -1.2253
  XXY=              0.4973  XXZ=              0.0000  XZZ=             -2.1756  YZZ=             -2.7458
  YYZ=              0.0000  XYZ=              0.0000
 Hexadecapole moment (field-independent basis, Debye-Ang**3):
 XXXX=           -136.5791 YYYY=           -150.9945 ZZZZ=            -32.7310 XXXY=            -47.3798
 XXXZ=              0.0000 YYYX=            -41.1383 YYYZ=              0.0000 ZZZX=              0.0000
 ZZZY=              0.0000 XXYY=            -45.6083 XXZZ=            -31.2666 YYZZ=            -35.7568
 XXYZ=              0.0000 YYXZ=              0.0000 ZZXY=            -17.7465
 N-N= 8.871844822577D+01 E-N=-1.453161479125D+03  KE= 5.375317489827D+02
 Symmetry A'   KE= 4.893342937801D+02
 Symmetry A"   KE= 4.819745520263D+01
 Calling FoFJK, ICntrl=      2127 FMM=F ISym2X=1 I1Cent= 0 IOpClX= 0 NMat=1 NMatS=1 NMatT=0.
 ***** Axes restored to original set *****
 -------------------------------------------------------------------
 Center     Atomic                   Forces (Hartrees/Bohr)
 Number     Number              X              Y              Z
 -------------------------------------------------------------------
      1        6           0.000426853    0.000030867   -0.000000000
      2        6          -0.000380529    0.000385500   -0.000000000
      3        1          -0.000061225   -0.000127627   -0.000000000
      4        1          -0.000194989    0.000078909   -0.000000000
      5        1           0.000192647   -0.000169064   -0.000000000
      6       17           0.000017243   -0.000198585   -0.000000000
 -------------------------------------------------------------------
 Cartesian Forces:  Max     0.000426853 RMS     0.000189485

 GradGradGradGradGradGradGradGradGradGradGradGradGradGradGradGradGradGrad
 Berny optimization.
 FormGI is forming the generalized inverse of G from B-inverse, IUseBI=4.
 Internal  Forces:  Max     0.000255981 RMS     0.000128268
 Search for a local minimum.
 Step number   1 out of a maximum of   25
 All quantities printed in internal units (Hartrees-Bohrs-Radians)
 Mixed Optimization -- En-DIIS/RFO-DIIS
 Second derivative matrix not updated -- first step.
 The second derivative matrix:
                          R1        R2        R3        R4        R5
           R1           0.61926
           R2           0.00000   0.35826
           R3           0.00000   0.00000   0.35937
           R4           0.00000   0.00000   0.00000   0.36022
           R5           0.00000   0.00000   0.00000   0.00000   0.31358
           A1           0.00000   0.00000   0.00000   0.00000   0.00000
           A2           0.00000   0.00000   0.00000   0.00000   0.00000
           A3           0.00000   0.00000   0.00000   0.00000   0.00000
           A4           0.00000   0.00000   0.00000   0.00000   0.00000
           A5           0.00000   0.00000   0.00000   0.00000   0.00000
           A6           0.00000   0.00000   0.00000   0.00000   0.00000
           D1           0.00000   0.00000   0.00000   0.00000   0.00000
           D2           0.00000   0.00000   0.00000   0.00000   0.00000
           D3           0.00000   0.00000   0.00000   0.00000   0.00000
           D4           0.00000   0.00000   0.00000   0.00000   0.00000
                          A1        A2        A3        A4        A5
           A1           0.16000
           A2           0.00000   0.16000
           A3           0.00000   0.00000   0.16000
           A4           0.00000   0.00000   0.00000   0.16000
           A5           0.00000   0.00000   0.00000   0.00000   0.25000
           A6           0.00000   0.00000   0.00000   0.00000   0.00000
           D1           0.00000   0.00000   0.00000   0.00000   0.00000
           D2           0.00000   0.00000   0.00000   0.00000   0.00000
           D3           0.00000   0.00000   0.00000   0.00000   0.00000
           D4           0.00000   0.00000   0.00000   0.00000   0.00000
                          A6        D1        D2        D3        D4
           A6           0.16000
           D1           0.00000   0.03147
           D2           0.00000   0.00000   0.03147
           D3           0.00000   0.00000   0.00000   0.03147
           D4           0.00000   0.00000   0.00000   0.00000   0.03147
 ITU=  0
     Eigenvalues ---    0.03147   0.03147   0.03147   0.16000   0.16000
     Eigenvalues ---    0.16000   0.22000   0.31358   0.35826   0.35937
     Eigenvalues ---    0.36022   0.61926
 RFO step:  Lambda=-8.10574628D-07 EMin= 3.14670884D-02
 Linear search not attempted -- first point.
 Iteration  1 RMS(Cart)=  0.00063365 RMS(Int)=  0.00000026
 Iteration  2 RMS(Cart)=  0.00000024 RMS(Int)=  0.00000000
 ClnCor:  largest displacement from symmetrization is 4.21D-15 for atom     1.
 Variable       Old X    -DE/DX   Delta X   Delta X   Delta X     New X
                                 (Linear)    (Quad)   (Total)
    R1        2.49448   0.00016   0.00000   0.00026   0.00026   2.49474
    R2        2.04354  -0.00014   0.00000  -0.00039  -0.00039   2.04315
    R3        2.04180  -0.00019   0.00000  -0.00054  -0.00054   2.04126
    R4        2.04047  -0.00026   0.00000  -0.00071  -0.00071   2.03976
    R5        3.29035   0.00018   0.00000   0.00057   0.00057   3.29092
    A1        2.08453   0.00003   0.00000   0.00017   0.00017   2.08470
    A2        2.13772  -0.00010   0.00000  -0.00061  -0.00061   2.13711
    A3        2.06094   0.00007   0.00000   0.00044   0.00044   2.06138
    A4        2.16365   0.00008   0.00000   0.00035   0.00035   2.16400
    A5        2.15688  -0.00018   0.00000  -0.00083  -0.00083   2.15605
    A6        1.96266   0.00010   0.00000   0.00048   0.00048   1.96314
    D1        0.00000   0.00000   0.00000   0.00000   0.00000   0.00000
    D2        3.14159  -0.00000   0.00000   0.00000   0.00000   3.14159
    D3        3.14159  -0.00000   0.00000   0.00000   0.00000   3.14159
    D4        0.00000   0.00000   0.00000   0.00000   0.00000   0.00000
         Item               Value     Threshold  Converged?
 Maximum Force            0.000256     0.000450     YES
 RMS     Force            0.000128     0.000300     YES
 Maximum Displacement     0.001556     0.001800     YES
 RMS     Displacement     0.000634     0.001200     YES
 Predicted change in Energy=-4.052873D-07
 Optimization completed.
    -- Stationary point found.
                           ----------------------------
                           !   Optimized Parameters   !
                           ! (Angstroms and Degrees)  !
 --------------------------                            --------------------------
 ! Name  Definition              Value          Derivative Info.                !
 --------------------------------------------------------------------------------
 ! R1    R(1,2)                  1.32           -DE/DX =    0.0002              !
 ! R2    R(1,3)                  1.0814         -DE/DX =   -0.0001              !
 ! R3    R(1,4)                  1.0805         -DE/DX =   -0.0002              !
 ! R4    R(2,5)                  1.0798         -DE/DX =   -0.0003              !
 ! R5    R(2,6)                  1.7412         -DE/DX =    0.0002              !
 ! A1    A(2,1,3)              119.4346         -DE/DX =    0.0                 !
 ! A2    A(2,1,4)              122.4823         -DE/DX =   -0.0001              !
 ! A3    A(3,1,4)              118.083          -DE/DX =    0.0001              !
 ! A4    A(1,2,5)              123.9678         -DE/DX =    0.0001              !
 ! A5    A(1,2,6)              123.5804         -DE/DX =   -0.0002              !
 ! A6    A(5,2,6)              112.4519         -DE/DX =    0.0001              !
 ! D1    D(3,1,2,5)              0.0            -DE/DX =    0.0                 !
 ! D2    D(3,1,2,6)            180.0            -DE/DX =    0.0                 !
 ! D3    D(4,1,2,5)            180.0            -DE/DX =    0.0                 !
 ! D4    D(4,1,2,6)              0.0            -DE/DX =    0.0                 !
 --------------------------------------------------------------------------------
 GradGradGradGradGradGradGradGradGradGradGradGradGradGradGradGradGradGrad

                          Input orientation:                          
 ---------------------------------------------------------------------
 Center     Atomic      Atomic             Coordinates (Angstroms)
 Number     Number       Type             X           Y           Z
 ---------------------------------------------------------------------
      1          6           0        1.288253    1.047844    0.000000
      2          6           0       -0.000000    0.759985    0.000000
      3          1           0        1.601513    2.082873    0.000000
      4          1           0        2.053304    0.284876    0.000000
      5          1           0       -0.784061    1.502380    0.000000
      6         17           0       -0.623545   -0.865712    0.000000
 ---------------------------------------------------------------------
                    Distance matrix (angstroms):
                    1          2          3          4          5
     1  C    0.000000
     2  C    1.320022   0.000000
     3  H    1.081396   2.077228   0.000000
     4  H    1.080474   2.107554   1.853890   0.000000
     5  H    2.121577   1.079769   2.455185   3.087549   0.000000
     6  Cl   2.704934   1.741178   3.693919   2.913653   2.373526
                    6
     6  Cl   0.000000
 Stoichiometry    C2H3Cl
 Framework group  CS[SG(C2H3Cl)]
 Deg. of freedom     9
 Full point group                 CS      NOp   2
 Largest Abelian subgroup         CS      NOp   2
 Largest concise Abelian subgroup C1      NOp   1
                         Standard orientation:                         
 ---------------------------------------------------------------------
 Center     Atomic      Atomic             Coordinates (Angstroms)
 Number     Number       Type             X           Y           Z
 ---------------------------------------------------------------------
      1          6           0        1.288253    1.047844    0.000000
      2          6           0        0.000000    0.759985    0.000000
      3          1           0        1.601513    2.082872    0.000000
      4          1           0        2.053304    0.284875    0.000000
      5          1           0       -0.784061    1.502380    0.000000
      6         17           0       -0.623546   -0.865712    0.000000
 ---------------------------------------------------------------------
 Rotational constants (GHZ):          58.2031860           5.9610853           5.4072796
 1\1\GINC-GAMBA\FOpt\RB3LYP\Gen\C2H3Cl1\IRIKURA\30-Sep-2023\0\\# b3lyp/
 gen opt freq CPHF(Grid=OneStep)\\C2H3Cl, B3LYP/pcseg-2\\0,1\C,1.288253
 ,1.047844,0.\C,0.,0.759985,0.\H,1.601513,2.082873,0.\H,2.053304,0.2848
 76,0.\H,-0.784061,1.50238,0.\Cl,-0.623545,-0.865712,0.\\Version=ES64L-
 G16RevB.01\State=1-A'\HF=-538.2624873\RMSD=9.929e-09\RMSF=1.895e-04\Di
 pole=0.2364945,0.5305131,0.\Quadrupole=0.7592487,1.0873145,-1.8465632,
 -0.1238346,0.,0.\PG=CS [SG(C2H3Cl1)]\\@


 ALL OUR THINKING ABOUT NATURE MUST NECESSARILY MOVE IN CIRCLES OR SPIRALS;
 FOR WE CAN ONLY UNDERSTAND NATURE IF WE THINK ABOUT HER, AND WE CAN ONLY
 THINK BECAUSE OUR BRAIN IS BUILT IN ACCORDANCE WITH NATURE'S LAWS.

                                             -- TIMOTHY FERRIS, "GALAXIES"
 Job cpu time:       0 days  0 hours  0 minutes 37.7 seconds.
 Elapsed time:       0 days  0 hours  0 minutes  9.7 seconds.
 File lengths (MBytes):  RWF=     14 Int=      0 D2E=      0 Chk=      2 Scr=      1
 Normal termination of Gaussian 16 at Sat Sep 30 04:36:23 2023.
 Link1:  Proceeding to internal job step number  2.
 ------------------------------------------------------------------
 #N Geom=AllCheck Guess=TCheck SCRF=Check GenChk RB3LYP/ChkBas Freq
 ------------------------------------------------------------------
 1/10=4,29=7,30=1,38=1,40=1/1,3;
 2/12=2,40=1/2;
 3/5=7,6=2,11=2,14=-4,25=1,30=1,67=1,70=2,71=2,74=-5,82=7,116=1,140=1/1,2,3;
 4/5=101/1;
 5/5=2,38=6,98=1/2;
 8/6=4,10=90,11=11/1;
 11/6=1,8=1,9=11,15=111,16=1/1,2,10;
 10/6=1,60=-420/2;
 6/7=2,8=2,9=2,10=2,28=1/1;
 7/8=1,10=1,25=1/1,2,3,16;
 1/10=4,30=1/3;
 99//99;
 Structure from the checkpoint file:  "c2h3cl.chk"
 ---------------------
 C2H3Cl, B3LYP/pcseg-2
 ---------------------
 Charge =  0 Multiplicity = 1
 Redundant internal coordinates found in file.  (old form).
 C,0,1.288253,1.047844,0.
 C,0,0.,0.759985,0.
 H,0,1.601513,2.082873,0.
 H,0,2.053304,0.284876,0.
 H,0,-0.784061,1.50238,0.
 Cl,0,-0.623545,-0.865712,0.
 Recover connectivity data from disk.

 GradGradGradGradGradGradGradGradGradGradGradGradGradGradGradGradGradGrad
 Berny optimization.
 Initialization pass.
                           ----------------------------
                           !    Initial Parameters    !
                           ! (Angstroms and Degrees)  !
 --------------------------                            --------------------------
 ! Name  Definition              Value          Derivative Info.                !
 --------------------------------------------------------------------------------
 ! R1    R(1,2)                  1.32           calculate D2E/DX2 analytically  !
 ! R2    R(1,3)                  1.0814         calculate D2E/DX2 analytically  !
 ! R3    R(1,4)                  1.0805         calculate D2E/DX2 analytically  !
 ! R4    R(2,5)                  1.0798         calculate D2E/DX2 analytically  !
 ! R5    R(2,6)                  1.7412         calculate D2E/DX2 analytically  !
 ! A1    A(2,1,3)              119.4346         calculate D2E/DX2 analytically  !
 ! A2    A(2,1,4)              122.4823         calculate D2E/DX2 analytically  !
 ! A3    A(3,1,4)              118.083          calculate D2E/DX2 analytically  !
 ! A4    A(1,2,5)              123.9678         calculate D2E/DX2 analytically  !
 ! A5    A(1,2,6)              123.5804         calculate D2E/DX2 analytically  !
 ! A6    A(5,2,6)              112.4519         calculate D2E/DX2 analytically  !
 ! D1    D(3,1,2,5)              0.0            calculate D2E/DX2 analytically  !
 ! D2    D(3,1,2,6)            180.0            calculate D2E/DX2 analytically  !
 ! D3    D(4,1,2,5)            180.0            calculate D2E/DX2 analytically  !
 ! D4    D(4,1,2,6)              0.0            calculate D2E/DX2 analytically  !
 --------------------------------------------------------------------------------
 Trust Radius=3.00D-01 FncErr=1.00D-07 GrdErr=1.00D-07 EigMax=2.50D+02 EigMin=1.00D-04
 Number of steps in this run=      2 maximum allowed number of steps=      2.
 GradGradGradGradGradGradGradGradGradGradGradGradGradGradGradGradGradGrad

                          Input orientation:                          
 ---------------------------------------------------------------------
 Center     Atomic      Atomic             Coordinates (Angstroms)
 Number     Number       Type             X           Y           Z
 ---------------------------------------------------------------------
      1          6           0        1.288253    1.047844    0.000000
      2          6           0       -0.000000    0.759985    0.000000
      3          1           0        1.601513    2.082873    0.000000
      4          1           0        2.053304    0.284876    0.000000
      5          1           0       -0.784061    1.502380    0.000000
      6         17           0       -0.623545   -0.865712    0.000000
 ---------------------------------------------------------------------
                    Distance matrix (angstroms):
                    1          2          3          4          5
     1  C    0.000000
     2  C    1.320022   0.000000
     3  H    1.081396   2.077228   0.000000
     4  H    1.080474   2.107554   1.853890   0.000000
     5  H    2.121577   1.079769   2.455185   3.087549   0.000000
     6  Cl   2.704934   1.741178   3.693919   2.913653   2.373526
                    6
     6  Cl   0.000000
 Stoichiometry    C2H3Cl
 Framework group  CS[SG(C2H3Cl)]
 Deg. of freedom     9
 Full point group                 CS      NOp   2
 Largest Abelian subgroup         CS      NOp   2
 Largest concise Abelian subgroup C1      NOp   1
                         Standard orientation:                         
 ---------------------------------------------------------------------
 Center     Atomic      Atomic             Coordinates (Angstroms)
 Number     Number       Type             X           Y           Z
 ---------------------------------------------------------------------
      1          6           0        1.288253    1.047844    0.000000
      2          6           0        0.000000    0.759985    0.000000
      3          1           0        1.601513    2.082872    0.000000
      4          1           0        2.053304    0.284875    0.000000
      5          1           0       -0.784061    1.502380    0.000000
      6         17           0       -0.623546   -0.865712    0.000000
 ---------------------------------------------------------------------
 Rotational constants (GHZ):          58.2031860           5.9610853           5.4072796
 Basis read from chk: "c2h3cl.chk" (5D, 7F)
 There are   108 symmetry adapted cartesian basis functions of A'  symmetry.
 There are    46 symmetry adapted cartesian basis functions of A"  symmetry.
 There are    93 symmetry adapted basis functions of A'  symmetry.
 There are    43 symmetry adapted basis functions of A"  symmetry.
   136 basis functions,   226 primitive gaussians,   154 cartesian basis functions
    16 alpha electrons       16 beta electrons
       nuclear repulsion energy        88.7184482258 Hartrees.
 NAtoms=    6 NActive=    6 NUniq=    6 SFac= 1.00D+00 NAtFMM=   60 NAOKFM=F Big=F
 Integral buffers will be    131072 words long.
 Raffenetti 2 integral format.
 Two-electron integral symmetry is turned on.
 One-electron integrals computed using PRISM.
 NBasis=   136 RedAO= T EigKep=  4.90D-04  NBF=    93    43
 NBsUse=   136 1.00D-06 EigRej= -1.00D+00 NBFU=    93    43
 Initial guess from the checkpoint file:  "c2h3cl.chk"
 B after Tr=    -0.000000   -0.000000   -0.000000
         Rot=    1.000000   -0.000000   -0.000000   -0.000000 Ang=   0.00 deg.
 Initial guess orbital symmetries:
       Occupied  (A') (A') (A') (A') (A') (A") (A') (A') (A') (A')
                 (A') (A') (A') (A") (A') (A")
       Virtual   (A") (A') (A') (A') (A') (A') (A') (A") (A') (A")
                 (A') (A') (A') (A') (A') (A") (A') (A') (A') (A')
                 (A") (A") (A') (A") (A') (A') (A") (A') (A') (A')
                 (A") (A') (A') (A') (A') (A") (A') (A") (A') (A")
                 (A") (A') (A') (A') (A") (A") (A') (A') (A') (A')
                 (A') (A') (A') (A") (A') (A") (A") (A') (A') (A")
                 (A') (A') (A') (A') (A') (A") (A") (A') (A') (A")
                 (A") (A') (A") (A') (A') (A") (A') (A') (A') (A")
                 (A') (A") (A') (A") (A') (A") (A') (A") (A') (A')
                 (A") (A') (A") (A") (A') (A') (A") (A') (A") (A")
                 (A') (A') (A") (A') (A') (A') (A") (A') (A') (A")
                 (A') (A') (A") (A') (A') (A') (A') (A') (A') (A')
 Keep R1 ints in memory in symmetry-blocked form, NReq=65556120.
 Requested convergence on RMS density matrix=1.00D-08 within 128 cycles.
 Requested convergence on MAX density matrix=1.00D-06.
 Requested convergence on             energy=1.00D-06.
 No special actions if energy rises.
 SCF Done:  E(RB3LYP) =  -538.262487279     A.U. after    1 cycles
            NFock=  1  Conv=0.29D-08     -V/T= 2.0014
 DoSCS=F DFT=T ScalE2(SS,OS)=  1.000000  1.000000
 Range of M.O.s used for correlation:     1   136
 NBasis=   136 NAE=    16 NBE=    16 NFC=     0 NFV=     0
 NROrb=    136 NOA=    16 NOB=    16 NVA=   120 NVB=   120

 **** Warning!!: The largest alpha MO coefficient is  0.11539518D+02

 Symmetrizing basis deriv contribution to polar:
 IMax=3 JMax=2 DiffMx= 0.00D+00
 G2DrvN: will do     7 centers at a time, making    1 passes.
 Calling FoFCou, ICntrl=  3107 FMM=F I1Cent=   0 AccDes= 0.00D+00.
 End of G2Drv F.D. properties file   721 does not exist.
 End of G2Drv F.D. properties file   722 does not exist.
 End of G2Drv F.D. properties file   788 does not exist.
          IDoAtm=111111
          Differentiating once with respect to electric field.
                with respect to dipole field.
          Differentiating once with respect to nuclear coordinates.
 Keep R1 ints in memory in symmetry-blocked form, NReq=65559906.
          There are    21 degrees of freedom in the 1st order CPHF.  IDoFFX=6 NUNeed=     3.
     18 vectors produced by pass  0 Test12= 9.14D-15 4.76D-09 XBig12= 4.54D+01 5.26D+00.
 AX will form    18 AO Fock derivatives at one time.
     18 vectors produced by pass  1 Test12= 9.14D-15 4.76D-09 XBig12= 8.31D+00 7.89D-01.
     18 vectors produced by pass  2 Test12= 9.14D-15 4.76D-09 XBig12= 2.69D-01 1.81D-01.
     18 vectors produced by pass  3 Test12= 9.14D-15 4.76D-09 XBig12= 1.02D-03 6.31D-03.
     18 vectors produced by pass  4 Test12= 9.14D-15 4.76D-09 XBig12= 2.07D-06 2.35D-04.
     15 vectors produced by pass  5 Test12= 9.14D-15 4.76D-09 XBig12= 3.51D-09 1.24D-05.
      4 vectors produced by pass  6 Test12= 9.14D-15 4.76D-09 XBig12= 2.76D-12 3.17D-07.
      3 vectors produced by pass  7 Test12= 9.14D-15 4.76D-09 XBig12= 2.15D-15 9.37D-09.
 InvSVY:  IOpt=1 It=  1 EMax= 3.55D-15
 Solved reduced A of dimension   112 with    21 vectors.
 Isotropic polarizability for W=    0.000000       35.98 Bohr**3.
 End of Minotr F.D. properties file   721 does not exist.
 End of Minotr F.D. properties file   722 does not exist.
 End of Minotr F.D. properties file   788 does not exist.

 **********************************************************************

            Population analysis using the SCF Density.

 **********************************************************************

 Orbital symmetries:
       Occupied  (A') (A') (A') (A') (A') (A") (A') (A') (A') (A')
                 (A') (A') (A') (A") (A') (A")
       Virtual   (A") (A') (A') (A') (A') (A') (A') (A") (A') (A")
                 (A') (A') (A') (A') (A') (A") (A') (A') (A') (A')
                 (A") (A") (A') (A") (A') (A') (A") (A') (A') (A')
                 (A") (A') (A') (A') (A') (A") (A') (A") (A') (A")
                 (A") (A') (A') (A') (A") (A") (A') (A') (A') (A')
                 (A') (A') (A') (A") (A') (A") (A") (A') (A') (A")
                 (A') (A') (A') (A') (A') (A") (A") (A') (A') (A")
                 (A") (A') (A") (A') (A') (A") (A') (A') (A') (A")
                 (A') (A") (A') (A") (A') (A") (A') (A") (A') (A')
                 (A") (A') (A") (A") (A') (A') (A") (A') (A") (A")
                 (A') (A') (A") (A') (A') (A') (A") (A') (A') (A")
                 (A') (A') (A") (A') (A') (A') (A') (A') (A') (A')
 The electronic state is 1-A'.
 Alpha  occ. eigenvalues -- -101.51744 -10.24007 -10.18740  -9.46265  -7.22403
 Alpha  occ. eigenvalues --   -7.21577  -7.21518  -0.87785  -0.75849  -0.59110
 Alpha  occ. eigenvalues --   -0.49551  -0.45922  -0.39127  -0.37366  -0.31939
 Alpha  occ. eigenvalues --   -0.27235
 Alpha virt. eigenvalues --   -0.02145   0.01830   0.03013   0.04620   0.08017
 Alpha virt. eigenvalues --    0.14357   0.16552   0.16682   0.19887   0.24175
 Alpha virt. eigenvalues --    0.24966   0.27390   0.31261   0.31717   0.33427
 Alpha virt. eigenvalues --    0.34613   0.35517   0.37310   0.48982   0.49845
 Alpha virt. eigenvalues --    0.51481   0.55783   0.60620   0.67046   0.68630
 Alpha virt. eigenvalues --    0.74383   0.75266   0.83279   0.93100   0.95982
 Alpha virt. eigenvalues --    0.96240   0.98096   1.00849   1.03286   1.12115
 Alpha virt. eigenvalues --    1.13734   1.15498   1.20868   1.23917   1.25220
 Alpha virt. eigenvalues --    1.37317   1.39467   1.49700   1.50470   1.55027
 Alpha virt. eigenvalues --    1.58105   1.69420   1.73405   1.77622   1.82691
 Alpha virt. eigenvalues --    1.93542   2.04087   2.10518   2.11555   2.13087
 Alpha virt. eigenvalues --    2.15728   2.18791   2.22531   2.23507   2.28785
 Alpha virt. eigenvalues --    2.30988   2.37843   2.46087   2.51903   2.74391
 Alpha virt. eigenvalues --    3.02168   3.11511   3.12307   3.27238   3.31442
 Alpha virt. eigenvalues --    3.37409   3.41709   3.46762   3.49600   3.53504
 Alpha virt. eigenvalues --    3.55814   3.61295   3.67381   3.75940   3.84047
 Alpha virt. eigenvalues --    3.86229   3.94342   3.96719   3.99499   4.06113
 Alpha virt. eigenvalues --    4.11326   4.11372   4.15908   4.19188   4.26106
 Alpha virt. eigenvalues --    4.31784   4.32028   4.36759   4.38775   4.41719
 Alpha virt. eigenvalues --    4.44666   4.45532   4.47824   4.51861   4.61273
 Alpha virt. eigenvalues --    4.61606   4.71169   4.92399   5.03103   5.05139
 Alpha virt. eigenvalues --    5.18471   5.24749   5.29859   5.35499   5.48395
 Alpha virt. eigenvalues --    5.52074   5.62270   5.69138   5.73211   5.79538
 Alpha virt. eigenvalues --    5.95395   6.10565   6.13734   6.65513  33.03780
          Condensed to atoms (all electrons):
               1          2          3          4          5          6
     1  C    4.750857   0.634306   0.415773   0.428893  -0.032633  -0.076986
     2  C    0.634306   4.732628  -0.035435  -0.049962   0.417150   0.290544
     3  H    0.415773  -0.035435   0.582970  -0.024512  -0.007445   0.008094
     4  H    0.428893  -0.049962  -0.024512   0.572274   0.007823  -0.003724
     5  H   -0.032633   0.417150  -0.007445   0.007823   0.582859  -0.062508
     6  Cl  -0.076986   0.290544   0.008094  -0.003724  -0.062508  16.959658
 Mulliken charges:
               1
     1  C   -0.120209
     2  C    0.010770
     3  H    0.060555
     4  H    0.069208
     5  H    0.094754
     6  Cl  -0.115077
 Sum of Mulliken charges =  -0.00000
 Mulliken charges with hydrogens summed into heavy atoms:
               1
     1  C    0.009554
     2  C    0.105524
     6  Cl  -0.115077
 APT charges:
               1
     1  C   -0.206811
     2  C    0.353007
     3  H    0.056716
     4  H    0.068039
     5  H    0.036103
     6  Cl  -0.307053
 Sum of APT charges =  -0.00000
 APT charges with hydrogens summed into heavy atoms:
               1
     1  C   -0.082056
     2  C    0.389109
     6  Cl  -0.307053
 Electronic spatial extent (au):  <R**2>=            246.0666
 Charge=              0.0000 electrons
 Dipole moment (field-independent basis, Debye):
    X=              0.6011    Y=              1.3484    Z=              0.0000  Tot=              1.4763
 Quadrupole moment (field-independent basis, Debye-Ang):
   XX=            -23.7504   YY=            -23.3091   ZZ=            -27.2553
   XY=             -0.1666   XZ=              0.0000   YZ=              0.0000
 Traceless Quadrupole moment (field-independent basis, Debye-Ang):
   XX=              1.0212   YY=              1.4625   ZZ=             -2.4837
   XY=             -0.1666   XZ=              0.0000   YZ=              0.0000
 Octapole moment (field-independent basis, Debye-Ang**2):
  XXX=              0.9603  YYY=             -0.8912  ZZZ=              0.0000  XYY=             -1.2253
  XXY=              0.4973  XXZ=              0.0000  XZZ=             -2.1756  YZZ=             -2.7458
  YYZ=              0.0000  XYZ=              0.0000
 Hexadecapole moment (field-independent basis, Debye-Ang**3):
 XXXX=           -136.5792 YYYY=           -150.9945 ZZZZ=            -32.7310 XXXY=            -47.3798
 XXXZ=              0.0000 YYYX=            -41.1383 YYYZ=              0.0000 ZZZX=              0.0000
 ZZZY=              0.0000 XXYY=            -45.6083 XXZZ=            -31.2666 YYZZ=            -35.7568
 XXYZ=              0.0000 YYXZ=              0.0000 ZZXY=            -17.7465
 N-N= 8.871844822577D+01 E-N=-1.453161476245D+03  KE= 5.375317481330D+02
 Symmetry A'   KE= 4.893342932358D+02
 Symmetry A"   KE= 4.819745489722D+01
  Exact polarizability:  43.552  10.050  40.986   0.000   0.000  23.406
 Approx polarizability:  66.541  15.458  58.590  -0.000  -0.000  33.347
 Calling FoFJK, ICntrl=    100127 FMM=F ISym2X=1 I1Cent= 0 IOpClX= 0 NMat=1 NMatS=1 NMatT=0.
 Full mass-weighted force constant matrix:
 Low frequencies ---   -4.8756    0.0044    0.0056    0.0061    3.4557   24.5691
 Low frequencies ---  400.1986  638.9515  706.6511
 Diagonal vibrational polarizability:
        1.3567597       2.5485185       3.0780278
 Harmonic frequencies (cm**-1), IR intensities (KM/Mole), Raman scattering
 activities (A**4/AMU), depolarization ratios for plane and unpolarized
 incident light, reduced masses (AMU), force constants (mDyne/A),
 and normal coordinates:
                      1                      2                      3
                     A'                     A"                     A'
 Frequencies --    400.1984               638.9476               706.6511
 Red. masses --      2.9773                 1.4193                 4.2573
 Frc consts  --      0.2809                 0.3414                 1.2525
 IR Inten    --      0.2692                14.8184                46.1973
  Atom  AN      X      Y      Z        X      Y      Z        X      Y      Z
     1   6     0.13   0.23   0.00     0.00   0.00   0.04     0.12   0.12  -0.00
     2   6     0.19  -0.12  -0.00    -0.00   0.00  -0.18     0.03   0.40   0.00
     3   1    -0.33   0.37   0.00     0.00  -0.00   0.79     0.72  -0.05  -0.00
     4   1     0.48   0.58  -0.00    -0.00  -0.00  -0.45    -0.29  -0.29   0.00
     5   1     0.17  -0.15   0.00    -0.00   0.00   0.36    -0.07   0.29  -0.00
     6  17    -0.12  -0.06   0.00    -0.00  -0.00   0.03    -0.06  -0.18  -0.00
                      4                      5                      6
                     A"                     A"                     A'
 Frequencies --    937.8710               981.3822              1044.6396
 Red. masses --      1.3738                 1.0857                 1.4333
 Frc consts  --      0.7120                 0.6161                 0.9215
 IR Inten    --     39.5483                31.8970                17.0669
  Atom  AN      X      Y      Z        X      Y      Z        X      Y      Z
     1   6    -0.00  -0.00  -0.17     0.00  -0.00   0.00    -0.01   0.14   0.00
     2   6    -0.00  -0.00   0.06    -0.00   0.00  -0.08     0.03  -0.13  -0.00
     3   1     0.00  -0.00   0.70     0.00  -0.00  -0.30     0.61  -0.06  -0.00
     4   1    -0.00  -0.00   0.68     0.00   0.00   0.52    -0.45  -0.33   0.00
     5   1    -0.00  -0.00  -0.09     0.00   0.00   0.80    -0.26  -0.45   0.00
     6  17     0.00   0.00  -0.00    -0.00  -0.00  -0.00    -0.01   0.02  -0.00
                      7                      8                      9
                     A'                     A'                     A'
 Frequencies --   1307.9824              1410.3068              1665.0502
 Red. masses --      1.1844                 1.1865                 4.3342
 Frc consts  --      1.1939                 1.3904                 7.0796
 IR Inten    --     11.6357                 9.9857                63.3468
  Atom  AN      X      Y      Z        X      Y      Z        X      Y      Z
     1   6    -0.07   0.06  -0.00     0.00   0.01  -0.00     0.39   0.09   0.00
     2   6     0.03  -0.08   0.00    -0.12  -0.05   0.00    -0.36  -0.12  -0.00
     3   1     0.07   0.01   0.00     0.68  -0.18   0.00    -0.39   0.37  -0.00
     4   1    -0.30  -0.16  -0.00     0.48   0.46  -0.00    -0.15  -0.53   0.00
     5   1     0.68   0.63  -0.00     0.08   0.18  -0.00    -0.04   0.33   0.00
     6  17     0.00  -0.01   0.00     0.00   0.00   0.00     0.01   0.00  -0.00
                     10                     11                     12
                     A'                     A'                     A'
 Frequencies --   3152.7330              3204.3422              3243.4528
 Red. masses --      1.0578                 1.0967                 1.1161
 Frc consts  --      6.1950                 6.6349                 6.9180
 IR Inten    --      0.0376                 3.9324                 2.3729
  Atom  AN      X      Y      Z        X      Y      Z        X      Y      Z
     1   6    -0.06  -0.02  -0.00     0.02  -0.01   0.00     0.03  -0.09  -0.00
     2   6    -0.00   0.01  -0.00    -0.07   0.05   0.00     0.01  -0.01   0.00
     3   1     0.21   0.72   0.00     0.01   0.03  -0.00     0.20   0.62   0.00
     4   1     0.45  -0.46   0.00    -0.17   0.17  -0.00    -0.52   0.50  -0.00
     5   1     0.10  -0.09   0.00     0.71  -0.66  -0.00    -0.15   0.14  -0.00
     6  17     0.00   0.00   0.00     0.00   0.00  -0.00     0.00   0.00   0.00

 -------------------
 - Thermochemistry -
 -------------------
 Temperature   298.150 Kelvin.  Pressure   1.00000 Atm.
 Atom     1 has atomic number  6 and mass  12.00000
 Atom     2 has atomic number  6 and mass  12.00000
 Atom     3 has atomic number  1 and mass   1.00783
 Atom     4 has atomic number  1 and mass   1.00783
 Atom     5 has atomic number  1 and mass   1.00783
 Atom     6 has atomic number 17 and mass  34.96885
 Molecular mass:    61.99233 amu.
 Principal axes and moments of inertia in atomic units:
                           1         2         3
     Eigenvalues --    31.00760 302.75380 333.76140
           X            0.64938   0.76046   0.00000
           Y            0.76046  -0.64938   0.00000
           Z            0.00000  -0.00000   1.00000
 This molecule is an asymmetric top.
 Rotational symmetry number  1.
 Rotational temperatures (Kelvin)      2.79331     0.28609     0.25951
 Rotational constants (GHZ):          58.20319     5.96109     5.40728
 Zero-point vibrational energy     111812.3 (Joules/Mol)
                                   26.72378 (Kcal/Mol)
 Warning -- explicit consideration of   1 degrees of freedom as
           vibrations may cause significant error
 Vibrational temperatures:    575.80   919.30  1016.71  1349.39  1411.99
          (Kelvin)           1503.00  1881.89  2029.12  2395.64  4536.08
                             4610.33  4666.61
 
 Zero-point correction=                           0.042587 (Hartree/Particle)
 Thermal correction to Energy=                    0.046116
 Thermal correction to Enthalpy=                  0.047060
 Thermal correction to Gibbs Free Energy=         0.017149
 Sum of electronic and zero-point Energies=           -538.219900
 Sum of electronic and thermal Energies=              -538.216371
 Sum of electronic and thermal Enthalpies=            -538.215427
 Sum of electronic and thermal Free Energies=         -538.245338
 
                     E (Thermal)             CV                S
                      KCal/Mol        Cal/Mol-Kelvin    Cal/Mol-Kelvin
 Total                   28.938             10.666             62.953
 Electronic               0.000              0.000              0.000
 Translational            0.889              2.981             38.293
 Rotational               0.889              2.981             22.665
 Vibrational             27.161              4.704              1.996
 Vibration     1          0.766              1.470              0.962
                       Q            Log10(Q)             Ln(Q)
 Total Bot       0.129387D-07         -7.888110        -18.163045
 Total V=0       0.501833D+12         11.700559         26.941533
 Vib (Bot)       0.336579D-19        -19.472913        -44.838040
 Vib (Bot)    1  0.445305D+00         -0.351343         -0.808997
 Vib (V=0)       0.130544D+01          0.115756          0.266537
 Vib (V=0)    1  0.116955D+01          0.068019          0.156618
 Electronic      0.100000D+01          0.000000          0.000000
 Translational   0.191850D+08          7.282961         16.769637
 Rotational      0.200375D+05          4.301843          9.905359
 ***** Axes restored to original set *****
 -------------------------------------------------------------------
 Center     Atomic                   Forces (Hartrees/Bohr)
 Number     Number              X              Y              Z
 -------------------------------------------------------------------
      1        6           0.000426799    0.000030862   -0.000000000
      2        6          -0.000380552    0.000385466   -0.000000000
      3        1          -0.000061213   -0.000127595   -0.000000000
      4        1          -0.000194966    0.000078887   -0.000000000
      5        1           0.000192672   -0.000169080   -0.000000000
      6       17           0.000017260   -0.000198540   -0.000000000
 -------------------------------------------------------------------
 Cartesian Forces:  Max     0.000426799 RMS     0.000189473
 FormGI is forming the generalized inverse of G from B-inverse, IUseBI=4.

 GradGradGradGradGradGradGradGradGradGradGradGradGradGradGradGradGradGrad
 Berny optimization.
 Internal  Forces:  Max     0.000256010 RMS     0.000128259
 Search for a local minimum.
 Step number   1 out of a maximum of    2
 All quantities printed in internal units (Hartrees-Bohrs-Radians)
 Second derivative matrix not updated -- analytic derivatives used.
 The second derivative matrix:
                          R1        R2        R3        R4        R5
           R1           0.63123
           R2           0.00553   0.35966
           R3           0.00557   0.00168   0.36195
           R4           0.00546   0.00066  -0.00042   0.36106
           R5           0.03143  -0.00104   0.00011   0.00610   0.23209
           A1           0.00930   0.00629  -0.01136  -0.00213   0.00717
           A2           0.01207  -0.01154   0.00669   0.00310  -0.00575
           A3          -0.02137   0.00525   0.00467  -0.00097  -0.00142
           A4           0.01001  -0.00315   0.00473   0.00765  -0.03864
           A5           0.01083   0.00472  -0.00503  -0.00701   0.02480
           A6          -0.02084  -0.00157   0.00030  -0.00064   0.01384
           D1          -0.00000   0.00000   0.00000   0.00000   0.00000
           D2          -0.00000   0.00000   0.00000   0.00000  -0.00000
           D3           0.00000   0.00000   0.00000  -0.00000  -0.00000
           D4           0.00000  -0.00000  -0.00000  -0.00000  -0.00000
                          A1        A2        A3        A4        A5
           A1           0.07595
           A2          -0.04134   0.07565
           A3          -0.03461  -0.03431   0.06892
           A4          -0.00842   0.00991  -0.00149   0.08782
           A5           0.00984  -0.00880  -0.00104  -0.05659   0.11859
           A6          -0.00142  -0.00111   0.00253  -0.03123  -0.06200
           D1           0.00000   0.00000  -0.00000   0.00000   0.00000
           D2           0.00000   0.00000  -0.00000  -0.00000   0.00000
           D3           0.00000  -0.00000  -0.00000   0.00000  -0.00000
           D4          -0.00000  -0.00000   0.00000  -0.00000  -0.00000
                          A6        D1        D2        D3        D4
           A6           0.09323
           D1          -0.00000   0.02334
           D2          -0.00000   0.00602   0.03467
           D3           0.00000   0.00703  -0.01651   0.02894
           D4           0.00000  -0.01030   0.01215   0.00540   0.02785
 ITU=  0
     Eigenvalues ---    0.02885   0.03537   0.05058   0.09929   0.10311
     Eigenvalues ---    0.11755   0.17097   0.25337   0.36039   0.36165
     Eigenvalues ---    0.36326   0.63656
 Angle between quadratic step and forces=  29.73 degrees.
 Linear search not attempted -- first point.
 Iteration  1 RMS(Cart)=  0.00100326 RMS(Int)=  0.00000066
 Iteration  2 RMS(Cart)=  0.00000064 RMS(Int)=  0.00000000
 ClnCor:  largest displacement from symmetrization is 6.59D-14 for atom     2.
 Variable       Old X    -DE/DX   Delta X   Delta X   Delta X     New X
                                 (Linear)    (Quad)   (Total)
    R1        2.49448   0.00016   0.00000   0.00029   0.00029   2.49477
    R2        2.04354  -0.00014   0.00000  -0.00041  -0.00041   2.04313
    R3        2.04180  -0.00019   0.00000  -0.00055  -0.00055   2.04125
    R4        2.04047  -0.00026   0.00000  -0.00076  -0.00076   2.03971
    R5        3.29035   0.00018   0.00000   0.00098   0.00098   3.29133
    A1        2.08453   0.00003   0.00000   0.00023   0.00023   2.08476
    A2        2.13772  -0.00010   0.00000  -0.00102  -0.00102   2.13670
    A3        2.06094   0.00007   0.00000   0.00078   0.00078   2.06172
    A4        2.16365   0.00008   0.00000   0.00087   0.00087   2.16452
    A5        2.15688  -0.00018   0.00000  -0.00128  -0.00128   2.15560
    A6        1.96266   0.00010   0.00000   0.00041   0.00041   1.96307
    D1        0.00000  -0.00000   0.00000   0.00000   0.00000   0.00000
    D2        3.14159  -0.00000   0.00000   0.00000   0.00000   3.14159
    D3        3.14159   0.00000   0.00000  -0.00000   0.00000   3.14159
    D4        0.00000   0.00000   0.00000  -0.00000   0.00000   0.00000
         Item               Value     Threshold  Converged?
 Maximum Force            0.000256     0.000450     YES
 RMS     Force            0.000128     0.000300     YES
 Maximum Displacement     0.002293     0.001800     NO 
 RMS     Displacement     0.001003     0.001200     YES
 Predicted change in Energy=-5.446927D-07
                           ----------------------------
                           ! Non-Optimized Parameters !
                           ! (Angstroms and Degrees)  !
 --------------------------                            --------------------------
 ! Name  Definition              Value          Derivative Info.                !
 --------------------------------------------------------------------------------
 ! R1    R(1,2)                  1.3202         -DE/DX =    0.0002              !
 ! R2    R(1,3)                  1.0812         -DE/DX =   -0.0001              !
 ! R3    R(1,4)                  1.0802         -DE/DX =   -0.0002              !
 ! R4    R(2,5)                  1.0794         -DE/DX =   -0.0003              !
 ! R5    R(2,6)                  1.7417         -DE/DX =    0.0002              !
 ! A1    A(2,1,3)              119.4481         -DE/DX =    0.0                 !
 ! A2    A(2,1,4)              122.424          -DE/DX =   -0.0001              !
 ! A3    A(3,1,4)              118.1279         -DE/DX =    0.0001              !
 ! A4    A(1,2,5)              124.0178         -DE/DX =    0.0001              !
 ! A5    A(1,2,6)              123.5069         -DE/DX =   -0.0002              !
 ! A6    A(5,2,6)              112.4754         -DE/DX =    0.0001              !
 ! D1    D(3,1,2,5)              0.0            -DE/DX =    0.0                 !
 ! D2    D(3,1,2,6)            180.0            -DE/DX =    0.0                 !
 ! D3    D(4,1,2,5)            180.0            -DE/DX =    0.0                 !
 ! D4    D(4,1,2,6)              0.0            -DE/DX =    0.0                 !
 --------------------------------------------------------------------------------
 GradGradGradGradGradGradGradGradGradGradGradGradGradGradGradGradGradGrad


 ----------------------------------------------------------------------

 Electric dipole moment (input orientation):
 (Debye = 10**-18 statcoulomb cm , SI units = C m)
                  (au)            (Debye)         (10**-30 SI)
   Tot        0.580838D+00      0.147634D+01      0.492455D+01
   x          0.236494D+00      0.601107D+00      0.200508D+01
   y          0.530512D+00      0.134843D+01      0.449787D+01
   z          0.000000D+00      0.000000D+00      0.000000D+00

 Dipole polarizability, Alpha (input orientation).
 (esu units = cm**3 , SI units = C**2 m**2 J**-1)
 Alpha(0;0):
               (au)            (10**-24 esu)      (10**-40 SI)
   iso        0.359813D+02      0.533188D+01      0.593251D+01
   aniso      0.257634D+02      0.381774D+01      0.424781D+01
   xx         0.435521D+02      0.645376D+01      0.718078D+01
   yx         0.100496D+02      0.148920D+01      0.165696D+01
   yy         0.409861D+02      0.607351D+01      0.675769D+01
   zx         0.000000D+00      0.000000D+00      0.000000D+00
   zy         0.000000D+00      0.000000D+00      0.000000D+00
   zz         0.234057D+02      0.346837D+01      0.385908D+01

 ----------------------------------------------------------------------

 Dipole orientation:
     6          1.29448773         -0.57706139          2.79978089
     6         -0.53408346          0.23808564          1.31173004
     1          1.06095418         -0.47295597          4.82726395
     1          3.03673166         -1.35372516          2.07154782
     1         -2.29183791          1.02166374          1.98982755
    17         -0.37460345          0.16699207         -1.97398234

 Electric dipole moment (dipole orientation):
 (Debye = 10**-18 statcoulomb cm , SI units = C m)
                  (au)            (Debye)         (10**-30 SI)
   Tot        0.580838D+00      0.147634D+01      0.492455D+01
   x          0.000000D+00      0.000000D+00      0.000000D+00
   y          0.000000D+00      0.000000D+00      0.000000D+00
   z          0.580838D+00      0.147634D+01      0.492455D+01

 Dipole polarizability, Alpha (dipole orientation).
 (esu units = cm**3 , SI units = C**2 m**2 J**-1)
 Alpha(0;0):
               (au)            (10**-24 esu)      (10**-40 SI)
   iso        0.359813D+02      0.533188D+01      0.593251D+01
   aniso      0.257634D+02      0.381774D+01      0.424781D+01
   xx         0.336220D+02      0.498226D+01      0.554351D+01
   yx        -0.455425D+01     -0.674869D+00     -0.750894D+00
   yy         0.254359D+02      0.376921D+01      0.419381D+01
   zx         0.700717D+01      0.103836D+01      0.115533D+01
   zy        -0.312368D+01     -0.462882D+00     -0.515025D+00
   zz         0.488860D+02      0.724416D+01      0.806022D+01

 ----------------------------------------------------------------------
 1\1\GINC-GAMBA\Freq\RB3LYP\Gen\C2H3Cl1\IRIKURA\30-Sep-2023\0\\#N Geom=
 AllCheck Guess=TCheck SCRF=Check GenChk RB3LYP/ChkBas Freq\\C2H3Cl, B3
[...]
 ! R3    R(1,4)                  1.0805                                         !
 ! R4    R(2,5)                  1.0798                                         !
 ! R5    R(2,6)                  1.7412                                         !
 ! A1    A(2,1,3)              119.4346                                         !
 ! A2    A(2,1,4)              122.4823                                         !
 ! A3    A(3,1,4)              118.083                                          !
 ! A4    A(1,2,5)              123.9678                                         !
 ! A5    A(1,2,6)              123.5804                                         !
 ! A6    A(5,2,6)              112.4519                                         !
 ! D1    D(3,1,2,5)              0.0                                            !
 ! D2    D(3,1,2,6)            180.0                                            !
 ! D3    D(4,1,2,5)            180.0                                            !
 ! D4    D(4,1,2,6)              0.0                                            !
 --------------------------------------------------------------------------------
                          Input orientation:                          
 ---------------------------------------------------------------------
 Center     Atomic      Atomic             Coordinates (Angstroms)
 Number     Number       Type             X           Y           Z
 ---------------------------------------------------------------------
      1          6           0        1.288253    1.047844    0.000000
      2          6           0        0.000000    0.759985    0.000000
      3          1           0        1.601513    2.082873    0.000000
      4          1           0        2.053304    0.284876    0.000000
      5          1           0       -0.784061    1.502380    0.000000
      6         17           0       -0.623545   -0.865712    0.000000
 ---------------------------------------------------------------------
                    Distance matrix (angstroms):
                    1          2          3          4          5
     1  C    0.000000
     2  C    1.320022   0.000000
     3  H    1.081396   2.077228   0.000000
     4  H    1.080474   2.107554   1.853890   0.000000
     5  H    2.121577   1.079769   2.455185   3.087549   0.000000
     6  Cl   2.704934   1.741178   3.693919   2.913653   2.373526
                    6
     6  Cl   0.000000
 Stoichiometry    C2H3Cl
 Framework group  CS[SG(C2H3Cl)]
 Deg. of freedom     9
 Full point group                 CS      NOp   2
 Largest Abelian subgroup         CS      NOp   2
 Largest concise Abelian subgroup C1      NOp   1
                         Standard orientation:                         
 ---------------------------------------------------------------------
 Center     Atomic      Atomic             Coordinates (Angstroms)
 Number     Number       Type             X           Y           Z
 ---------------------------------------------------------------------
      1          6           0        1.288253    1.047844    0.000000
      2          6           0        0.000000    0.759985    0.000000
      3          1           0        1.601513    2.082872    0.000000
      4          1           0        2.053304    0.284875    0.000000
      5          1           0       -0.784061    1.502380    0.000000
      6         17           0       -0.623546   -0.865712    0.000000
 ---------------------------------------------------------------------
 Rotational constants (GHZ):          58.2031860           5.9610853           5.4072796
 General basis read from cards:  (5D, 7F)
 There are   175 symmetry adapted cartesian basis functions of A'  symmetry.
 There are    78 symmetry adapted cartesian basis functions of A"  symmetry.
 There are   150 symmetry adapted basis functions of A'  symmetry.
 There are    72 symmetry adapted basis functions of A"  symmetry.
   222 basis functions,   348 primitive gaussians,   253 cartesian basis functions
    16 alpha electrons       16 beta electrons
       nuclear repulsion energy        88.7184482258 Hartrees.
 NAtoms=    6 NActive=    6 NUniq=    6 SFac= 1.00D+00 NAtFMM=   60 NAOKFM=F Big=F
 Integral buffers will be    131072 words long.
 Raffenetti 2 integral format.
 Two-electron integral symmetry is turned on.
 One-electron integrals computed using PRISM.
 NBasis=   222 RedAO= T EigKep=  8.66D-05  NBF=   150    72
 NBsUse=   222 1.00D-06 EigRej= -1.00D+00 NBFU=   150    72
 Initial guess from the checkpoint file:  "c2h3cl.chk"
 B after Tr=     0.000000    0.000000    0.000000
         Rot=    1.000000   -0.000000   -0.000000   -0.000000 Ang=   0.00 deg.
 Initial guess orbital symmetries:
       Occupied  (A') (A') (A') (A') (A') (A") (A') (A') (A') (A')
                 (A') (A') (A') (A") (A') (A")
       Virtual   (A") (A') (A') (A') (A') (A') (A') (A") (A') (A")
                 (A') (A') (A') (A') (A') (A") (A') (A') (A') (A')
                 (A") (A") (A') (A") (A') (A') (A") (A') (A') (A')
                 (A") (A') (A') (A') (A') (A") (A') (A") (A') (A")
                 (A") (A') (A') (A') (A") (A") (A') (A') (A') (A')
                 (A') (A') (A') (A") (A') (A") (A") (A') (A') (A")
                 (A') (A') (A') (A') (A') (A") (A") (A') (A') (A")
                 (A") (A') (A") (A') (A') (A") (A') (A') (A') (A")
                 (A') (A") (A') (A") (A') (A") (A') (A") (A') (A')
                 (A") (A') (A") (A") (A') (A') (A") (A') (A") (A")
                 (A') (A') (A") (A') (A') (A') (A") (A') (A') (A")
                 (A') (A') (A") (A') (A') (A') (A') (A') (A') (A')
                 (A') (A') (A') (A') (A') (A') (A') (A') (A') (A')
                 (A') (A') (A') (A') (A') (A') (A') (A') (A') (A')
                 (A') (A') (A') (A') (A') (A') (A') (A') (A') (A')
                 (A') (A') (A') (A') (A') (A') (A') (A') (A') (A')
                 (A') (A') (A') (A') (A') (A') (A') (A') (A') (A')
                 (A') (A') (A') (A') (A') (A') (A') (A") (A") (A")
                 (A") (A") (A") (A") (A") (A") (A") (A") (A") (A")
                 (A") (A") (A") (A") (A") (A") (A") (A") (A") (A")
                 (A") (A") (A") (A") (A") (A")
 Keep R1 and R2 ints in memory in symmetry-blocked form, NReq=467080677.
 Requested convergence on RMS density matrix=1.00D-08 within 128 cycles.
 Requested convergence on MAX density matrix=1.00D-06.
 Requested convergence on             energy=1.00D-06.
 No special actions if energy rises.
 SCF Done:  E(ROHF) =  -537.010928735     A.U. after   11 cycles
            NFock= 11  Conv=0.92D-08     -V/T= 2.0002
 <Sx>= 0.0000 <Sy>= 0.0000 <Sz>= 0.0000 <S**2>=-0.0000 S=-0.0000
 <L.S>=  0.00000000000    
 Annihilation of the first spin contaminant:
 S**2 before annihilation    -0.0000,   after    -0.0000

 **********************************************************************

            Population analysis using the SCF Density.

 **********************************************************************

 Orbital symmetries:
       Occupied  (A') (A') (A') (A') (A') (A') (A") (A') (A') (A')
                 (A') (A') (A') (A") (A') (A")
       Virtual   (A') (A') (A') (A") (A') (A") (A') (A") (A') (A')
                 (A") (A') (A') (A') (A') (A') (A') (A') (A') (A")
                 (A') (A") (A') (A') (A") (A') (A') (A") (A') (A")
                 (A') (A") (A') (A") (A') (A') (A') (A') (A') (A")
                 (A') (A') (A') (A') (A") (A') (A") (A') (A') (A')
                 (A') (A') (A") (A") (A') (A") (A') (A') (A') (A")
                 (A') (A") (A') (A") (A') (A") (A') (A") (A') (A')
                 (A") (A') (A") (A') (A') (A") (A') (A") (A') (A')
                 (A") (A') (A") (A') (A") (A') (A') (A') (A') (A")
                 (A') (A') (A") (A') (A") (A") (A') (A") (A') (A')
                 (A") (A') (A") (A') (A') (A") (A') (A") (A') (A')
                 (A') (A") (A') (A') (A') (A") (A') (A") (A') (A')
                 (A') (A") (A') (A') (A") (A') (A") (A') (A') (A')
                 (A") (A") (A') (A') (A') (A') (A') (A') (A') (A")
                 (A") (A") (A') (A') (A") (A') (A") (A') (A') (A")
                 (A') (A") (A") (A') (A") (A') (A') (A') (A") (A')
                 (A') (A") (A') (A") (A") (A') (A') (A') (A") (A')
                 (A') (A') (A') (A') (A') (A') (A") (A") (A") (A')
                 (A") (A') (A') (A') (A') (A') (A') (A') (A') (A")
                 (A") (A') (A') (A') (A') (A") (A') (A") (A') (A')
                 (A') (A') (A') (A") (A') (A')
 The electronic state is 1-A'.
 Alpha  occ. eigenvalues -- -104.84040 -11.30202 -11.24664 -10.56545  -8.03248
 Alpha  occ. eigenvalues --   -8.03090  -8.03088  -1.15563  -1.01794  -0.79428
 Alpha  occ. eigenvalues --   -0.66368  -0.61780  -0.52936  -0.51084  -0.45470
 Alpha  occ. eigenvalues --   -0.37472
 Alpha virt. eigenvalues --    0.05138   0.05652   0.06471   0.07777   0.08463
 Alpha virt. eigenvalues --    0.09448   0.11033   0.12374   0.12730   0.14310
 Alpha virt. eigenvalues --    0.16122   0.18175   0.19667   0.22007   0.23628
 Alpha virt. eigenvalues --    0.26438   0.27882   0.32550   0.37372   0.40267
 Alpha virt. eigenvalues --    0.41335   0.42281   0.42947   0.47312   0.47317
 Alpha virt. eigenvalues --    0.47989   0.49611   0.49806   0.49919   0.50941
 Alpha virt. eigenvalues --    0.51476   0.53790   0.56361   0.58720   0.59905
 Alpha virt. eigenvalues --    0.63113   0.65104   0.67046   0.68392   0.72575
 Alpha virt. eigenvalues --    0.73602   0.79672   0.87458   0.88520   0.89231
 Alpha virt. eigenvalues --    0.92686   0.93313   1.00197   1.03746   1.05376
 Alpha virt. eigenvalues --    1.07522   1.09888   1.11095   1.16970   1.25528
 Alpha virt. eigenvalues --    1.26774   1.27101   1.30266   1.33114   1.34298
 Alpha virt. eigenvalues --    1.35515   1.37508   1.40925   1.44630   1.45873
 Alpha virt. eigenvalues --    1.48809   1.50037   1.51888   1.52267   1.56383
 Alpha virt. eigenvalues --    1.59196   1.60702   1.65849   1.66756   1.69661
 Alpha virt. eigenvalues --    1.70688   1.72128   1.74224   1.76238   1.77820
 Alpha virt. eigenvalues --    1.78792   1.84004   1.85788   1.88967   1.89118
 Alpha virt. eigenvalues --    1.90714   1.92009   1.94598   1.97468   2.01263
 Alpha virt. eigenvalues --    2.05519   2.10565   2.11384   2.14340   2.18625
 Alpha virt. eigenvalues --    2.23392   2.25302   2.28634   2.29115   2.31732
 Alpha virt. eigenvalues --    2.33865   2.35844   2.39680   2.39831   2.47861
 Alpha virt. eigenvalues --    2.48044   2.49091   2.57790   2.65627   2.69328
 Alpha virt. eigenvalues --    2.73316   2.77173   2.78649   2.83939   2.91390
 Alpha virt. eigenvalues --    2.95633   3.02174   3.12336   3.13006   3.20705
 Alpha virt. eigenvalues --    3.27377   3.28662   3.34374   3.43534   3.46687
 Alpha virt. eigenvalues --    3.47166   3.50725   3.50866   3.56279   3.58922
 Alpha virt. eigenvalues --    3.59173   3.63517   3.71773   3.79970   3.83014
 Alpha virt. eigenvalues --    3.86636   3.91548   4.09557   4.24002   4.50648
 Alpha virt. eigenvalues --    4.58070   4.71469   4.71592   4.78517   4.87049
 Alpha virt. eigenvalues --    4.91588   4.91624   4.95625   5.03840   5.05425
 Alpha virt. eigenvalues --    5.18139   5.23388   5.26187   5.29304   5.35362
 Alpha virt. eigenvalues --    5.38161   5.57422   5.62785   5.71699   5.82084
 Alpha virt. eigenvalues --    5.86826   5.91947   5.95316   6.08024   6.11791
 Alpha virt. eigenvalues --    6.15738   6.26129   6.35140   6.36770   6.44854
 Alpha virt. eigenvalues --    6.77828   6.85954   7.12810   7.21479   7.30632
 Alpha virt. eigenvalues --    7.74133   8.03218   8.09597   8.20880   8.39500
 Alpha virt. eigenvalues --    8.45080   8.58511   8.84077   8.98989   9.06447
 Alpha virt. eigenvalues --    9.30858   9.41213   9.61928   9.74449  20.57002
 Alpha virt. eigenvalues --   20.99709  21.40753  21.60368  21.73647  22.08326
 Alpha virt. eigenvalues --   22.17511  22.21236  22.25091  22.39367  22.44249
 Alpha virt. eigenvalues --   23.16199  24.00220  24.65470  28.40979  28.50995
 Alpha virt. eigenvalues --   28.87578
          Condensed to atoms (all electrons):
               1          2          3          4          5          6
     1  C    4.975524   0.587016   0.431146   0.429659  -0.022037  -0.093721
     2  C    0.587016   5.007639  -0.051464  -0.033596   0.408036   0.230881
     3  H    0.431146  -0.051464   0.485335  -0.013142   0.000885   0.004051
     4  H    0.429659  -0.033596  -0.013142   0.452643   0.000654   0.002493
     5  H   -0.022037   0.408036   0.000885   0.000654   0.418108  -0.027489
     6  Cl  -0.093721   0.230881   0.004051   0.002493  -0.027489  16.954004
          Atomic-Atomic Spin Densities.
               1          2          3          4          5          6
     1  C    0.000000   0.000000   0.000000   0.000000  -0.000000  -0.000000
     2  C    0.000000   0.000000  -0.000000   0.000000   0.000000  -0.000000
     3  H    0.000000  -0.000000   0.000000   0.000000   0.000000   0.000000
     4  H    0.000000   0.000000   0.000000   0.000000   0.000000   0.000000
     5  H   -0.000000   0.000000   0.000000   0.000000   0.000000  -0.000000
     6  Cl  -0.000000  -0.000000   0.000000   0.000000  -0.000000   0.000000
 Mulliken charges and spin densities:
               1          2
     1  C   -0.307586   0.000000
     2  C   -0.148513   0.000000
     3  H    0.143188   0.000000
     4  H    0.161289   0.000000
     5  H    0.221842   0.000000
     6  Cl  -0.070220   0.000000
 Sum of Mulliken charges =  -0.00000   0.00000
 Mulliken charges and spin densities with hydrogens summed into heavy atoms:
               1          2
     1  C   -0.003109   0.000000
     2  C    0.073329   0.000000
     6  Cl  -0.070220   0.000000
 Electronic spatial extent (au):  <R**2>=            246.0770
 Charge=              0.0000 electrons
 Dipole moment (field-independent basis, Debye):
    X=              0.7364    Y=              1.5246    Z=              0.0000  Tot=              1.6931
 Quadrupole moment (field-independent basis, Debye-Ang):
   XX=            -23.4994   YY=            -23.3308   ZZ=            -27.4986
   XY=             -0.1504   XZ=              0.0000   YZ=              0.0000
 Traceless Quadrupole moment (field-independent basis, Debye-Ang):
   XX=              1.2768   YY=              1.4455   ZZ=             -2.7223
   XY=             -0.1504   XZ=              0.0000   YZ=              0.0000
 Octapole moment (field-independent basis, Debye-Ang**2):
  XXX=              1.9664  YYY=             -0.5616  ZZZ=              0.0000  XYY=             -1.1122
  XXY=              0.9894  XXZ=              0.0000  XZZ=             -2.0808  YZZ=             -2.6663
  YYZ=              0.0000  XYZ=              0.0000
 Hexadecapole moment (field-independent basis, Debye-Ang**3):
 XXXX=           -133.9421 YYYY=           -149.6323 ZZZZ=            -32.7020 XXXY=            -47.0925
 XXXZ=              0.0000 YYYX=            -40.5431 YYYZ=              0.0000 ZZZX=              0.0000
 ZZZY=              0.0000 XXYY=            -44.5605 XXZZ=            -30.9968 YYZZ=            -36.0402
 XXYZ=              0.0000 YYXZ=              0.0000 ZZXY=            -17.9193
 N-N= 8.871844822577D+01 E-N=-1.452028287705D+03  KE= 5.369049459134D+02
 Symmetry A'   KE= 4.890995100643D+02
 Symmetry A"   KE= 4.780543584917D+01
 Symmetry A'   SP= 3.455994070529D-15
 Symmetry A"   SP= 6.017607041767D-16
                          Isotropic Fermi Contact Couplings
        Atom                 a.u.       MegaHertz       Gauss      10(-4) cm-1
     1  C(13)              0.00000       0.00000       0.00000       0.00000
     2  C(13)              0.00000       0.00000       0.00000       0.00000
     3  H(1)               0.00000       0.00000       0.00000       0.00000
     4  H(1)               0.00000       0.00000       0.00000       0.00000
     5  H(1)               0.00000       0.00000       0.00000       0.00000
     6  Cl(35)             0.00000       0.00000       0.00000       0.00000
 --------------------------------------------------------
       Center         ----  Spin Dipole Couplings  ----
                      3XX-RR        3YY-RR        3ZZ-RR
 --------------------------------------------------------
     1   Atom        0.000000      0.000000      0.000000
     2   Atom        0.000000      0.000000      0.000000
     3   Atom        0.000000      0.000000      0.000000
     4   Atom        0.000000      0.000000      0.000000
     5   Atom        0.000000      0.000000      0.000000
     6   Atom        0.000000      0.000000      0.000000
 --------------------------------------------------------
                        XY            XZ            YZ
 --------------------------------------------------------
     1   Atom        0.000000      0.000000      0.000000
     2   Atom        0.000000      0.000000      0.000000
     3   Atom        0.000000      0.000000      0.000000
     4   Atom        0.000000      0.000000      0.000000
     5   Atom        0.000000      0.000000      0.000000
     6   Atom        0.000000      0.000000      0.000000
 --------------------------------------------------------


 ---------------------------------------------------------------------------------
              Anisotropic Spin Dipole Couplings in Principal Axis System
 ---------------------------------------------------------------------------------

       Atom             a.u.   MegaHertz   Gauss  10(-4) cm-1        Axes

              Baa     0.0000     0.000     0.000     0.000  1.0000  0.0000  0.0000
     1 C(13)  Bbb     0.0000     0.000     0.000     0.000 -0.0000  1.0000  0.0000
              Bcc     0.0000     0.000     0.000     0.000  0.0000  0.0000  1.0000
 
              Baa     0.0000     0.000     0.000     0.000  1.0000  0.0000  0.0000
     2 C(13)  Bbb     0.0000     0.000     0.000     0.000 -0.0000  1.0000  0.0000
              Bcc     0.0000     0.000     0.000     0.000  0.0000  0.0000  1.0000
 
              Baa     0.0000     0.000     0.000     0.000  1.0000  0.0000  0.0000
     3 H(1)   Bbb     0.0000     0.000     0.000     0.000 -0.0000  1.0000  0.0000
              Bcc     0.0000     0.000     0.000     0.000  0.0000  0.0000  1.0000
 
              Baa     0.0000     0.000     0.000     0.000  1.0000  0.0000  0.0000
     4 H(1)   Bbb     0.0000     0.000     0.000     0.000 -0.0000  1.0000  0.0000
              Bcc     0.0000     0.000     0.000     0.000  0.0000  0.0000  1.0000
 
              Baa     0.0000     0.000     0.000     0.000  1.0000  0.0000  0.0000
     5 H(1)   Bbb     0.0000     0.000     0.000     0.000 -0.0000  1.0000  0.0000
              Bcc     0.0000     0.000     0.000     0.000  0.0000  0.0000  1.0000
 
              Baa     0.0000     0.000     0.000     0.000  1.0000  0.0000  0.0000
     6 Cl(35) Bbb     0.0000     0.000     0.000     0.000 -0.0000  1.0000  0.0000
              Bcc     0.0000     0.000     0.000     0.000  0.0000  0.0000  1.0000
 

 ---------------------------------------------------------------------------------

 1\1\GINC-GAMBA\SP\ROHF\Gen\C2H3Cl1\IRIKURA\30-Sep-2023\0\\# rohf/gen g
 eom=check guess=check\\C2H3Cl, ROHF/cc-pVTZ-F12\\0,1\C,0,1.288253,1.04
 7844,0.\C,0,0.,0.759985,0.\H,0,1.601513,2.082873,0.\H,0,2.053304,0.284
 876,0.\H,0,-0.784061,1.50238,0.\Cl,0,-0.623545,-0.865712,0.\\Version=E
 S64L-G16RevB.01\State=1-A'\HF=-537.0109287\RMSD=9.212e-09\Dipole=0.289
 731,0.5998265,0.\Quadrupole=0.9493,1.0746701,-2.0239702,-0.1118289,0.,
 0.\PG=CS [SG(C2H3Cl1)]\\@


 LIFE IS SO UNCERTAIN - EAT DESSERT FIRST.
 Job cpu time:       0 days  0 hours  1 minutes  5.0 seconds.
 Elapsed time:       0 days  0 hours  0 minutes 17.7 seconds.
 File lengths (MBytes):  RWF=     26 Int=      0 D2E=      0 Chk=      5 Scr=      1
 Normal termination of Gaussian 16 at Sat Sep 30 04:37:45 2023.
