 Entering Gaussian System, Link 0=g16
 AtFile(1): pcseg2.gbs
            -H     0
            S   4   1.00
                  0.754732D+02           0.427821D-02
                  0.113575D+02           0.328672D-01
                  0.260081D+01           0.159578D+00
                  0.735503D+00           0.500000D+00
            S   1   1.00
                  0.231761D+00           1.0000000
            S   1   1.00
                  0.741675D-01           1.0000000
            P   1   1.00
                  0.160000D+01           1.0000000
            P   1   1.00
                  0.450000D+00           1.0000000
            D   1   1.00
                  0.125000D+01           1.0000000
            ****
            -C     0
            S   7   1.00
                  0.731999D+04           0.695369D-03
                  0.109818D+04           0.537138D-02
                  0.250014D+03           0.274734D-01
                  0.707586D+02           0.105078D+00
                  0.228595D+02           0.291262D+00
                  0.803936D+01           0.500000D+00
                  0.289309D+01           0.362224D+00
            S   2   1.00
                  0.521640D+01          -0.957844D-01
                  0.556124D+00           0.500000D+00
            S   1   1.00
                  0.228813D+00           1.0000000
            S   1   1.00
                  0.936338D-01           1.0000000
            P   4   1.00
                  0.339855D+02           0.818395D-02
                  0.772957D+01           0.586921D-01
                  0.224954D+01           0.222514D+00
                  0.767681D+00           0.500000D+00
            P   1   1.00
                  0.263283D+00           1.0000000
            P   1   1.00
                  0.848744D-01           1.0000000
            D   1   1.00
                  0.140000D+01           1.0000000
            D   1   1.00
                  0.450000D+00           1.0000000
            F   1   1.00
                  0.950000D+00           1.0000000
            ****
            -O     0
            S   7   1.00
                  0.135887D+05           0.665492D-03
                  0.203847D+04           0.514222D-02
                  0.464041D+03           0.263472D-01
                  0.131339D+03           0.101500D+00
                  0.425340D+02           0.285877D+00
                  0.150429D+02           0.500000D+00
                  0.546616D+01           0.368211D+00
            S   2   1.00
                  0.100915D+02          -0.100084D+00
                  0.110429D+01           0.500000D+00
            S   1   1.00
                  0.448082D+00           1.0000000
            S   1   1.00
                  0.175325D+00           1.0000000
            P   4   1.00
                  0.608220D+02           0.908253D-02
                  0.140332D+02           0.645878D-01
                  0.418244D+01           0.241502D+00
                  0.142490D+01           0.500000D+00
            P   1   1.00
                  0.478741D+00           1.0000000
            P   1   1.00
                  0.146257D+00           1.0000000
            D   1   1.00
                  0.220000D+01           1.0000000
            D   1   1.00
                  0.650000D+00           1.0000000
            F   1   1.00
                  0.110000D+01           1.0000000
            ****
            -N     0
            S   7   1.00
                  0.101643D+05           0.682757D-03
                  0.152481D+04           0.527488D-02
                  0.347119D+03           0.270037D-01
                  0.982389D+02           0.103673D+00
                  0.317799D+02           0.289575D+00
                  0.112240D+02           0.500000D+00
                  0.406611D+01           0.364621D+00
            S   2   1.00
                  0.747898D+01          -0.975681D-01
                  0.805040D+00           0.500000D+00
            S   1   1.00
                  0.324626D+00           1.0000000
            S   1   1.00
                  0.128132D+00           1.0000000
            P   4   1.00
                  0.482704D+02           0.829547D-02
                  0.110815D+02           0.596223D-01
                  0.326643D+01           0.227889D+00
                  0.111680D+01           0.500000D+00
            P   1   1.00
                  0.382049D+00           1.0000000
            P   1   1.00
                  0.121222D+00           1.0000000
            D   1   1.00
                  0.180000D+01           1.0000000
            D   1   1.00
                  0.550000D+00           1.0000000
            F   1   1.00
                  0.102000D+01           1.0000000
            ****
            -F     0
            S   7   1.00
                  0.174507D+05           0.655972D-03
                  0.261768D+04           0.506944D-02
                  0.595857D+03           0.259899D-01
                  0.168651D+03           0.100353D+00
                  0.546654D+02           0.284095D+00
                  0.193717D+02           0.500000D+00
                  0.706202D+01           0.370721D+00
            S   2   1.00
                  0.131197D+02          -0.101997D+00
                  0.145046D+01           0.500000D+00
            S   1   1.00
                  0.588255D+00           1.0000000
            S   1   1.00
                  0.227960D+00           1.0000000
            P   4   1.00
                  0.779407D+02           0.931135D-02
                  0.180425D+02           0.663964D-01
                  0.542342D+01           0.246386D+00
                  0.184876D+01           0.500000D+00
            P   1   1.00
                  0.617455D+00           1.0000000
            P   1   1.00
                  0.185496D+00           1.0000000
            D   1   1.00
                  0.280000D+01           1.0000000
            D   1   1.00
                  0.800000D+00           1.0000000
            F   1   1.00
                  0.120000D+01           1.0000000
            ****
            -Cl     0
            S   8   1.00
                  0.154272D+06           0.222473D-03
                  0.231232D+05           0.172590D-02
                  0.526257D+04           0.899286D-02
                  0.148995D+04           0.367724D-01
                  0.485417D+03           0.121446D+00
                  0.174634D+03           0.304148D+00
                  0.672393D+02           0.500000D+00
                  0.265780D+02           0.360252D+00
            S   3   1.00
                  0.131826D+03          -0.531330D-01
                  0.400703D+02          -0.233346D+00
                  0.789448D+01           0.500000D+00
            S   2   1.00
                  0.427711D+01           0.500000D+00
                  0.196233D+01           0.370517D+00
            S   1   1.00
                  0.520793D+00           1.0000000
            S   1   1.00
                  0.181633D+00           1.0000000
            P   7   1.00
                  0.124440D+04           0.988206D-03
                  0.295109D+03           0.829674D-02
                  0.947224D+02           0.430906D-01
                  0.352588D+02           0.148443D+00
                  0.144211D+02           0.344744D+00
                  0.610371D+01           0.500000D+00
                  0.258886D+01           0.348278D+00
            P   2   1.00
                  0.109447D+02          -0.196768D-01
                  0.104413D+01           0.500000D+00
            P   1   1.00
                  0.376184D+00           1.0000000
            P   1   1.00
                  0.120613D+00           1.0000000
            D   1   1.00
                  0.231000D+01           1.0000000
            D   1   1.00
                  0.520000D+00           1.0000000
            F   1   1.00
                  0.720000D+00           1.0000000
            ****
            -S     0
            S   8   1.00
                  0.134700D+06           0.226231D-03
                  0.201904D+05           0.175488D-02
                  0.459528D+04           0.914190D-02
                  0.130109D+04           0.373551D-01
                  0.423902D+03           0.123121D+00
                  0.152485D+03           0.306801D+00
                  0.586925D+02           0.500000D+00
                  0.231461D+02           0.354358D+00
            S   3   1.00
                  0.116327D+03          -0.491772D-01
                  0.352841D+02          -0.215962D+00
                  0.677831D+01           0.500000D+00
            S   2   1.00
                  0.360404D+01           0.500000D+00
                  0.164871D+01           0.366278D+00
            S   1   1.00
                  0.421821D+00           1.0000000
            S   1   1.00
                  0.147554D+00           1.0000000
            P   7   1.00
                  0.104863D+04           0.105273D-02
                  0.248717D+03           0.879338D-02
                  0.797887D+02           0.453358D-01
                  0.296023D+02           0.154476D+00
                  0.120627D+02           0.352366D+00
                  0.507628D+01           0.500000D+00
                  0.213375D+01           0.346429D+00
            P   2   1.00
                  0.928958D+01          -0.185932D-01
                  0.837819D+00           0.500000D+00
            P   1   1.00
                  0.301495D+00           1.0000000
            P   1   1.00
                  0.974740D-01           1.0000000
            D   1   1.00
                  0.210000D+01           1.0000000
            D   1   1.00
                  0.480000D+00           1.0000000
            F   1   1.00
                  0.660000D+00           1.0000000
            ****
            -Br     0
            S    10   1.00
                  0.233625D+07           0.532336D-04
                  0.349961D+06           0.413715D-03
                  0.796444D+05           0.217123D-02
                  0.225555D+05           0.910109D-02
                  0.735546D+04           0.323789D-01
                  0.265352D+04           0.988755D-01
                  0.103517D+04           0.248138D+00
                  0.422205D+03           0.474328D+00
                  0.180035D+03           0.500000D+00
                  0.793308D+02           0.187769D+00
            S    4   1.00
                  0.620834D+03          -0.226511D-01
                  0.190829D+03          -0.109497D+00
                  0.312505D+02           0.500000D+00
                  0.135270D+02           0.492812D+00
            S    2   1.00
                  0.216097D+02          -0.165418D+00
                  0.372566D+01           0.500000D+00
            S    1   1.00
                  0.169770D+01           1.0000000
            S    1   1.00
                  0.489332D+00           1.0000000
            S    1   1.00
                  0.175712D+00           1.0000000
            P    8   1.00
                  0.960829D+04           0.478974D-03
                  0.227618D+04           0.417853D-02
                  0.736723D+03           0.229315D-01
                  0.281579D+03           0.892653D-01
                  0.118395D+03           0.255288D+00
                  0.527481D+02           0.479074D+00
                  0.245098D+02           0.500000D+00
                  0.112009D+02           0.200944D+00
            P    4   1.00
                  0.587849D+02          -0.189674D-01
                  0.918962D+01           0.264104D+00
                  0.413895D+01           0.500000D+00
                  0.184225D+01           0.319316D+00
            P    1   1.00
                  0.713862D+00           1.0000000
            P    1   1.00
                  0.274232D+00           1.0000000
            P    1   1.00
                  0.944411D-01           1.0000000
            D    7   1.00
                  0.398470D+03           0.204066D-02
                  0.118967D+03           0.175171D-01
                  0.450197D+02           0.829708D-01
                  0.190320D+02           0.236284D+00
                  0.855686D+01           0.428468D+00
                  0.382950D+01           0.500000D+00
                  0.166291D+01           0.349360D+00
            D    1   1.00
                  0.672953D+00           1.0000000
            D    1   1.00
                  0.252000D+00           1.0000000
            F    1   1.00
                  0.530000D+00           1.0000000
            ****
            -Si     0
            S    8   1.00
                  0.996133D+05           0.235546D-03
                  0.149311D+05           0.182707D-02
                  0.339820D+04           0.951425D-02
                  0.962140D+03           0.388172D-01
                  0.313430D+03           0.127328D+00
                  0.112683D+03           0.313522D+00
                  0.433372D+02           0.500000D+00
                  0.170029D+02           0.340347D+00
            S    3   1.00
                  0.884208D+02          -0.404451D-01
                  0.266756D+02          -0.178059D+00
                  0.479640D+01           0.500000D+00
            S    2   1.00
                  0.239385D+01           0.500000D+00
                  0.108333D+01           0.338016D+00
            S    1   1.00
                  0.252420D+00           1.0000000
            S    1   1.00
                  0.891210D-01           1.0000000
            P    7   1.00
                  0.709901D+03           0.123028D-02
                  0.168426D+03           0.101366D-01
                  0.539946D+02           0.511840D-01
                  0.198646D+02           0.169967D+00
                  0.801369D+01           0.370717D+00
                  0.331870D+01           0.500000D+00
                  0.136112D+01           0.344128D+00
            P    2   1.00
                  0.622158D+01          -0.166609D-01
                  0.503049D+00           0.500000D+00
            P    1   1.00
                  0.179848D+00           1.0000000
            P    1   1.00
                  0.591912D-01           1.0000000
            D    1   1.00
                  0.168000D+01           1.0000000
            D    1   1.00
                  0.380000D+00           1.0000000
            F    1   1.00
                  0.540000D+00           1.0000000
            ****
            -P     0
            S    8   1.00
                  0.116416D+06           0.230715D-03
                  0.174500D+05           0.178960D-02
                  0.397149D+04           0.932116D-02
                  0.112447D+04           0.380591D-01
                  0.366347D+03           0.125148D+00
                  0.131757D+03           0.310022D+00
                  0.506988D+02           0.500000D+00
                  0.199436D+02           0.347528D+00
            S    3   1.00
                  0.101878D+03          -0.446755D-01
                  0.308249D+02          -0.196376D+00
                  0.573688D+01           0.500000D+00
            S    2   1.00
                  0.296868D+01           0.500000D+00
                  0.135315D+01           0.355098D+00
            S    1   1.00
                  0.332196D+00           1.0000000
            S    1   1.00
                  0.116229D+00           1.0000000
            P    7   1.00
                  0.873928D+03           0.112375D-02
                  0.207298D+03           0.933330D-02
                  0.664628D+02           0.477213D-01
                  0.245665D+02           0.160733D+00
                  0.996820D+01           0.359760D+00
                  0.416536D+01           0.500000D+00
                  0.173022D+01           0.346593D+00
            P    2   1.00
                  0.772530D+01          -0.175718D-01
                  0.657252D+00           0.500000D+00
            P    1   1.00
                  0.239903D+00           1.0000000
            P    1   1.00
                  0.800988D-01           1.0000000
            D    1   1.00
                  0.189000D+01           1.0000000
            D    1   1.00
                  0.430000D+00           1.0000000
            F    1   1.00
                  0.600000D+00           1.0000000
            ****
            
 Initial command:
 /usr/local/apps/g16_b01_avx/g16/l1.exe "/wrk/irikura/Gau-5100.inp" -scrdir="/wrk/irikura/"
 Entering Link 1 = /usr/local/apps/g16_b01_avx/g16/l1.exe PID=      5102.
  
 Copyright (c) 1988-2017, Gaussian, Inc.  All Rights Reserved.
  
 This is part of the Gaussian(R) 16 program.  It is based on
 the Gaussian(R) 09 system (copyright 2009, Gaussian, Inc.),
 the Gaussian(R) 03 system (copyright 2003, Gaussian, Inc.),
 the Gaussian(R) 98 system (copyright 1998, Gaussian, Inc.),
 the Gaussian(R) 94 system (copyright 1995, Gaussian, Inc.),
 the Gaussian 92(TM) system (copyright 1992, Gaussian, Inc.),
 the Gaussian 90(TM) system (copyright 1990, Gaussian, Inc.),
 the Gaussian 88(TM) system (copyright 1988, Gaussian, Inc.),
 the Gaussian 86(TM) system (copyright 1986, Carnegie Mellon
 University), and the Gaussian 82(TM) system (copyright 1983,
 Carnegie Mellon University). Gaussian is a federally registered
 trademark of Gaussian, Inc.
  
 This software contains proprietary and confidential information,
 including trade secrets, belonging to Gaussian, Inc.
  
 This software is provided under written license and may be
 used, copied, transmitted, or stored only in accord with that
 written license.
  
 The following legend is applicable only to US Government
 contracts under FAR:
  
                    RESTRICTED RIGHTS LEGEND
  
 Use, reproduction and disclosure by the US Government is
 subject to restrictions as set forth in subparagraphs (a)
 and (c) of the Commercial Computer Software - Restricted
 Rights clause in FAR 52.227-19.
  
 Gaussian, Inc.
 340 Quinnipiac St., Bldg. 40, Wallingford CT 06492
  
  
 ---------------------------------------------------------------
 Warning -- This program may not be used in any manner that
 competes with the business of Gaussian, Inc. or will provide
 assistance to any competitor of Gaussian, Inc.  The licensee
 of this program is prohibited from giving any competitor of
 Gaussian, Inc. access to this program.  By using this program,
 the user acknowledges that Gaussian, Inc. is engaged in the
 business of creating and licensing software in the field of
 computational chemistry and represents and warrants to the
 licensee that it is not a competitor of Gaussian, Inc. and that
 it will not use this program in any manner prohibited above.
 ---------------------------------------------------------------
  

 Cite this work as:
 Gaussian 16, Revision B.01,
 M. J. Frisch, G. W. Trucks, H. B. Schlegel, G. E. Scuseria, 
 M. A. Robb, J. R. Cheeseman, G. Scalmani, V. Barone, 
 G. A. Petersson, H. Nakatsuji, X. Li, M. Caricato, A. V. Marenich, 
 J. Bloino, B. G. Janesko, R. Gomperts, B. Mennucci, H. P. Hratchian, 
 J. V. Ortiz, A. F. Izmaylov, J. L. Sonnenberg, D. Williams-Young, 
 F. Ding, F. Lipparini, F. Egidi, J. Goings, B. Peng, A. Petrone, 
 T. Henderson, D. Ranasinghe, V. G. Zakrzewski, J. Gao, N. Rega, 
 G. Zheng, W. Liang, M. Hada, M. Ehara, K. Toyota, R. Fukuda, 
 J. Hasegawa, M. Ishida, T. Nakajima, Y. Honda, O. Kitao, H. Nakai, 
 T. Vreven, K. Throssell, J. A. Montgomery, Jr., J. E. Peralta, 
 F. Ogliaro, M. J. Bearpark, J. J. Heyd, E. N. Brothers, K. N. Kudin, 
 V. N. Staroverov, T. A. Keith, R. Kobayashi, J. Normand, 
 K. Raghavachari, A. P. Rendell, J. C. Burant, S. S. Iyengar, 
 J. Tomasi, M. Cossi, J. M. Millam, M. Klene, C. Adamo, R. Cammi, 
 J. W. Ochterski, R. L. Martin, K. Morokuma, O. Farkas, 
 J. B. Foresman, and D. J. Fox, Gaussian, Inc., Wallingford CT, 2016.
 
 ******************************************
 Gaussian 16:  ES64L-G16RevB.01 20-Dec-2017
                18-Jun-2022 
 ******************************************
 %mem=1000mw
 %nprocs=12
 Will use up to   12 processors via shared memory.
 --------------------
 # b3lyp/gen opt freq
 --------------------
 1/18=20,19=15,26=3,38=1/1,3;
 2/9=110,12=2,17=6,18=5,40=1/2;
 3/5=7,11=2,25=1,30=1,71=1,74=-5/1,2,3;
 4//1;
 5/5=2,38=5/2;
 6/7=2,8=2,9=2,10=2,28=1/1;
 7//1,2,3,16;
 1/18=20,19=15,26=3/3(2);
 2/9=110/2;
 99//99;
 2/9=110/2;
 3/5=7,6=1,11=2,25=1,30=1,71=1,74=-5,82=7/1,2,3;
 4/5=5,16=3,69=1/1;
 5/5=2,38=5/2;
 7//1,2,3,16;
 1/18=20,19=15,26=3/3(-5);
 2/9=110/2;
 6/7=2,8=2,9=2,10=2,19=2,28=1/1;
 99/9=1/99;
 ----------------------------
 vinyl alcohol, B3LYP/pcseg-2
 ----------------------------
 Symbolic Z-matrix:
 Charge =  0 Multiplicity = 1
 C                     1.21362  -0.1009    0. 
 C                     0.        0.44016   0. 
 O                    -1.1926   -0.21705   0. 
 H                     1.37214  -1.17365   0. 
 H                     2.08721   0.53412   0. 
 H                    -0.16136   1.511     0. 
 H                    -1.03897  -1.17071   0. 
 

 GradGradGradGradGradGradGradGradGradGradGradGradGradGradGradGradGradGrad
 Berny optimization.
 Initialization pass.
                           ----------------------------
                           !    Initial Parameters    !
                           ! (Angstroms and Degrees)  !
 --------------------------                            --------------------------
 ! Name  Definition              Value          Derivative Info.                !
 --------------------------------------------------------------------------------
 ! R1    R(1,2)                  1.3288         estimate D2E/DX2                !
 ! R2    R(1,4)                  1.0844         estimate D2E/DX2                !
 ! R3    R(1,5)                  1.08           estimate D2E/DX2                !
 ! R4    R(2,3)                  1.3617         estimate D2E/DX2                !
 ! R5    R(2,6)                  1.0829         estimate D2E/DX2                !
 ! R6    R(3,7)                  0.966          estimate D2E/DX2                !
 ! A1    A(2,1,4)              122.434          estimate D2E/DX2                !
 ! A2    A(2,1,5)              119.958          estimate D2E/DX2                !
 ! A3    A(4,1,5)              117.6079         estimate D2E/DX2                !
 ! A4    A(1,2,3)              127.1136         estimate D2E/DX2                !
 ! A5    A(1,2,6)              122.5976         estimate D2E/DX2                !
 ! A6    A(3,2,6)              110.2889         estimate D2E/DX2                !
 ! A7    A(2,3,7)              109.7071         estimate D2E/DX2                !
 ! D1    D(4,1,2,3)              0.0            estimate D2E/DX2                !
 ! D2    D(4,1,2,6)            180.0            estimate D2E/DX2                !
 ! D3    D(5,1,2,3)            180.0            estimate D2E/DX2                !
 ! D4    D(5,1,2,6)              0.0            estimate D2E/DX2                !
 ! D5    D(1,2,3,7)              0.0            estimate D2E/DX2                !
 ! D6    D(6,2,3,7)            180.0            estimate D2E/DX2                !
 --------------------------------------------------------------------------------
 Trust Radius=3.00D-01 FncErr=1.00D-07 GrdErr=1.00D-06 EigMax=2.50D+02 EigMin=1.00D-04
 Number of steps in this run=     29 maximum allowed number of steps=    100.
 GradGradGradGradGradGradGradGradGradGradGradGradGradGradGradGradGradGrad

                          Input orientation:                          
 ---------------------------------------------------------------------
 Center     Atomic      Atomic             Coordinates (Angstroms)
 Number     Number       Type             X           Y           Z
 ---------------------------------------------------------------------
      1          6           0        1.213624   -0.100897    0.000000
      2          6           0        0.000000    0.440164    0.000000
      3          8           0       -1.192595   -0.217045    0.000000
      4          1           0        1.372142   -1.173646    0.000000
      5          1           0        2.087208    0.534115    0.000000
      6          1           0       -0.161359    1.510999    0.000000
      7          1           0       -1.038974   -1.170706    0.000000
 ---------------------------------------------------------------------
                    Distance matrix (angstroms):
                    1          2          3          4          5
     1  C    0.000000
     2  C    1.328770   0.000000
     3  O    2.409021   1.361693   0.000000
     4  H    1.084398   2.118291   2.737327   0.000000
     5  H    1.079995   2.089321   3.364721   1.851423   0.000000
     6  H    2.118676   1.082924   2.012358   3.091754   2.451603
     7  H    2.493730   1.916864   0.965955   2.411118   3.560819
                    6          7
     6  H    0.000000
     7  H    2.821657   0.000000
 Stoichiometry    C2H4O
 Framework group  CS[SG(C2H4O)]
 Deg. of freedom    11
 Full point group                 CS      NOp   2
 Largest Abelian subgroup         CS      NOp   2
 Largest concise Abelian subgroup C1      NOp   1
                         Standard orientation:                         
 ---------------------------------------------------------------------
 Center     Atomic      Atomic             Coordinates (Angstroms)
 Number     Number       Type             X           Y           Z
 ---------------------------------------------------------------------
      1          6           0        1.213624   -0.100897    0.000000
      2          6           0       -0.000000    0.440164    0.000000
      3          8           0       -1.192595   -0.217045    0.000000
      4          1           0        1.372142   -1.173646    0.000000
      5          1           0        2.087208    0.534115    0.000000
      6          1           0       -0.161359    1.510999    0.000000
      7          1           0       -1.038974   -1.170706    0.000000
 ---------------------------------------------------------------------
 Rotational constants (GHZ):          60.8733758          10.5359674           8.9814564
 General basis read from cards:  (5D, 7F)
 There are   116 symmetry adapted cartesian basis functions of A'  symmetry.
 There are    49 symmetry adapted cartesian basis functions of A"  symmetry.
 There are   100 symmetry adapted basis functions of A'  symmetry.
 There are    46 symmetry adapted basis functions of A"  symmetry.
   146 basis functions,   225 primitive gaussians,   165 cartesian basis functions
    12 alpha electrons       12 beta electrons
       nuclear repulsion energy        70.3004380589 Hartrees.
 NAtoms=    7 NActive=    7 NUniq=    7 SFac= 1.00D+00 NAtFMM=   60 NAOKFM=F Big=F
 Integral buffers will be    131072 words long.
 Raffenetti 2 integral format.
 Two-electron integral symmetry is turned on.
 One-electron integrals computed using PRISM.
 NBasis=   146 RedAO= T EigKep=  4.33D-04  NBF=   100    46
 NBsUse=   146 1.00D-06 EigRej= -1.00D+00 NBFU=   100    46
 ExpMin= 7.42D-02 ExpMax= 1.36D+04 ExpMxC= 4.64D+02 IAcc=3 IRadAn=         5 AccDes= 0.00D+00
 Harris functional with IExCor=  402 and IRadAn=       5 diagonalized for initial guess.
 HarFok:  IExCor=  402 AccDes= 0.00D+00 IRadAn=         5 IDoV= 1 UseB2=F ITyADJ=14
 ICtDFT=  3500011 ScaDFX=  1.000000  1.000000  1.000000  1.000000
 FoFCou: FMM=F IPFlag=           0 FMFlag=      100000 FMFlg1=           0
         NFxFlg=           0 DoJE=T BraDBF=F KetDBF=T FulRan=T
         wScrn=  0.000000 ICntrl=       500 IOpCl=  0 I1Cent=   200000004 NGrid=           0
         NMat0=    1 NMatS0=      1 NMatT0=    0 NMatD0=    1 NMtDS0=    0 NMtDT0=    0
 Petite list used in FoFCou.
 Initial guess orbital symmetries:
       Occupied  (A') (A') (A') (A') (A') (A') (A') (A') (A') (A")
                 (A') (A")
       Virtual   (A") (A') (A') (A') (A') (A') (A") (A') (A') (A')
                 (A") (A') (A') (A') (A') (A') (A') (A") (A') (A')
                 (A') (A') (A") (A") (A') (A') (A") (A') (A") (A')
                 (A') (A') (A') (A") (A') (A') (A") (A') (A") (A')
                 (A") (A') (A') (A") (A') (A") (A') (A') (A') (A')
                 (A') (A") (A') (A") (A') (A') (A') (A') (A") (A')
                 (A') (A') (A') (A") (A") (A') (A') (A') (A") (A')
                 (A") (A") (A') (A') (A') (A") (A') (A") (A') (A')
                 (A") (A") (A') (A') (A') (A") (A") (A') (A') (A')
                 (A") (A') (A") (A") (A') (A") (A') (A") (A') (A")
                 (A') (A") (A') (A") (A') (A') (A") (A') (A") (A')
                 (A') (A') (A') (A") (A') (A') (A") (A') (A') (A')
                 (A") (A') (A') (A') (A") (A') (A") (A') (A") (A')
                 (A') (A') (A') (A')
 The electronic state of the initial guess is 1-A'.
 Keep R1 ints in memory in symmetry-blocked form, NReq=86987181.
 Requested convergence on RMS density matrix=1.00D-08 within 128 cycles.
 Requested convergence on MAX density matrix=1.00D-06.
 Requested convergence on             energy=1.00D-06.
 No special actions if energy rises.
 Integral accuracy reduced to 1.0D-05 until final iterations.
 Initial convergence to 1.0D-05 achieved.  Increase integral accuracy.
 SCF Done:  E(RB3LYP) =  -153.884586161     A.U. after   12 cycles
            NFock= 12  Conv=0.65D-08     -V/T= 2.0037

 **********************************************************************

            Population analysis using the SCF Density.

 **********************************************************************

 Orbital symmetries:
       Occupied  (A') (A') (A') (A') (A') (A') (A') (A') (A") (A')
                 (A') (A")
       Virtual   (A') (A") (A') (A') (A') (A') (A") (A') (A') (A')
                 (A") (A') (A') (A') (A') (A') (A') (A") (A') (A')
                 (A') (A') (A") (A") (A') (A') (A") (A') (A") (A')
                 (A') (A') (A') (A") (A') (A') (A') (A") (A") (A')
                 (A") (A') (A') (A') (A") (A') (A") (A') (A') (A')
                 (A') (A") (A') (A') (A") (A') (A') (A') (A') (A")
                 (A') (A') (A') (A") (A") (A') (A') (A') (A") (A")
                 (A") (A') (A') (A') (A') (A") (A') (A") (A') (A')
                 (A") (A") (A') (A') (A') (A") (A") (A') (A') (A')
                 (A') (A") (A") (A") (A') (A") (A') (A") (A') (A")
                 (A') (A") (A') (A") (A') (A') (A') (A") (A") (A')
                 (A') (A') (A") (A') (A') (A') (A") (A') (A') (A')
                 (A") (A') (A') (A") (A') (A') (A") (A') (A") (A')
                 (A') (A') (A') (A')
 The electronic state is 1-A'.
 Alpha  occ. eigenvalues --  -19.16144 -10.23558 -10.16069  -1.06726  -0.75749
 Alpha  occ. eigenvalues --   -0.62852  -0.50468  -0.48946  -0.40191  -0.39252
 Alpha  occ. eigenvalues --   -0.37877  -0.24597
 Alpha virt. eigenvalues --    0.00857   0.01310   0.03750   0.05450   0.08687
 Alpha virt. eigenvalues --    0.13519   0.16921   0.18233   0.20752   0.24860
 Alpha virt. eigenvalues --    0.24875   0.26229   0.30314   0.32974   0.34096
 Alpha virt. eigenvalues --    0.37243   0.38084   0.39474   0.41746   0.50146
 Alpha virt. eigenvalues --    0.53145   0.55732   0.66796   0.73687   0.74548
 Alpha virt. eigenvalues --    0.78205   0.80500   0.91643   0.93010   0.97442
 Alpha virt. eigenvalues --    0.98836   0.99378   1.05845   1.10110   1.10329
 Alpha virt. eigenvalues --    1.14286   1.18397   1.22629   1.25436   1.26483
 Alpha virt. eigenvalues --    1.36672   1.39193   1.48025   1.50400   1.51016
 Alpha virt. eigenvalues --    1.54293   1.56025   1.70588   1.73430   1.82041
 Alpha virt. eigenvalues --    1.84858   1.86546   1.87724   1.95833   1.96064
 Alpha virt. eigenvalues --    2.03733   2.13633   2.25300   2.35242   2.35331
 Alpha virt. eigenvalues --    2.53526   2.68839   2.76358   3.00284   3.11496
 Alpha virt. eigenvalues --    3.14471   3.30981   3.34999   3.37528   3.40404
 Alpha virt. eigenvalues --    3.41814   3.42329   3.55406   3.59957   3.63979
 Alpha virt. eigenvalues --    3.68303   3.73979   3.76985   3.81809   3.87130
 Alpha virt. eigenvalues --    3.96600   3.97844   4.01354   4.05026   4.08211
 Alpha virt. eigenvalues --    4.08933   4.10533   4.15864   4.23538   4.28937
 Alpha virt. eigenvalues --    4.30166   4.31577   4.34875   4.37233   4.38979
 Alpha virt. eigenvalues --    4.39912   4.45166   4.46233   4.48614   4.50710
 Alpha virt. eigenvalues --    4.55190   4.58212   4.58230   4.68473   4.74443
 Alpha virt. eigenvalues --    4.86382   4.97400   4.99565   5.06438   5.12476
 Alpha virt. eigenvalues --    5.13784   5.14966   5.34980   5.37098   5.39684
 Alpha virt. eigenvalues --    5.46481   5.50684   5.57438   5.68068   5.74325
 Alpha virt. eigenvalues --    5.76195   5.91078   6.00873   6.07478   6.08544
 Alpha virt. eigenvalues --    6.18953   6.23226   6.41682   6.47383   6.54366
 Alpha virt. eigenvalues --    6.73918   6.94279   7.08320   7.52690
          Condensed to atoms (all electrons):
               1          2          3          4          5          6
     1  C    4.879885   0.632457  -0.083922   0.421138   0.414837  -0.068360
     2  C    0.632457   4.527852   0.291796  -0.041316  -0.027176   0.445211
     3  O   -0.083922   0.291796   7.868970  -0.007361   0.005563  -0.045506
     4  H    0.421138  -0.041316  -0.007361   0.600310  -0.022934   0.005191
     5  H    0.414837  -0.027176   0.005563  -0.022934   0.579591  -0.002619
     6  H   -0.068360   0.445211  -0.045506   0.005191  -0.002619   0.600687
     7  H   -0.010972  -0.028477   0.327465   0.005405   0.000894   0.009816
               7
     1  C   -0.010972
     2  C   -0.028477
     3  O    0.327465
     4  H    0.005405
     5  H    0.000894
     6  H    0.009816
     7  H    0.500440
 Mulliken charges:
               1
     1  C   -0.185064
     2  C    0.199652
     3  O   -0.357006
     4  H    0.039567
     5  H    0.051843
     6  H    0.055579
     7  H    0.195428
 Sum of Mulliken charges =  -0.00000
 Mulliken charges with hydrogens summed into heavy atoms:
               1
     1  C   -0.093654
     2  C    0.255232
     3  O   -0.161577
 Electronic spatial extent (au):  <R**2>=            164.9217
 Charge=              0.0000 electrons
 Dipole moment (field-independent basis, Debye):
    X=              0.5490    Y=             -0.8178    Z=              0.0000  Tot=              0.9850
 Quadrupole moment (field-independent basis, Debye-Ang):
   XX=            -20.4633   YY=            -14.6078   ZZ=            -21.1537
   XY=              1.2721   XZ=              0.0000   YZ=              0.0000
 Traceless Quadrupole moment (field-independent basis, Debye-Ang):
   XX=             -1.7216   YY=              4.1338   ZZ=             -2.4121
   XY=              1.2721   XZ=              0.0000   YZ=              0.0000
 Octapole moment (field-independent basis, Debye-Ang**2):
  XXX=             -0.3228  YYY=             -3.5113  ZZZ=              0.0000  XYY=             -4.2739
  XXY=             -1.4523  XXZ=              0.0000  XZZ=             -3.6432  YZZ=             -0.6435
  YYZ=              0.0000  XYZ=              0.0000
 Hexadecapole moment (field-independent basis, Debye-Ang**3):
 XXXX=           -147.3874 YYYY=            -38.6979 ZZZZ=            -24.5755 XXXY=              1.9023
 XXXZ=              0.0000 YYYX=             -0.3685 YYYZ=              0.0000 ZZZX=              0.0000
 ZZZY=              0.0000 XXYY=            -27.5964 XXZZ=            -31.7009 YYZZ=            -12.5036
 XXYZ=              0.0000 YYXZ=              0.0000 ZZXY=             -0.9164
 N-N= 7.030043805887D+01 E-N=-5.006690996091D+02  KE= 1.533177940154D+02
 Symmetry A'   KE= 1.466003002245D+02
 Symmetry A"   KE= 6.717493790869D+00
 Calling FoFJK, ICntrl=      2127 FMM=F ISym2X=1 I1Cent= 0 IOpClX= 0 NMat=1 NMatS=1 NMatT=0.
 ***** Axes restored to original set *****
 -------------------------------------------------------------------
 Center     Atomic                   Forces (Hartrees/Bohr)
 Number     Number              X              Y              Z
 -------------------------------------------------------------------
      1        6          -0.000430340   -0.000028934   -0.000000000
      2        6           0.000147355    0.000258214   -0.000000000
      3        8           0.001645750   -0.002594971   -0.000000000
      4        1          -0.000390146    0.000992562   -0.000000000
      5        1          -0.000871727   -0.000468471   -0.000000000
      6        1           0.000345176   -0.000848838   -0.000000000
      7        1          -0.000446068    0.002690438   -0.000000000
 -------------------------------------------------------------------
 Cartesian Forces:  Max     0.002690438 RMS     0.000978596

 GradGradGradGradGradGradGradGradGradGradGradGradGradGradGradGradGradGrad
 Berny optimization.
 FormGI is forming the generalized inverse of G from B-inverse, IUseBI=4.
 Internal  Forces:  Max     0.002726964 RMS     0.000901982
 Search for a local minimum.
 Step number   1 out of a maximum of   29
 All quantities printed in internal units (Hartrees-Bohrs-Radians)
 Mixed Optimization -- En-DIIS/RFO-DIIS
 Second derivative matrix not updated -- first step.
 The second derivative matrix:
                          R1        R2        R3        R4        R5
           R1           0.59797
           R2           0.00000   0.35468
           R3           0.00000   0.00000   0.35995
           R4           0.00000   0.00000   0.00000   0.52607
           R5           0.00000   0.00000   0.00000   0.00000   0.35643
           R6           0.00000   0.00000   0.00000   0.00000   0.00000
           A1           0.00000   0.00000   0.00000   0.00000   0.00000
           A2           0.00000   0.00000   0.00000   0.00000   0.00000
           A3           0.00000   0.00000   0.00000   0.00000   0.00000
           A4           0.00000   0.00000   0.00000   0.00000   0.00000
           A5           0.00000   0.00000   0.00000   0.00000   0.00000
           A6           0.00000   0.00000   0.00000   0.00000   0.00000
           A7           0.00000   0.00000   0.00000   0.00000   0.00000
           D1           0.00000   0.00000   0.00000   0.00000   0.00000
           D2           0.00000   0.00000   0.00000   0.00000   0.00000
           D3           0.00000   0.00000   0.00000   0.00000   0.00000
           D4           0.00000   0.00000   0.00000   0.00000   0.00000
           D5           0.00000   0.00000   0.00000   0.00000   0.00000
           D6           0.00000   0.00000   0.00000   0.00000   0.00000
                          R6        A1        A2        A3        A4
           R6           0.54212
           A1           0.00000   0.16000
           A2           0.00000   0.00000   0.16000
           A3           0.00000   0.00000   0.00000   0.16000
           A4           0.00000   0.00000   0.00000   0.00000   0.25000
           A5           0.00000   0.00000   0.00000   0.00000   0.00000
           A6           0.00000   0.00000   0.00000   0.00000   0.00000
           A7           0.00000   0.00000   0.00000   0.00000   0.00000
           D1           0.00000   0.00000   0.00000   0.00000   0.00000
           D2           0.00000   0.00000   0.00000   0.00000   0.00000
           D3           0.00000   0.00000   0.00000   0.00000   0.00000
           D4           0.00000   0.00000   0.00000   0.00000   0.00000
           D5           0.00000   0.00000   0.00000   0.00000   0.00000
           D6           0.00000   0.00000   0.00000   0.00000   0.00000
                          A5        A6        A7        D1        D2
           A5           0.16000
           A6           0.00000   0.16000
           A7           0.00000   0.00000   0.16000
           D1           0.00000   0.00000   0.00000   0.03031
           D2           0.00000   0.00000   0.00000   0.00000   0.03031
           D3           0.00000   0.00000   0.00000   0.00000   0.00000
           D4           0.00000   0.00000   0.00000   0.00000   0.00000
           D5           0.00000   0.00000   0.00000   0.00000   0.00000
           D6           0.00000   0.00000   0.00000   0.00000   0.00000
                          D3        D4        D5        D6
           D3           0.03031
           D4           0.00000   0.03031
           D5           0.00000   0.00000   0.02199
           D6           0.00000   0.00000   0.00000   0.02199
 ITU=  0
     Eigenvalues ---    0.02199   0.02792   0.03031   0.03031   0.16000
     Eigenvalues ---    0.16000   0.16000   0.16000   0.22000   0.35468
     Eigenvalues ---    0.35643   0.35995   0.52607   0.54212   0.59797
 RFO step:  Lambda=-3.36561490D-05 EMin= 2.19851498D-02
 Linear search not attempted -- first point.
 Iteration  1 RMS(Cart)=  0.00344585 RMS(Int)=  0.00000270
 Iteration  2 RMS(Cart)=  0.00000343 RMS(Int)=  0.00000000
 Iteration  3 RMS(Cart)=  0.00000000 RMS(Int)=  0.00000000
 ClnCor:  largest displacement from symmetrization is 1.67D-12 for atom     1.
 Variable       Old X    -DE/DX   Delta X   Delta X   Delta X     New X
                                 (Linear)    (Quad)   (Total)
    R1        2.51101  -0.00175   0.00000  -0.00292  -0.00292   2.50809
    R2        2.04921  -0.00104   0.00000  -0.00293  -0.00293   2.04629
    R3        2.04089  -0.00098   0.00000  -0.00272  -0.00272   2.03817
    R4        2.57323  -0.00110   0.00000  -0.00208  -0.00208   2.57114
    R5        2.04643  -0.00089   0.00000  -0.00250  -0.00250   2.04393
    R6        1.82539  -0.00273   0.00000  -0.00503  -0.00503   1.82036
    A1        2.13688  -0.00024   0.00000  -0.00149  -0.00149   2.13539
    A2        2.09366  -0.00002   0.00000  -0.00011  -0.00011   2.09355
    A3        2.05265   0.00026   0.00000   0.00160   0.00160   2.05424
    A4        2.21855  -0.00069   0.00000  -0.00313  -0.00313   2.21542
    A5        2.13973   0.00012   0.00000   0.00019   0.00019   2.13992
    A6        1.92490   0.00056   0.00000   0.00294   0.00294   1.92784
    A7        1.91475   0.00002   0.00000   0.00014   0.00014   1.91489
    D1        0.00000  -0.00000   0.00000  -0.00000   0.00000   0.00000
    D2        3.14159   0.00000   0.00000  -0.00000   0.00000   3.14159
    D3        3.14159   0.00000   0.00000  -0.00000   0.00000   3.14159
    D4        0.00000   0.00000   0.00000   0.00000   0.00000   0.00000
    D5        0.00000   0.00000   0.00000  -0.00000   0.00000   0.00000
    D6        3.14159   0.00000   0.00000  -0.00000   0.00000   3.14159
         Item               Value     Threshold  Converged?
 Maximum Force            0.002727     0.000450     NO 
 RMS     Force            0.000902     0.000300     NO 
 Maximum Displacement     0.008225     0.001800     NO 
 RMS     Displacement     0.003445     0.001200     NO 
 Predicted change in Energy=-1.682807D-05
 GradGradGradGradGradGradGradGradGradGradGradGradGradGradGradGradGradGrad

                          Input orientation:                          
 ---------------------------------------------------------------------
 Center     Atomic      Atomic             Coordinates (Angstroms)
 Number     Number       Type             X           Y           Z
 ---------------------------------------------------------------------
      1          6           0        1.211982   -0.100690    0.000000
      2          6           0        0.000220    0.440750    0.000000
      3          8           0       -1.189896   -0.218665    0.000000
      4          1           0        1.367789   -1.172270    0.000000
      5          1           0        2.084857    0.532845    0.000000
      6          1           0       -0.160259    1.510380    0.000000
      7          1           0       -1.034647   -1.169365    0.000000
 ---------------------------------------------------------------------
                    Distance matrix (angstroms):
                    1          2          3          4          5
     1  C    0.000000
     2  C    1.327224   0.000000
     3  O    2.404773   1.360589   0.000000
     4  H    1.082848   2.114729   2.729674   0.000000
     5  H    1.078554   2.086671   3.359877   1.849757   0.000000
     6  H    2.116268   1.081602   2.012399   3.087319   2.448698
     7  H    2.487852   1.914006   0.963293   2.402438   3.553706
                    6          7
     6  H    0.000000
     7  H    2.818792   0.000000
 Stoichiometry    C2H4O
 Framework group  CS[SG(C2H4O)]
 Deg. of freedom    11
 Full point group                 CS      NOp   2
 Largest Abelian subgroup         CS      NOp   2
 Largest concise Abelian subgroup C1      NOp   1
                         Standard orientation:                         
 ---------------------------------------------------------------------
 Center     Atomic      Atomic             Coordinates (Angstroms)
 Number     Number       Type             X           Y           Z
 ---------------------------------------------------------------------
      1          6           0        1.211429   -0.101127    0.000000
      2          6           0        0.000000    0.441057    0.000000
      3          8           0       -1.190521   -0.217626    0.000000
      4          1           0        1.366578   -1.172803    0.000000
      5          1           0        2.084694    0.531871    0.000000
      6          1           0       -0.159821    1.510785    0.000000
      7          1           0       -1.035856   -1.168422    0.000000
 ---------------------------------------------------------------------
 Rotational constants (GHZ):          60.8566819          10.5743728           9.0089842
 Basis read from rwf:  (5D, 7F)
 There are   116 symmetry adapted cartesian basis functions of A'  symmetry.
 There are    49 symmetry adapted cartesian basis functions of A"  symmetry.
 There are   100 symmetry adapted basis functions of A'  symmetry.
 There are    46 symmetry adapted basis functions of A"  symmetry.
   146 basis functions,   225 primitive gaussians,   165 cartesian basis functions
    12 alpha electrons       12 beta electrons
       nuclear repulsion energy        70.3944921444 Hartrees.
 NAtoms=    7 NActive=    7 NUniq=    7 SFac= 1.00D+00 NAtFMM=   60 NAOKFM=F Big=F
 Integral buffers will be    131072 words long.
 Raffenetti 2 integral format.
 Two-electron integral symmetry is turned on.
 One-electron integrals computed using PRISM.
 NBasis=   146 RedAO= T EigKep=  4.31D-04  NBF=   100    46
 NBsUse=   146 1.00D-06 EigRej= -1.00D+00 NBFU=   100    46
 Initial guess from the checkpoint file:  "/wrk/irikura/Gau-5102.chk"
 B after Tr=     0.000000    0.000000    0.000000
         Rot=    1.000000    0.000000    0.000000    0.000052 Ang=   0.01 deg.
 Initial guess orbital symmetries:
       Occupied  (A') (A') (A') (A') (A') (A') (A') (A') (A") (A')
                 (A') (A")
       Virtual   (A') (A") (A') (A') (A') (A') (A") (A') (A') (A')
                 (A") (A') (A') (A') (A') (A') (A') (A") (A') (A')
                 (A') (A') (A") (A") (A') (A') (A") (A') (A") (A')
                 (A') (A') (A') (A") (A') (A') (A') (A") (A") (A')
                 (A") (A') (A') (A') (A") (A') (A") (A') (A') (A')
                 (A') (A") (A') (A') (A") (A') (A') (A') (A') (A")
                 (A') (A') (A') (A") (A") (A') (A') (A') (A") (A")
                 (A") (A') (A') (A') (A') (A") (A') (A") (A') (A')
                 (A") (A") (A') (A') (A') (A") (A") (A') (A') (A')
                 (A') (A") (A") (A") (A') (A") (A') (A") (A') (A")
                 (A') (A") (A') (A") (A') (A') (A') (A") (A") (A')
                 (A') (A') (A") (A') (A') (A') (A") (A') (A') (A')
                 (A") (A') (A') (A") (A') (A') (A") (A') (A") (A')
                 (A') (A') (A') (A')
 Keep R1 ints in memory in symmetry-blocked form, NReq=86987181.
 Requested convergence on RMS density matrix=1.00D-08 within 128 cycles.
 Requested convergence on MAX density matrix=1.00D-06.
 Requested convergence on             energy=1.00D-06.
 No special actions if energy rises.
 SCF Done:  E(RB3LYP) =  -153.884603188     A.U. after    8 cycles
            NFock=  8  Conv=0.24D-08     -V/T= 2.0036
 Calling FoFJK, ICntrl=      2127 FMM=F ISym2X=1 I1Cent= 0 IOpClX= 0 NMat=1 NMatS=1 NMatT=0.
 ***** Axes restored to original set *****
 -------------------------------------------------------------------
 Center     Atomic                   Forces (Hartrees/Bohr)
 Number     Number              X              Y              Z
 -------------------------------------------------------------------
      1        6           0.000358548   -0.000042328   -0.000000000
      2        6          -0.000404928    0.000083557   -0.000000000
      3        8           0.000175567   -0.000192443   -0.000000000
      4        1          -0.000062655   -0.000027629   -0.000000000
      5        1           0.000023854    0.000000154   -0.000000000
      6        1           0.000004607   -0.000006639   -0.000000000
      7        1          -0.000094992    0.000185327   -0.000000000
 -------------------------------------------------------------------
 Cartesian Forces:  Max     0.000404928 RMS     0.000141059

 GradGradGradGradGradGradGradGradGradGradGradGradGradGradGradGradGradGrad
 Berny optimization.
 Using GEDIIS/GDIIS optimizer.
 FormGI is forming the generalized inverse of G from B-inverse, IUseBI=4.
 Internal  Forces:  Max     0.000320306 RMS     0.000096164
 Search for a local minimum.
 Step number   2 out of a maximum of   29
 All quantities printed in internal units (Hartrees-Bohrs-Radians)
 Mixed Optimization -- En-DIIS/RFO-DIIS
 Swapping is turned off.
 Update second derivatives using D2CorX and points    1    2
 DE= -1.70D-05 DEPred=-1.68D-05 R= 1.01D+00
 TightC=F SS=  1.41D+00  RLast= 9.15D-03 DXNew= 5.0454D-01 2.7444D-02
 Trust test= 1.01D+00 RLast= 9.15D-03 DXMaxT set to 3.00D-01
 The second derivative matrix:
                          R1        R2        R3        R4        R5
           R1           0.63553
           R2           0.01165   0.35615
           R3           0.01114   0.00145   0.36139
           R4           0.00695  -0.00119  -0.00105   0.52215
           R5           0.00857   0.00053   0.00056  -0.00173   0.35628
           R6           0.01532  -0.00396  -0.00356  -0.01072  -0.00513
           A1          -0.00374  -0.00294  -0.00277  -0.00346  -0.00262
           A2           0.00412   0.00203   0.00192   0.00193   0.00168
           A3          -0.00038   0.00091   0.00084   0.00153   0.00093
           A4           0.00219  -0.00226  -0.00209  -0.00418  -0.00241
           A5          -0.00640  -0.00314  -0.00297  -0.00298  -0.00260
           A6          -0.01042  -0.00330  -0.00315  -0.00203  -0.00244
           A7           0.00697   0.00366   0.00346   0.00363   0.00308
           D1           0.00000   0.00000   0.00000   0.00000   0.00000
           D2          -0.00000  -0.00000  -0.00000  -0.00000  -0.00000
           D3          -0.00000  -0.00000  -0.00000  -0.00000  -0.00000
           D4          -0.00000  -0.00000  -0.00000  -0.00000  -0.00000
           D5          -0.00000  -0.00000  -0.00000  -0.00000  -0.00000
           D6          -0.00000  -0.00000  -0.00000  -0.00000  -0.00000
                          R6        A1        A2        A3        A4
           R6           0.51307
           A1          -0.00874   0.15890
           A2           0.00473   0.00021   0.16019
           A3           0.00401   0.00089  -0.00040   0.15951
           A4          -0.01104  -0.00266   0.00127   0.00139   0.24610
           A5          -0.00729  -0.00032  -0.00030   0.00062  -0.00196
           A6          -0.00451   0.00098  -0.00112   0.00014  -0.00070
           A7           0.00893   0.00055   0.00024  -0.00079   0.00246
           D1           0.00000   0.00000   0.00000  -0.00000   0.00000
           D2          -0.00000  -0.00000  -0.00000   0.00000  -0.00000
           D3          -0.00000  -0.00000  -0.00000   0.00000  -0.00000
           D4          -0.00000  -0.00000  -0.00000   0.00000  -0.00000
           D5          -0.00000  -0.00000  -0.00000   0.00000  -0.00000
           D6          -0.00000  -0.00000  -0.00000   0.00000  -0.00000
                          A5        A6        A7        D1        D2
           A5           0.16047
           A6           0.00174   0.16289
           A7          -0.00038  -0.00189   0.16025
           D1          -0.00000  -0.00000   0.00000   0.03031
           D2           0.00000   0.00000  -0.00000  -0.00000   0.03031
           D3           0.00000   0.00000  -0.00000  -0.00000   0.00000
           D4           0.00000   0.00000  -0.00000  -0.00000   0.00000
           D5           0.00000   0.00000  -0.00000  -0.00000   0.00000
           D6           0.00000   0.00000  -0.00000  -0.00000   0.00000
                          D3        D4        D5        D6
           D3           0.03031
           D4           0.00000   0.03031
           D5           0.00000   0.00000   0.02199
           D6           0.00000   0.00000   0.00000   0.02199
 ITU=  1  0
     Eigenvalues ---    0.02199   0.02791   0.03031   0.03031   0.15617
     Eigenvalues ---    0.16000   0.16000   0.16115   0.22033   0.35546
     Eigenvalues ---    0.35591   0.36110   0.50510   0.52925   0.63918
 En-DIIS/RFO-DIIS/Sim-DIIS IScMMF=       -3 using points:     2    1
 RFO step:  Lambda=-4.42070359D-07.
 DidBck=F Rises=F RFO-DIIS coefs:    1.03299   -0.03299
 Iteration  1 RMS(Cart)=  0.00033316 RMS(Int)=  0.00000009
 Iteration  2 RMS(Cart)=  0.00000009 RMS(Int)=  0.00000000
 ClnCor:  largest displacement from symmetrization is 6.10D-14 for atom     1.
 Variable       Old X    -DE/DX   Delta X   Delta X   Delta X     New X
                                 (Linear)    (Quad)   (Total)
    R1        2.50809   0.00032  -0.00010   0.00060   0.00050   2.50859
    R2        2.04629   0.00002  -0.00010   0.00011   0.00001   2.04630
    R3        2.03817   0.00002  -0.00009   0.00011   0.00002   2.03819
    R4        2.57114  -0.00007  -0.00007  -0.00009  -0.00016   2.57099
    R5        2.04393  -0.00001  -0.00008   0.00003  -0.00005   2.04388
    R6        1.82036  -0.00020  -0.00017  -0.00027  -0.00043   1.81993
    A1        2.13539  -0.00010  -0.00005  -0.00060  -0.00064   2.13475
    A2        2.09355   0.00006  -0.00000   0.00040   0.00040   2.09395
    A3        2.05424   0.00004   0.00005   0.00019   0.00025   2.05449
    A4        2.21542   0.00000  -0.00010   0.00007  -0.00003   2.21539
    A5        2.13992  -0.00000   0.00001  -0.00003  -0.00002   2.13990
    A6        1.92784   0.00000   0.00010  -0.00004   0.00006   1.92790
    A7        1.91489   0.00012   0.00000   0.00073   0.00073   1.91563
    D1        0.00000   0.00000   0.00000   0.00000   0.00000   0.00000
    D2        3.14159  -0.00000   0.00000   0.00000   0.00000   3.14159
    D3        3.14159  -0.00000   0.00000   0.00000   0.00000   3.14159
    D4        0.00000  -0.00000   0.00000   0.00000   0.00000   0.00000
    D5        0.00000  -0.00000   0.00000  -0.00000   0.00000   0.00000
    D6        3.14159  -0.00000   0.00000   0.00000   0.00000   3.14159
         Item               Value     Threshold  Converged?
 Maximum Force            0.000320     0.000450     YES
 RMS     Force            0.000096     0.000300     YES
 Maximum Displacement     0.000809     0.001800     YES
 RMS     Displacement     0.000333     0.001200     YES
 Predicted change in Energy=-2.210355D-07
 Optimization completed.
    -- Stationary point found.
                           ----------------------------
                           !   Optimized Parameters   !
                           ! (Angstroms and Degrees)  !
 --------------------------                            --------------------------
 ! Name  Definition              Value          Derivative Info.                !
 --------------------------------------------------------------------------------
 ! R1    R(1,2)                  1.3272         -DE/DX =    0.0003              !
 ! R2    R(1,4)                  1.0828         -DE/DX =    0.0                 !
 ! R3    R(1,5)                  1.0786         -DE/DX =    0.0                 !
 ! R4    R(2,3)                  1.3606         -DE/DX =   -0.0001              !
 ! R5    R(2,6)                  1.0816         -DE/DX =    0.0                 !
 ! R6    R(3,7)                  0.9633         -DE/DX =   -0.0002              !
 ! A1    A(2,1,4)              122.3489         -DE/DX =   -0.0001              !
 ! A2    A(2,1,5)              119.9517         -DE/DX =    0.0001              !
 ! A3    A(4,1,5)              117.6994         -DE/DX =    0.0                 !
 ! A4    A(1,2,3)              126.9342         -DE/DX =    0.0                 !
 ! A5    A(1,2,6)              122.6086         -DE/DX =    0.0                 !
 ! A6    A(3,2,6)              110.4572         -DE/DX =    0.0                 !
 ! A7    A(2,3,7)              109.7153         -DE/DX =    0.0001              !
 ! D1    D(4,1,2,3)              0.0            -DE/DX =    0.0                 !
 ! D2    D(4,1,2,6)            180.0            -DE/DX =    0.0                 !
 ! D3    D(5,1,2,3)            180.0            -DE/DX =    0.0                 !
 ! D4    D(5,1,2,6)              0.0            -DE/DX =    0.0                 !
 ! D5    D(1,2,3,7)              0.0            -DE/DX =    0.0                 !
 ! D6    D(6,2,3,7)            180.0            -DE/DX =    0.0                 !
 --------------------------------------------------------------------------------
 GradGradGradGradGradGradGradGradGradGradGradGradGradGradGradGradGradGrad

                          Input orientation:                          
 ---------------------------------------------------------------------
 Center     Atomic      Atomic             Coordinates (Angstroms)
 Number     Number       Type             X           Y           Z
 ---------------------------------------------------------------------
      1          6           0        1.211982   -0.100690    0.000000
      2          6           0        0.000220    0.440750    0.000000
      3          8           0       -1.189896   -0.218665    0.000000
      4          1           0        1.367789   -1.172270    0.000000
      5          1           0        2.084857    0.532845    0.000000
      6          1           0       -0.160259    1.510380    0.000000
      7          1           0       -1.034647   -1.169365    0.000000
 ---------------------------------------------------------------------
                    Distance matrix (angstroms):
                    1          2          3          4          5
     1  C    0.000000
     2  C    1.327224   0.000000
     3  O    2.404773   1.360589   0.000000
     4  H    1.082848   2.114729   2.729674   0.000000
     5  H    1.078554   2.086671   3.359877   1.849757   0.000000
     6  H    2.116268   1.081602   2.012399   3.087319   2.448698
     7  H    2.487852   1.914006   0.963293   2.402438   3.553706
                    6          7
     6  H    0.000000
     7  H    2.818792   0.000000
 Stoichiometry    C2H4O
 Framework group  CS[SG(C2H4O)]
 Deg. of freedom    11
 Full point group                 CS      NOp   2
 Largest Abelian subgroup         CS      NOp   2
 Largest concise Abelian subgroup C1      NOp   1
                         Standard orientation:                         
 ---------------------------------------------------------------------
 Center     Atomic      Atomic             Coordinates (Angstroms)
 Number     Number       Type             X           Y           Z
 ---------------------------------------------------------------------
      1          6           0        1.211429   -0.101127    0.000000
      2          6           0        0.000000    0.441057    0.000000
      3          8           0       -1.190521   -0.217626    0.000000
      4          1           0        1.366578   -1.172803    0.000000
      5          1           0        2.084694    0.531871    0.000000
      6          1           0       -0.159821    1.510785    0.000000
      7          1           0       -1.035856   -1.168422    0.000000
 ---------------------------------------------------------------------
 Rotational constants (GHZ):          60.8566819          10.5743728           9.0089842

 **********************************************************************

            Population analysis using the SCF Density.

 **********************************************************************

 Orbital symmetries:
       Occupied  (A') (A') (A') (A') (A') (A') (A') (A') (A") (A')
                 (A') (A")
       Virtual   (A') (A") (A') (A') (A') (A') (A") (A') (A') (A")
                 (A') (A') (A') (A') (A') (A') (A') (A") (A') (A')
                 (A') (A') (A") (A") (A') (A') (A") (A') (A") (A')
                 (A') (A') (A') (A") (A') (A') (A') (A") (A") (A')
                 (A") (A') (A') (A') (A") (A') (A") (A') (A') (A')
                 (A') (A") (A') (A') (A") (A') (A') (A') (A") (A')
                 (A') (A') (A') (A") (A") (A') (A') (A') (A") (A")
                 (A") (A') (A') (A') (A') (A") (A') (A") (A') (A')
                 (A") (A") (A') (A') (A') (A") (A") (A') (A') (A')
                 (A') (A") (A") (A") (A') (A") (A') (A") (A') (A")
                 (A') (A") (A') (A") (A') (A') (A') (A") (A") (A')
                 (A') (A') (A") (A') (A') (A') (A") (A') (A') (A')
                 (A") (A') (A') (A") (A') (A') (A") (A') (A") (A')
                 (A') (A') (A') (A')
 The electronic state is 1-A'.
 Alpha  occ. eigenvalues --  -19.16105 -10.23508 -10.16001  -1.06805  -0.75796
 Alpha  occ. eigenvalues --   -0.62910  -0.50518  -0.48980  -0.40223  -0.39287
 Alpha  occ. eigenvalues --   -0.37874  -0.24600
 Alpha virt. eigenvalues --    0.00895   0.01341   0.03760   0.05480   0.08705
 Alpha virt. eigenvalues --    0.13528   0.16911   0.18245   0.20749   0.24888
 Alpha virt. eigenvalues --    0.24930   0.26329   0.30386   0.33041   0.34130
 Alpha virt. eigenvalues --    0.37253   0.38124   0.39462   0.41764   0.50247
 Alpha virt. eigenvalues --    0.53259   0.55749   0.66809   0.73758   0.74535
 Alpha virt. eigenvalues --    0.78153   0.80526   0.91606   0.93085   0.97549
 Alpha virt. eigenvalues --    0.98819   0.99421   1.05899   1.10197   1.10333
 Alpha virt. eigenvalues --    1.14305   1.18458   1.22725   1.25418   1.26629
 Alpha virt. eigenvalues --    1.36692   1.39382   1.48081   1.50501   1.51123
 Alpha virt. eigenvalues --    1.54296   1.56052   1.70727   1.73589   1.82141
 Alpha virt. eigenvalues --    1.85195   1.86676   1.87750   1.95965   1.96142
 Alpha virt. eigenvalues --    2.03863   2.13870   2.25517   2.35402   2.35481
 Alpha virt. eigenvalues --    2.53603   2.69082   2.76491   3.00370   3.11587
 Alpha virt. eigenvalues --    3.14507   3.31222   3.35403   3.37715   3.40440
 Alpha virt. eigenvalues --    3.42009   3.42478   3.55548   3.60066   3.64053
 Alpha virt. eigenvalues --    3.68359   3.74078   3.77122   3.82046   3.87450
 Alpha virt. eigenvalues --    3.96608   3.97814   4.01410   4.05300   4.08344
 Alpha virt. eigenvalues --    4.08923   4.10663   4.16021   4.23915   4.29165
 Alpha virt. eigenvalues --    4.30501   4.31723   4.35032   4.37351   4.39237
 Alpha virt. eigenvalues --    4.39884   4.45591   4.46491   4.48752   4.50977
 Alpha virt. eigenvalues --    4.55396   4.58558   4.58576   4.68882   4.74714
 Alpha virt. eigenvalues --    4.86769   4.97844   4.99779   5.06518   5.12857
 Alpha virt. eigenvalues --    5.13978   5.15403   5.35454   5.37427   5.40040
 Alpha virt. eigenvalues --    5.46720   5.51338   5.57895   5.68684   5.74981
 Alpha virt. eigenvalues --    5.76644   5.91453   6.01665   6.07913   6.09154
 Alpha virt. eigenvalues --    6.19805   6.23675   6.42404   6.47405   6.55013
 Alpha virt. eigenvalues --    6.74511   6.95001   7.09167   7.53974
          Condensed to atoms (all electrons):
               1          2          3          4          5          6
     1  C    4.878199   0.633494  -0.084529   0.421505   0.415066  -0.068401
     2  C    0.633494   4.526017   0.292070  -0.041499  -0.027342   0.445389
     3  O   -0.084529   0.292070   7.866357  -0.007473   0.005615  -0.045376
     4  H    0.421505  -0.041499  -0.007473   0.600625  -0.022843   0.005197
     5  H    0.415066  -0.027342   0.005615  -0.022843   0.579895  -0.002609
     6  H   -0.068401   0.445389  -0.045376   0.005197  -0.002609   0.600703
     7  H   -0.010979  -0.028563   0.328501   0.005466   0.000906   0.009807
               7
     1  C   -0.010979
     2  C   -0.028563
     3  O    0.328501
     4  H    0.005466
     5  H    0.000906
     6  H    0.009807
     7  H    0.501398
 Mulliken charges:
               1
     1  C   -0.184355
     2  C    0.200434
     3  O   -0.355165
     4  H    0.039023
     5  H    0.051311
     6  H    0.055288
     7  H    0.193464
 Sum of Mulliken charges =  -0.00000
 Mulliken charges with hydrogens summed into heavy atoms:
               1
     1  C   -0.094022
     2  C    0.255723
     3  O   -0.161701
 Electronic spatial extent (au):  <R**2>=            164.5293
 Charge=              0.0000 electrons
 Dipole moment (field-independent basis, Debye):
    X=              0.5501    Y=             -0.8126    Z=              0.0000  Tot=              0.9813
 Quadrupole moment (field-independent basis, Debye-Ang):
   XX=            -20.4694   YY=            -14.6062   ZZ=            -21.1380
   XY=              1.2652   XZ=              0.0000   YZ=              0.0000
 Traceless Quadrupole moment (field-independent basis, Debye-Ang):
   XX=             -1.7315   YY=              4.1317   ZZ=             -2.4002
   XY=              1.2652   XZ=              0.0000   YZ=              0.0000
 Octapole moment (field-independent basis, Debye-Ang**2):
  XXX=             -0.3255  YYY=             -3.4959  ZZZ=              0.0000  XYY=             -4.2574
  XXY=             -1.4333  XXZ=              0.0000  XZZ=             -3.6325  YZZ=             -0.6440
  YYZ=              0.0000  XYZ=              0.0000
 Hexadecapole moment (field-independent basis, Debye-Ang**3):
 XXXX=           -146.9170 YYYY=            -38.6710 ZZZZ=            -24.5426 XXXY=              1.8713
 XXXZ=              0.0000 YYYX=             -0.3748 YYYZ=              0.0000 ZZZX=              0.0000
 ZZZY=              0.0000 XXYY=            -27.5474 XXZZ=            -31.5907 YYZZ=            -12.4856
 XXYZ=              0.0000 YYXZ=              0.0000 ZZXY=             -0.9170
 N-N= 7.039449214445D+01 E-N=-5.008697367411D+02  KE= 1.533364243173D+02
 Symmetry A'   KE= 1.466178514574D+02
 Symmetry A"   KE= 6.718572859939D+00
 1\1\GINC-GAMBA\FOpt\RB3LYP\Gen\C2H4O1\IRIKURA\18-Jun-2022\0\\# b3lyp/g
 en opt freq\\vinyl alcohol, B3LYP/pcseg-2\\0,1\C,1.2119815354,-0.10069
 0137,0.\C,0.0002198003,0.4407496459,0.\O,-1.1898961547,-0.2186647851,0
 .\H,1.3677893908,-1.1722697746,0.\H,2.084857141,0.5328445512,0.\H,-0.1
 60258705,1.5103797391,0.\H,-1.0346470079,-1.1693652394,0.\\Version=ES6
 4L-G16RevB.01\State=1-A'\HF=-153.8846032\RMSD=2.431e-09\RMSF=1.411e-04
 \Dipole=0.21661,-0.3195793,0.\Quadrupole=-1.2884961,3.0729493,-1.78445
 32,0.9379882,0.,0.\PG=CS [SG(C2H4O1)]\\@


 AN OPTIMIST IS A GUY
 THAT HAS NEVER HAD
 MUCH EXPERIENCE
   (CERTAIN MAXIMS OF ARCHY  -- DON MARQUIS)
 Job cpu time:       0 days  0 hours  2 minutes 19.1 seconds.
 Elapsed time:       0 days  0 hours  0 minutes 12.4 seconds.
 File lengths (MBytes):  RWF=     15 Int=      0 D2E=      0 Chk=      3 Scr=      1
 Normal termination of Gaussian 16 at Sat Jun 18 12:25:38 2022.
 Link1:  Proceeding to internal job step number  2.
 ------------------------------------------------------------------
 #N Geom=AllCheck Guess=TCheck SCRF=Check GenChk RB3LYP/ChkBas Freq
 ------------------------------------------------------------------
 1/10=4,29=7,30=1,38=1,40=1/1,3;
 2/12=2,40=1/2;
 3/5=7,6=2,11=2,14=-4,25=1,30=1,67=1,70=2,71=2,74=-5,82=7,116=1,140=1/1,2,3;
 4/5=101/1;
 5/5=2,38=6,98=1/2;
 8/6=4,10=90,11=11/1;
 11/6=1,8=1,9=11,15=111,16=1/1,2,10;
 10/6=1/2;
 6/7=2,8=2,9=2,10=2,28=1/1;
 7/8=1,10=1,25=1/1,2,3,16;
 1/10=4,30=1/3;
 99//99;
 Structure from the checkpoint file:  "/wrk/irikura/Gau-5102.chk"
 ----------------------------
 vinyl alcohol, B3LYP/pcseg-2
 ----------------------------
 Charge =  0 Multiplicity = 1
 Redundant internal coordinates found in file.  (old form).
 C,0,1.2119815354,-0.100690137,0.
 C,0,0.0002198003,0.4407496459,0.
 O,0,-1.1898961547,-0.2186647851,0.
 H,0,1.3677893908,-1.1722697746,0.
 H,0,2.084857141,0.5328445512,0.
 H,0,-0.160258705,1.5103797391,0.
 H,0,-1.0346470079,-1.1693652394,0.
 Recover connectivity data from disk.

 GradGradGradGradGradGradGradGradGradGradGradGradGradGradGradGradGradGrad
 Berny optimization.
 Initialization pass.
                           ----------------------------
                           !    Initial Parameters    !
                           ! (Angstroms and Degrees)  !
 --------------------------                            --------------------------
 ! Name  Definition              Value          Derivative Info.                !
 --------------------------------------------------------------------------------
 ! R1    R(1,2)                  1.3272         calculate D2E/DX2 analytically  !
 ! R2    R(1,4)                  1.0828         calculate D2E/DX2 analytically  !
 ! R3    R(1,5)                  1.0786         calculate D2E/DX2 analytically  !
 ! R4    R(2,3)                  1.3606         calculate D2E/DX2 analytically  !
 ! R5    R(2,6)                  1.0816         calculate D2E/DX2 analytically  !
 ! R6    R(3,7)                  0.9633         calculate D2E/DX2 analytically  !
 ! A1    A(2,1,4)              122.3489         calculate D2E/DX2 analytically  !
 ! A2    A(2,1,5)              119.9517         calculate D2E/DX2 analytically  !
 ! A3    A(4,1,5)              117.6994         calculate D2E/DX2 analytically  !
 ! A4    A(1,2,3)              126.9342         calculate D2E/DX2 analytically  !
 ! A5    A(1,2,6)              122.6086         calculate D2E/DX2 analytically  !
 ! A6    A(3,2,6)              110.4572         calculate D2E/DX2 analytically  !
 ! A7    A(2,3,7)              109.7153         calculate D2E/DX2 analytically  !
 ! D1    D(4,1,2,3)              0.0            calculate D2E/DX2 analytically  !
 ! D2    D(4,1,2,6)            180.0            calculate D2E/DX2 analytically  !
 ! D3    D(5,1,2,3)            180.0            calculate D2E/DX2 analytically  !
 ! D4    D(5,1,2,6)              0.0            calculate D2E/DX2 analytically  !
 ! D5    D(1,2,3,7)              0.0            calculate D2E/DX2 analytically  !
 ! D6    D(6,2,3,7)            180.0            calculate D2E/DX2 analytically  !
 --------------------------------------------------------------------------------
 Trust Radius=3.00D-01 FncErr=1.00D-07 GrdErr=1.00D-07 EigMax=2.50D+02 EigMin=1.00D-04
 Number of steps in this run=      2 maximum allowed number of steps=      2.
 GradGradGradGradGradGradGradGradGradGradGradGradGradGradGradGradGradGrad

                          Input orientation:                          
 ---------------------------------------------------------------------
 Center     Atomic      Atomic             Coordinates (Angstroms)
 Number     Number       Type             X           Y           Z
 ---------------------------------------------------------------------
      1          6           0        1.211982   -0.100690    0.000000
      2          6           0        0.000220    0.440750    0.000000
      3          8           0       -1.189896   -0.218665    0.000000
      4          1           0        1.367789   -1.172270    0.000000
      5          1           0        2.084857    0.532845    0.000000
      6          1           0       -0.160259    1.510380    0.000000
      7          1           0       -1.034647   -1.169365    0.000000
 ---------------------------------------------------------------------
                    Distance matrix (angstroms):
                    1          2          3          4          5
     1  C    0.000000
     2  C    1.327224   0.000000
     3  O    2.404773   1.360589   0.000000
     4  H    1.082848   2.114729   2.729674   0.000000
     5  H    1.078554   2.086671   3.359877   1.849757   0.000000
     6  H    2.116268   1.081602   2.012399   3.087319   2.448698
     7  H    2.487852   1.914006   0.963293   2.402438   3.553706
                    6          7
     6  H    0.000000
     7  H    2.818792   0.000000
 Stoichiometry    C2H4O
 Framework group  CS[SG(C2H4O)]
 Deg. of freedom    11
 Full point group                 CS      NOp   2
 Largest Abelian subgroup         CS      NOp   2
 Largest concise Abelian subgroup C1      NOp   1
                         Standard orientation:                         
 ---------------------------------------------------------------------
 Center     Atomic      Atomic             Coordinates (Angstroms)
 Number     Number       Type             X           Y           Z
 ---------------------------------------------------------------------
      1          6           0        1.211429   -0.101127    0.000000
      2          6           0        0.000000    0.441057    0.000000
      3          8           0       -1.190521   -0.217626    0.000000
      4          1           0        1.366578   -1.172803    0.000000
      5          1           0        2.084694    0.531871    0.000000
      6          1           0       -0.159821    1.510785    0.000000
      7          1           0       -1.035856   -1.168422    0.000000
 ---------------------------------------------------------------------
 Rotational constants (GHZ):          60.8566819          10.5743728           9.0089842
 Basis read from chk: "/wrk/irikura/Gau-5102.chk" (5D, 7F)
 There are   116 symmetry adapted cartesian basis functions of A'  symmetry.
 There are    49 symmetry adapted cartesian basis functions of A"  symmetry.
 There are   100 symmetry adapted basis functions of A'  symmetry.
 There are    46 symmetry adapted basis functions of A"  symmetry.
   146 basis functions,   225 primitive gaussians,   165 cartesian basis functions
    12 alpha electrons       12 beta electrons
       nuclear repulsion energy        70.3944921444 Hartrees.
 NAtoms=    7 NActive=    7 NUniq=    7 SFac= 1.00D+00 NAtFMM=   60 NAOKFM=F Big=F
 Integral buffers will be    131072 words long.
 Raffenetti 2 integral format.
 Two-electron integral symmetry is turned on.
 One-electron integrals computed using PRISM.
 NBasis=   146 RedAO= T EigKep=  4.31D-04  NBF=   100    46
 NBsUse=   146 1.00D-06 EigRej= -1.00D+00 NBFU=   100    46
 Initial guess from the checkpoint file:  "/wrk/irikura/Gau-5102.chk"
 B after Tr=    -0.000000   -0.000000    0.000000
         Rot=    1.000000    0.000000    0.000000    0.000000 Ang=   0.00 deg.
 Initial guess orbital symmetries:
       Occupied  (A') (A') (A') (A') (A') (A') (A') (A') (A") (A')
                 (A') (A")
       Virtual   (A') (A") (A') (A') (A') (A') (A") (A') (A') (A")
                 (A') (A') (A') (A') (A') (A') (A') (A") (A') (A')
                 (A') (A') (A") (A") (A') (A') (A") (A') (A") (A')
                 (A') (A') (A') (A") (A') (A') (A') (A") (A") (A')
                 (A") (A') (A') (A') (A") (A') (A") (A') (A') (A')
                 (A') (A") (A') (A') (A") (A') (A') (A') (A") (A')
                 (A') (A') (A') (A") (A") (A') (A') (A') (A") (A")
                 (A") (A') (A') (A') (A') (A") (A') (A") (A') (A')
                 (A") (A") (A') (A') (A') (A") (A") (A') (A') (A')
                 (A') (A") (A") (A") (A') (A") (A') (A") (A') (A")
                 (A') (A") (A') (A") (A') (A') (A') (A") (A") (A')
                 (A') (A') (A") (A') (A') (A') (A") (A') (A') (A')
                 (A") (A') (A') (A") (A') (A') (A") (A') (A") (A')
                 (A') (A') (A') (A')
 Keep R1 ints in memory in symmetry-blocked form, NReq=86987181.
 Requested convergence on RMS density matrix=1.00D-08 within 128 cycles.
 Requested convergence on MAX density matrix=1.00D-06.
 Requested convergence on             energy=1.00D-06.
 No special actions if energy rises.
 SCF Done:  E(RB3LYP) =  -153.884603188     A.U. after    1 cycles
            NFock=  1  Conv=0.68D-09     -V/T= 2.0036
 DoSCS=F DFT=T ScalE2(SS,OS)=  1.000000  1.000000
 Range of M.O.s used for correlation:     1   146
 NBasis=   146 NAE=    12 NBE=    12 NFC=     0 NFV=     0
 NROrb=    146 NOA=    12 NOB=    12 NVA=   134 NVB=   134

 **** Warning!!: The largest alpha MO coefficient is  0.12491763D+02

 Symmetrizing basis deriv contribution to polar:
 IMax=3 JMax=2 DiffMx= 0.00D+00
 G2DrvN: will do     8 centers at a time, making    1 passes.
 Calling FoFCou, ICntrl=  3107 FMM=F I1Cent=   0 AccDes= 0.00D+00.
 End of G2Drv F.D. properties file   721 does not exist.
 End of G2Drv F.D. properties file   722 does not exist.
 End of G2Drv F.D. properties file   788 does not exist.
          IDoAtm=1111111
          Differentiating once with respect to electric field.
                with respect to dipole field.
          Differentiating once with respect to nuclear coordinates.
 Keep R1 ints in memory in symmetry-blocked form, NReq=86990498.
          There are    24 degrees of freedom in the 1st order CPHF.  IDoFFX=6 NUNeed=     3.
     21 vectors produced by pass  0 Test12= 6.70D-15 4.17D-09 XBig12= 4.09D+01 5.43D+00.
 AX will form    21 AO Fock derivatives at one time.
     21 vectors produced by pass  1 Test12= 6.70D-15 4.17D-09 XBig12= 9.36D+00 8.73D-01.
     21 vectors produced by pass  2 Test12= 6.70D-15 4.17D-09 XBig12= 1.90D-01 1.16D-01.
     21 vectors produced by pass  3 Test12= 6.70D-15 4.17D-09 XBig12= 6.68D-04 6.50D-03.
     21 vectors produced by pass  4 Test12= 6.70D-15 4.17D-09 XBig12= 1.02D-06 2.06D-04.
     14 vectors produced by pass  5 Test12= 6.70D-15 4.17D-09 XBig12= 1.06D-09 6.77D-06.
      4 vectors produced by pass  6 Test12= 6.70D-15 4.17D-09 XBig12= 5.61D-13 1.48D-07.
 InvSVY:  IOpt=1 It=  1 EMax= 1.78D-15
 Solved reduced A of dimension   123 with    24 vectors.
 Isotropic polarizability for W=    0.000000       29.93 Bohr**3.
 End of Minotr F.D. properties file   721 does not exist.
 End of Minotr F.D. properties file   722 does not exist.
 End of Minotr F.D. properties file   788 does not exist.

 **********************************************************************

            Population analysis using the SCF Density.

 **********************************************************************

 Orbital symmetries:
       Occupied  (A') (A') (A') (A') (A') (A') (A') (A') (A") (A')
                 (A') (A")
       Virtual   (A') (A") (A') (A') (A') (A') (A") (A') (A') (A")
                 (A') (A') (A') (A') (A') (A') (A') (A") (A') (A')
                 (A') (A') (A") (A") (A') (A') (A") (A') (A") (A')
                 (A') (A') (A') (A") (A') (A') (A') (A") (A") (A')
                 (A") (A') (A') (A') (A") (A') (A") (A') (A') (A')
                 (A') (A") (A') (A') (A") (A') (A') (A') (A") (A')
                 (A') (A') (A') (A") (A") (A') (A') (A') (A") (A")
                 (A") (A') (A') (A') (A') (A") (A') (A") (A') (A')
                 (A") (A") (A') (A') (A') (A") (A") (A') (A') (A')
                 (A') (A") (A") (A") (A') (A") (A') (A") (A') (A")
                 (A') (A") (A') (A") (A') (A') (A') (A") (A") (A')
                 (A') (A') (A") (A') (A') (A') (A") (A') (A') (A')
                 (A") (A') (A') (A") (A') (A') (A") (A') (A") (A')
                 (A') (A') (A') (A')
 The electronic state is 1-A'.
 Alpha  occ. eigenvalues --  -19.16105 -10.23508 -10.16001  -1.06805  -0.75796
[...]
 Red. masses --      1.0932                 1.1129                 1.0653
 Frc consts  --      6.5639                 6.9093                 9.0408
 IR Inten    --      4.8858                 7.5007                36.8096
  Atom  AN      X      Y      Z        X      Y      Z        X      Y      Z
     1   6     0.00   0.02  -0.00    -0.05  -0.08   0.00     0.00   0.00  -0.00
     2   6     0.02  -0.08   0.00     0.00  -0.02  -0.00     0.00  -0.00   0.00
     3   8    -0.00   0.00  -0.00     0.00   0.00   0.00     0.01  -0.06  -0.00
     4   1     0.02  -0.13   0.00    -0.08   0.47  -0.00    -0.00  -0.00   0.00
     5   1    -0.11  -0.08  -0.00     0.69   0.49   0.00     0.00  -0.00  -0.00
     6   1    -0.15   0.97   0.00    -0.03   0.19  -0.00    -0.00   0.02  -0.00
     7   1     0.01  -0.02   0.00     0.01  -0.00   0.00    -0.14   0.99  -0.00

 -------------------
 - Thermochemistry -
 -------------------
 Temperature   298.150 Kelvin.  Pressure   1.00000 Atm.
 Atom     1 has atomic number  6 and mass  12.00000
 Atom     2 has atomic number  6 and mass  12.00000
 Atom     3 has atomic number  8 and mass  15.99491
 Atom     4 has atomic number  1 and mass   1.00783
 Atom     5 has atomic number  1 and mass   1.00783
 Atom     6 has atomic number  1 and mass   1.00783
 Atom     7 has atomic number  1 and mass   1.00783
 Molecular mass:    44.02621 amu.
 Principal axes and moments of inertia in atomic units:
                           1         2         3
     Eigenvalues --    29.65560 170.67123 200.32683
           X            0.99676  -0.08048   0.00000
           Y            0.08048   0.99676   0.00000
           Z            0.00000   0.00000   1.00000
 This molecule is an asymmetric top.
 Rotational symmetry number  1.
 Rotational temperatures (Kelvin)      2.92066     0.50749     0.43236
 Rotational constants (GHZ):          60.85668    10.57437     9.00898
 Zero-point vibrational energy     148300.0 (Joules/Mol)
                                   35.44456 (Kcal/Mol)
 Warning -- explicit consideration of   2 degrees of freedom as
           vibrations may cause significant error
 Vibrational temperatures:    660.94   707.42  1027.43  1208.92  1383.36
          (Kelvin)           1437.40  1609.72  1907.95  1946.41  2087.93
                             2442.32  4528.97  4593.04  4670.46  5460.51
 
 Zero-point correction=                           0.056485 (Hartree/Particle)
 Thermal correction to Energy=                    0.060108
 Thermal correction to Enthalpy=                  0.061052
 Thermal correction to Gibbs Free Energy=         0.032042
 Sum of electronic and zero-point Energies=           -153.828119
 Sum of electronic and thermal Energies=              -153.824495
 Sum of electronic and thermal Enthalpies=            -153.823551
 Sum of electronic and thermal Free Energies=         -153.852561
 
                     E (Thermal)             CV                S
                      KCal/Mol        Cal/Mol-Kelvin    Cal/Mol-Kelvin
 Total                   37.718             11.409             61.057
 Electronic               0.000              0.000              0.000
 Translational            0.889              2.981             37.273
 Rotational               0.889              2.981             21.544
 Vibrational             35.941              5.448              2.241
 Vibration     1          0.817              1.340              0.768
 Vibration     2          0.847              1.268              0.679
                       Q            Log10(Q)             Ln(Q)
 Total Bot       0.182669D-14        -14.738335        -33.936271
 Total V=0       0.174867D+12         11.242708         25.887293
 Vib (Bot)       0.139571D-25        -25.855205        -59.533809
 Vib (Bot)    1  0.370451D+00         -0.431269         -0.993034
 Vib (Bot)    2  0.336727D+00         -0.472722         -1.088482
 Vib (V=0)       0.133610D+01          0.125839          0.289755
 Vib (V=0)    1  0.112228D+01          0.050102          0.115363
 Vib (V=0)    2  0.110281D+01          0.042502          0.097865
 Electronic      0.100000D+01          0.000000          0.000000
 Translational   0.114821D+08          7.060021         16.256299
 Rotational      0.113985D+05          4.056849          9.341239
 ***** Axes restored to original set *****
 -------------------------------------------------------------------
 Center     Atomic                   Forces (Hartrees/Bohr)
 Number     Number              X              Y              Z
 -------------------------------------------------------------------
      1        6           0.000358545   -0.000042336   -0.000000000
      2        6          -0.000404932    0.000083528   -0.000000000
      3        8           0.000175570   -0.000192478   -0.000000000
      4        1          -0.000062660   -0.000027629   -0.000000000
      5        1           0.000023867    0.000000167   -0.000000000
      6        1           0.000004605   -0.000006613   -0.000000000
      7        1          -0.000094996    0.000185361   -0.000000000
 -------------------------------------------------------------------
 Cartesian Forces:  Max     0.000404932 RMS     0.000141063
 FormGI is forming the generalized inverse of G from B-inverse, IUseBI=4.

 GradGradGradGradGradGradGradGradGradGradGradGradGradGradGradGradGradGrad
 Berny optimization.
 Internal  Forces:  Max     0.000320309 RMS     0.000096168
 Search for a local minimum.
 Step number   1 out of a maximum of    2
 All quantities printed in internal units (Hartrees-Bohrs-Radians)
 Second derivative matrix not updated -- analytic derivatives used.
 The second derivative matrix:
                          R1        R2        R3        R4        R5
           R1           0.61274
           R2           0.00656   0.35526
           R3           0.00427   0.00194   0.36572
           R4           0.04031   0.00260  -0.00196   0.40567
           R5           0.00678  -0.00038   0.00066   0.01319   0.35966
           R6          -0.00117  -0.00035  -0.00059   0.00628  -0.00198
           A1           0.00810   0.00855  -0.01136  -0.00678   0.00313
           A2           0.01235  -0.01343   0.00638   0.00764  -0.00216
           A3          -0.02045   0.00488   0.00498  -0.00086  -0.00098
           A4           0.01591  -0.00351   0.00436   0.02092  -0.01123
           A5           0.00663   0.00447  -0.00266  -0.03934   0.00470
           A6          -0.02254  -0.00096  -0.00170   0.01843   0.00653
           A7          -0.00052   0.00338  -0.00121   0.04580   0.00328
           D1          -0.00000  -0.00000  -0.00000   0.00000   0.00000
           D2          -0.00000  -0.00000   0.00000   0.00000   0.00000
           D3          -0.00000  -0.00000  -0.00000   0.00000   0.00000
           D4          -0.00000  -0.00000   0.00000   0.00000   0.00000
           D5          -0.00000  -0.00000   0.00000   0.00000  -0.00000
           D6          -0.00000  -0.00000   0.00000   0.00000   0.00000
                          R6        A1        A2        A3        A4
           R6           0.51790
           A1           0.00213   0.07375
           A2          -0.00199  -0.03916   0.07349
           A3          -0.00014  -0.03459  -0.03433   0.06892
           A4          -0.00988  -0.01243   0.01513  -0.00270   0.14170
           A5           0.00196   0.01167  -0.01095  -0.00072  -0.06179
           A6           0.00792   0.00076  -0.00418   0.00342  -0.07991
           A7           0.02018   0.00079   0.00039  -0.00118  -0.01396
           D1           0.00000   0.00000  -0.00000   0.00000   0.00000
           D2           0.00000   0.00000  -0.00000   0.00000   0.00000
           D3           0.00000   0.00000  -0.00000   0.00000   0.00000
           D4           0.00000   0.00000  -0.00000   0.00000   0.00000
           D5           0.00000   0.00000  -0.00000   0.00000   0.00000
           D6           0.00000   0.00000  -0.00000   0.00000   0.00000
                          A5        A6        A7        D1        D2
           A5           0.09534
           A6          -0.03355   0.11346
           A7          -0.00338   0.01734   0.17862
           D1           0.00000  -0.00000   0.00000   0.02054
           D2           0.00000  -0.00000  -0.00000   0.00742   0.02159
           D3           0.00000  -0.00000   0.00000   0.00819  -0.01006
           D4           0.00000  -0.00000  -0.00000  -0.00493   0.00410
           D5           0.00000  -0.00000  -0.00000  -0.00563   0.00602
           D6           0.00000  -0.00000  -0.00000   0.00616  -0.00672
                          D3        D4        D5        D6
           D3           0.02677
           D4           0.00852   0.01755
           D5          -0.00839   0.00326   0.00995
           D6           0.00802  -0.00486  -0.00052   0.01106
 ITU=  0
     Eigenvalues ---    0.00985   0.02582   0.02852   0.04325   0.10126
     Eigenvalues ---    0.10178   0.13113   0.16078   0.22286   0.35655
     Eigenvalues ---    0.35916   0.36673   0.41755   0.52048   0.62394
 Angle between quadratic step and forces=  39.86 degrees.
 Linear search not attempted -- first point.
 Iteration  1 RMS(Cart)=  0.00040775 RMS(Int)=  0.00000015
 Iteration  2 RMS(Cart)=  0.00000015 RMS(Int)=  0.00000000
 ClnCor:  largest displacement from symmetrization is 6.74D-12 for atom     1.
 Variable       Old X    -DE/DX   Delta X   Delta X   Delta X     New X
                                 (Linear)    (Quad)   (Total)
    R1        2.50809   0.00032   0.00000   0.00057   0.00057   2.50866
    R2        2.04629   0.00002   0.00000   0.00007   0.00007   2.04636
    R3        2.03817   0.00002   0.00000   0.00000   0.00000   2.03817
    R4        2.57114  -0.00007   0.00000  -0.00033  -0.00033   2.57081
    R5        2.04393  -0.00001   0.00000  -0.00002  -0.00002   2.04391
    R6        1.82036  -0.00020   0.00000  -0.00040  -0.00040   1.81996
    A1        2.13539  -0.00010   0.00000  -0.00096  -0.00096   2.13443
    A2        2.09355   0.00006   0.00000   0.00051   0.00051   2.09406
    A3        2.05424   0.00004   0.00000   0.00045   0.00045   2.05469
    A4        2.21542   0.00000   0.00000  -0.00005  -0.00005   2.21537
    A5        2.13992  -0.00000   0.00000  -0.00002  -0.00002   2.13991
    A6        1.92784   0.00000   0.00000   0.00007   0.00007   1.92791
    A7        1.91489   0.00012   0.00000   0.00078   0.00078   1.91567
    D1        0.00000  -0.00000   0.00000   0.00000   0.00000   0.00000
    D2        3.14159  -0.00000   0.00000   0.00000   0.00000   3.14159
    D3        3.14159  -0.00000   0.00000   0.00000   0.00000   3.14159
    D4        0.00000  -0.00000   0.00000   0.00000   0.00000   0.00000
    D5        0.00000  -0.00000   0.00000   0.00000   0.00000   0.00000
    D6        3.14159  -0.00000   0.00000   0.00000   0.00000   3.14159
         Item               Value     Threshold  Converged?
 Maximum Force            0.000320     0.000450     YES
 RMS     Force            0.000096     0.000300     YES
 Maximum Displacement     0.000948     0.001800     YES
 RMS     Displacement     0.000408     0.001200     YES
 Predicted change in Energy=-2.594347D-07
 Optimization completed.
    -- Stationary point found.
                           ----------------------------
                           !   Optimized Parameters   !
                           ! (Angstroms and Degrees)  !
 --------------------------                            --------------------------
 ! Name  Definition              Value          Derivative Info.                !
 --------------------------------------------------------------------------------
 ! R1    R(1,2)                  1.3272         -DE/DX =    0.0003              !
 ! R2    R(1,4)                  1.0828         -DE/DX =    0.0                 !
 ! R3    R(1,5)                  1.0786         -DE/DX =    0.0                 !
 ! R4    R(2,3)                  1.3606         -DE/DX =   -0.0001              !
 ! R5    R(2,6)                  1.0816         -DE/DX =    0.0                 !
 ! R6    R(3,7)                  0.9633         -DE/DX =   -0.0002              !
 ! A1    A(2,1,4)              122.3489         -DE/DX =   -0.0001              !
 ! A2    A(2,1,5)              119.9517         -DE/DX =    0.0001              !
 ! A3    A(4,1,5)              117.6994         -DE/DX =    0.0                 !
 ! A4    A(1,2,3)              126.9342         -DE/DX =    0.0                 !
 ! A5    A(1,2,6)              122.6086         -DE/DX =    0.0                 !
 ! A6    A(3,2,6)              110.4572         -DE/DX =    0.0                 !
 ! A7    A(2,3,7)              109.7153         -DE/DX =    0.0001              !
 ! D1    D(4,1,2,3)              0.0            -DE/DX =    0.0                 !
 ! D2    D(4,1,2,6)            180.0            -DE/DX =    0.0                 !
 ! D3    D(5,1,2,3)            180.0            -DE/DX =    0.0                 !
 ! D4    D(5,1,2,6)              0.0            -DE/DX =    0.0                 !
 ! D5    D(1,2,3,7)              0.0            -DE/DX =    0.0                 !
 ! D6    D(6,2,3,7)            180.0            -DE/DX =    0.0                 !
 --------------------------------------------------------------------------------
 GradGradGradGradGradGradGradGradGradGradGradGradGradGradGradGradGradGrad


 ----------------------------------------------------------------------

 Electric dipole moment (input orientation):
 (Debye = 10**-18 statcoulomb cm , SI units = C m)
                  (au)            (Debye)         (10**-30 SI)
   Tot        0.386071D+00      0.981295D+00      0.327325D+01
   x          0.216610D+00      0.550567D+00      0.183649D+01
   y         -0.319580D+00     -0.812290D+00     -0.270951D+01
   z          0.000000D+00      0.000000D+00      0.000000D+00

 Dipole polarizability, Alpha (input orientation).
 (esu units = cm**3 , SI units = C**2 m**2 J**-1)
 Alpha(0;0):
               (au)            (10**-24 esu)      (10**-40 SI)
   iso        0.299286D+02      0.443496D+01      0.493455D+01
   aniso      0.167954D+02      0.248881D+01      0.276918D+01
   xx         0.397612D+02      0.589200D+01      0.655573D+01
   yx        -0.245287D+01     -0.363477D+00     -0.404423D+00
   yy         0.289495D+02      0.428987D+01      0.477312D+01
   zx         0.000000D+00      0.000000D+00      0.000000D+00
   zy         0.000000D+00      0.000000D+00      0.000000D+00
   zz         0.210751D+02      0.312301D+01      0.347481D+01

 ----------------------------------------------------------------------

 Dipole orientation:
     6          1.48097399          1.00379818          1.44251341
     6          0.38710849          0.26238057         -0.68921663
     8         -1.73265836         -1.17438883         -0.91954127
     1          0.74225136          0.50309497          3.28394475
     1          3.16724610          2.14674660          1.37696576
     1          1.11807227          0.75782486         -2.53255045
     1         -2.36601483         -1.60367529          0.73221051

 Electric dipole moment (dipole orientation):
 (Debye = 10**-18 statcoulomb cm , SI units = C m)
                  (au)            (Debye)         (10**-30 SI)
   Tot        0.386071D+00      0.981295D+00      0.327325D+01
   x          0.000000D+00      0.000000D+00      0.000000D+00
   y          0.000000D+00      0.000000D+00      0.000000D+00
   z          0.386071D+00      0.981295D+00      0.327325D+01

 Dipole polarizability, Alpha (dipole orientation).
 (esu units = cm**3 , SI units = C**2 m**2 J**-1)
 Alpha(0;0):
               (au)            (10**-24 esu)      (10**-40 SI)
   iso        0.299286D+02      0.443496D+01      0.493455D+01
   aniso      0.167954D+02      0.248881D+01      0.276918D+01
   xx         0.299857D+02      0.444343D+01      0.494398D+01
   yx         0.603961D+01      0.894977D+00      0.995796D+00
   yy         0.251687D+02      0.372962D+01      0.414976D+01
   zx         0.490862D+01      0.727382D+00      0.809321D+00
   zy         0.332704D+01      0.493016D+00      0.548555D+00
   zz         0.346313D+02      0.513182D+01      0.570992D+01

 ----------------------------------------------------------------------
 1\1\GINC-GAMBA\Freq\RB3LYP\Gen\C2H4O1\IRIKURA\18-Jun-2022\0\\#N Geom=A
 llCheck Guess=TCheck SCRF=Check GenChk RB3LYP/ChkBas Freq\\vinyl alcoh
 ol, B3LYP/pcseg-2\\0,1\C,1.2119815354,-0.100690137,0.\C,0.0002198003,0
 .4407496459,0.\O,-1.1898961547,-0.2186647851,0.\H,1.3677893908,-1.1722
 697746,0.\H,2.084857141,0.5328445512,0.\H,-0.160258705,1.5103797391,0.
 \H,-1.0346470079,-1.1693652394,0.\\Version=ES64L-G16RevB.01\State=1-A'
 \HF=-153.8846032\RMSD=6.776e-10\RMSF=1.411e-04\ZeroPoint=0.0564845\The
 rmal=0.0601081\Dipole=0.2166098,-0.3195796,0.\DipoleDeriv=-0.5179797,0
 .0084508,0.,0.2241144,-0.0081786,0.,0.,0.,-0.4409325,1.4101289,0.13643
 56,0.,0.4127264,0.369431,0.,0.,0.,-0.0683447,-1.2277071,-0.2006748,0.,
 -0.6601428,-0.3836248,0.,0.,0.,-0.3320936,0.0522394,-0.0342111,0.,0.00
 24819,-0.102142,0.,0.,0.,0.1848259,-0.0026413,-0.0374267,0.,-0.0713489
 ,0.0048937,0.,0.,0.,0.1726502,0.037019,0.0201582,0.,-0.0035431,-0.0576
 572,0.,0.,0.,0.1621412,0.2489408,0.107268,0.,0.0957121,0.1772779,0.,0.
 ,0.,0.3217535\Polar=39.7611661,-2.4528674,28.9494525,0.,0.,21.0750869\
 Quadrupole=-1.2884964,3.0729497,-1.7844533,0.9379886,0.,0.\PG=CS [SG(C
 2H4O1)]\NImag=0\\0.81419041,-0.06545699,0.67566049,0.,0.,0.08576620,-0
 .45095610,0.17165750,0.,0.78844415,0.16744477,-0.20451994,0.,-0.127833
 18,0.72695287,0.,0.,-0.05192044,0.,0.,0.13643171,-0.05965148,-0.031673
 39,0.,-0.25800156,-0.05713826,0.,0.38085842,-0.00267677,0.01597190,0.,
 -0.10306561,-0.16050290,0.,0.02900166,0.64684795,0.,0.,0.01284164,0.,0
 .,-0.04519061,0.,0.,0.03450051,-0.06209208,0.03604610,0.,-0.00110149,0
 .03064724,0.,0.00377579,0.00059196,0.,0.05739586,0.03950850,-0.3275398
 6,0.,-0.00279240,-0.01335915,0.,-0.00019170,0.00345061,0.,-0.04506935,
 0.34845208,0.,0.,-0.02885409,0.,0.,0.00651968,0.,0.,-0.00730700,0.,0.,
 0.01904576,-0.24291549,-0.13746313,0.,-0.01918484,-0.02098672,0.,-0.00
 327945,0.00287559,0.,0.00682409,0.00473700,0.,0.25772311,-0.14341700,-
 0.15776334,0.,0.01172379,0.00948382,0.,0.00415568,0.00069067,0.,-0.022
 38167,-0.01175419,0.,0.14949195,0.15880152,0.,0.,-0.02387220,0.,0.,-0.
 00290227,0.,0.,0.01253762,0.,0.,0.00089508,0.,0.,0.01967830,0.00029637
 ,0.02830718,0.,-0.06269204,0.05441662,0.,-0.00171418,-0.03815027,0.,-0
 .00418863,0.00198876,0.,0.00071243,-0.00035840,0.,0.07224760,0.0006614
 2,-0.00789702,0.,0.04854942,-0.32732062,0.,-0.00579151,-0.02111364,0.,
 0.00132790,0.00097030,0.,0.00030059,0.00080865,0.,-0.04222741,0.353462
 72,0.,0.,0.00758373,0.,0.,-0.04340601,0.,0.,0.00185997,0.,0.,0.0096366
 0,0.,0.,-0.00568431,0.,0.,0.02601857,0.00112836,-0.00141727,0.,0.00349
 189,-0.04655046,0.,-0.06198753,0.11142344,0.,-0.00061354,0.00181918,0.
 ,0.00012014,0.00078565,0.,-0.00466154,-0.00282041,0.,0.06252222,0.0039
 3606,0.00608776,0.,0.00176047,-0.03073407,0.,0.06163753,-0.48534460,0.
 ,-0.00116218,-0.00021979,0.,0.00104472,-0.00026713,0.,-0.00397648,0.00
 108960,0.,-0.06324012,0.50938823,0.,0.,-0.00154484,0.,0.,0.00046794,0.
 ,0.,-0.00924212,0.,0.,0.00006398,0.,0.,-0.00065223,0.,0.,0.00399143,0.
 ,0.,0.00691583\\-0.00035855,0.00004234,0.,0.00040493,-0.00008353,0.,-0
 .00017557,0.00019248,0.,0.00006266,0.00002763,0.,-0.00002387,-0.000000
 17,0.,-0.00000461,0.00000661,0.,0.00009500,-0.00018536,0.\\\@


 NEVER LISTEN TO CRITICISM
 OR YOU'LL BE DOIN' EVERYBODY ELSE'S THING BUT BUT YOUR OWN.

                                               -- ANDY CAPP
 Job cpu time:       0 days  0 hours  5 minutes 31.5 seconds.
 Elapsed time:       0 days  0 hours  0 minutes 27.7 seconds.
 File lengths (MBytes):  RWF=     16 Int=      0 D2E=      0 Chk=      3 Scr=      1
 Normal termination of Gaussian 16 at Sat Jun 18 12:26:06 2022.
