 Entering Gaussian System, Link 0=g16
 AtFile(1): /home/irikura/basis/pcseg2.gbs
            -H     0
            S   4   1.00
                  0.754732D+02           0.427821D-02
                  0.113575D+02           0.328672D-01
                  0.260081D+01           0.159578D+00
                  0.735503D+00           0.500000D+00
            S   1   1.00
                  0.231761D+00           1.0000000
            S   1   1.00
                  0.741675D-01           1.0000000
            P   1   1.00
                  0.160000D+01           1.0000000
            P   1   1.00
                  0.450000D+00           1.0000000
            D   1   1.00
                  0.125000D+01           1.0000000
            ****
            -C     0
            S   7   1.00
                  0.731999D+04           0.695369D-03
                  0.109818D+04           0.537138D-02
                  0.250014D+03           0.274734D-01
                  0.707586D+02           0.105078D+00
                  0.228595D+02           0.291262D+00
                  0.803936D+01           0.500000D+00
                  0.289309D+01           0.362224D+00
            S   2   1.00
                  0.521640D+01          -0.957844D-01
                  0.556124D+00           0.500000D+00
            S   1   1.00
                  0.228813D+00           1.0000000
            S   1   1.00
                  0.936338D-01           1.0000000
            P   4   1.00
                  0.339855D+02           0.818395D-02
                  0.772957D+01           0.586921D-01
                  0.224954D+01           0.222514D+00
                  0.767681D+00           0.500000D+00
            P   1   1.00
                  0.263283D+00           1.0000000
            P   1   1.00
                  0.848744D-01           1.0000000
            D   1   1.00
                  0.140000D+01           1.0000000
            D   1   1.00
                  0.450000D+00           1.0000000
            F   1   1.00
                  0.950000D+00           1.0000000
            ****
            -O     0
            S   7   1.00
                  0.135887D+05           0.665492D-03
                  0.203847D+04           0.514222D-02
                  0.464041D+03           0.263472D-01
                  0.131339D+03           0.101500D+00
                  0.425340D+02           0.285877D+00
                  0.150429D+02           0.500000D+00
                  0.546616D+01           0.368211D+00
            S   2   1.00
                  0.100915D+02          -0.100084D+00
                  0.110429D+01           0.500000D+00
            S   1   1.00
                  0.448082D+00           1.0000000
            S   1   1.00
                  0.175325D+00           1.0000000
            P   4   1.00
                  0.608220D+02           0.908253D-02
                  0.140332D+02           0.645878D-01
                  0.418244D+01           0.241502D+00
                  0.142490D+01           0.500000D+00
            P   1   1.00
                  0.478741D+00           1.0000000
            P   1   1.00
                  0.146257D+00           1.0000000
            D   1   1.00
                  0.220000D+01           1.0000000
            D   1   1.00
                  0.650000D+00           1.0000000
            F   1   1.00
                  0.110000D+01           1.0000000
            ****
            -N     0
            S   7   1.00
                  0.101643D+05           0.682757D-03
                  0.152481D+04           0.527488D-02
                  0.347119D+03           0.270037D-01
                  0.982389D+02           0.103673D+00
                  0.317799D+02           0.289575D+00
                  0.112240D+02           0.500000D+00
                  0.406611D+01           0.364621D+00
            S   2   1.00
                  0.747898D+01          -0.975681D-01
                  0.805040D+00           0.500000D+00
            S   1   1.00
                  0.324626D+00           1.0000000
            S   1   1.00
                  0.128132D+00           1.0000000
            P   4   1.00
                  0.482704D+02           0.829547D-02
                  0.110815D+02           0.596223D-01
                  0.326643D+01           0.227889D+00
                  0.111680D+01           0.500000D+00
            P   1   1.00
                  0.382049D+00           1.0000000
            P   1   1.00
                  0.121222D+00           1.0000000
            D   1   1.00
                  0.180000D+01           1.0000000
            D   1   1.00
                  0.550000D+00           1.0000000
            F   1   1.00
                  0.102000D+01           1.0000000
            ****
            -F     0
            S   7   1.00
                  0.174507D+05           0.655972D-03
                  0.261768D+04           0.506944D-02
                  0.595857D+03           0.259899D-01
                  0.168651D+03           0.100353D+00
                  0.546654D+02           0.284095D+00
                  0.193717D+02           0.500000D+00
                  0.706202D+01           0.370721D+00
            S   2   1.00
                  0.131197D+02          -0.101997D+00
                  0.145046D+01           0.500000D+00
            S   1   1.00
                  0.588255D+00           1.0000000
            S   1   1.00
                  0.227960D+00           1.0000000
            P   4   1.00
                  0.779407D+02           0.931135D-02
                  0.180425D+02           0.663964D-01
                  0.542342D+01           0.246386D+00
                  0.184876D+01           0.500000D+00
            P   1   1.00
                  0.617455D+00           1.0000000
            P   1   1.00
                  0.185496D+00           1.0000000
            D   1   1.00
                  0.280000D+01           1.0000000
            D   1   1.00
                  0.800000D+00           1.0000000
            F   1   1.00
                  0.120000D+01           1.0000000
            ****
            -Cl     0
            S   8   1.00
                  0.154272D+06           0.222473D-03
                  0.231232D+05           0.172590D-02
                  0.526257D+04           0.899286D-02
                  0.148995D+04           0.367724D-01
                  0.485417D+03           0.121446D+00
                  0.174634D+03           0.304148D+00
                  0.672393D+02           0.500000D+00
                  0.265780D+02           0.360252D+00
            S   3   1.00
                  0.131826D+03          -0.531330D-01
                  0.400703D+02          -0.233346D+00
                  0.789448D+01           0.500000D+00
            S   2   1.00
                  0.427711D+01           0.500000D+00
                  0.196233D+01           0.370517D+00
            S   1   1.00
                  0.520793D+00           1.0000000
            S   1   1.00
                  0.181633D+00           1.0000000
            P   7   1.00
                  0.124440D+04           0.988206D-03
                  0.295109D+03           0.829674D-02
                  0.947224D+02           0.430906D-01
                  0.352588D+02           0.148443D+00
                  0.144211D+02           0.344744D+00
                  0.610371D+01           0.500000D+00
                  0.258886D+01           0.348278D+00
            P   2   1.00
                  0.109447D+02          -0.196768D-01
                  0.104413D+01           0.500000D+00
            P   1   1.00
                  0.376184D+00           1.0000000
            P   1   1.00
                  0.120613D+00           1.0000000
            D   1   1.00
                  0.231000D+01           1.0000000
            D   1   1.00
                  0.520000D+00           1.0000000
            F   1   1.00
                  0.720000D+00           1.0000000
            ****
            -S     0
            S   8   1.00
                  0.134700D+06           0.226231D-03
                  0.201904D+05           0.175488D-02
                  0.459528D+04           0.914190D-02
                  0.130109D+04           0.373551D-01
                  0.423902D+03           0.123121D+00
                  0.152485D+03           0.306801D+00
                  0.586925D+02           0.500000D+00
                  0.231461D+02           0.354358D+00
            S   3   1.00
                  0.116327D+03          -0.491772D-01
                  0.352841D+02          -0.215962D+00
                  0.677831D+01           0.500000D+00
            S   2   1.00
                  0.360404D+01           0.500000D+00
                  0.164871D+01           0.366278D+00
            S   1   1.00
                  0.421821D+00           1.0000000
            S   1   1.00
                  0.147554D+00           1.0000000
            P   7   1.00
                  0.104863D+04           0.105273D-02
                  0.248717D+03           0.879338D-02
                  0.797887D+02           0.453358D-01
                  0.296023D+02           0.154476D+00
                  0.120627D+02           0.352366D+00
                  0.507628D+01           0.500000D+00
                  0.213375D+01           0.346429D+00
            P   2   1.00
                  0.928958D+01          -0.185932D-01
                  0.837819D+00           0.500000D+00
            P   1   1.00
                  0.301495D+00           1.0000000
            P   1   1.00
                  0.974740D-01           1.0000000
            D   1   1.00
                  0.210000D+01           1.0000000
            D   1   1.00
                  0.480000D+00           1.0000000
            F   1   1.00
                  0.660000D+00           1.0000000
            ****
            
 Initial command:
 /usr/local/apps/g16_b01_avx/g16/l1.exe "/wrk/irikura/Gau-10577.inp" -scrdir="/wrk/irikura/"
 Entering Link 1 = /usr/local/apps/g16_b01_avx/g16/l1.exe PID=     10579.
  
 Copyright (c) 1988-2017, Gaussian, Inc.  All Rights Reserved.
  
 This is part of the Gaussian(R) 16 program.  It is based on
 the Gaussian(R) 09 system (copyright 2009, Gaussian, Inc.),
 the Gaussian(R) 03 system (copyright 2003, Gaussian, Inc.),
 the Gaussian(R) 98 system (copyright 1998, Gaussian, Inc.),
 the Gaussian(R) 94 system (copyright 1995, Gaussian, Inc.),
 the Gaussian 92(TM) system (copyright 1992, Gaussian, Inc.),
 the Gaussian 90(TM) system (copyright 1990, Gaussian, Inc.),
 the Gaussian 88(TM) system (copyright 1988, Gaussian, Inc.),
 the Gaussian 86(TM) system (copyright 1986, Carnegie Mellon
 University), and the Gaussian 82(TM) system (copyright 1983,
 Carnegie Mellon University). Gaussian is a federally registered
 trademark of Gaussian, Inc.
  
 This software contains proprietary and confidential information,
 including trade secrets, belonging to Gaussian, Inc.
  
 This software is provided under written license and may be
 used, copied, transmitted, or stored only in accord with that
 written license.
  
 The following legend is applicable only to US Government
 contracts under FAR:
  
                    RESTRICTED RIGHTS LEGEND
  
 Use, reproduction and disclosure by the US Government is
 subject to restrictions as set forth in subparagraphs (a)
 and (c) of the Commercial Computer Software - Restricted
 Rights clause in FAR 52.227-19.
  
 Gaussian, Inc.
 340 Quinnipiac St., Bldg. 40, Wallingford CT 06492
  
  
 ---------------------------------------------------------------
 Warning -- This program may not be used in any manner that
 competes with the business of Gaussian, Inc. or will provide
 assistance to any competitor of Gaussian, Inc.  The licensee
 of this program is prohibited from giving any competitor of
 Gaussian, Inc. access to this program.  By using this program,
 the user acknowledges that Gaussian, Inc. is engaged in the
 business of creating and licensing software in the field of
 computational chemistry and represents and warrants to the
 licensee that it is not a competitor of Gaussian, Inc. and that
 it will not use this program in any manner prohibited above.
 ---------------------------------------------------------------
  

 Cite this work as:
 Gaussian 16, Revision B.01,
 M. J. Frisch, G. W. Trucks, H. B. Schlegel, G. E. Scuseria, 
 M. A. Robb, J. R. Cheeseman, G. Scalmani, V. Barone, 
 G. A. Petersson, H. Nakatsuji, X. Li, M. Caricato, A. V. Marenich, 
 J. Bloino, B. G. Janesko, R. Gomperts, B. Mennucci, H. P. Hratchian, 
 J. V. Ortiz, A. F. Izmaylov, J. L. Sonnenberg, D. Williams-Young, 
 F. Ding, F. Lipparini, F. Egidi, J. Goings, B. Peng, A. Petrone, 
 T. Henderson, D. Ranasinghe, V. G. Zakrzewski, J. Gao, N. Rega, 
 G. Zheng, W. Liang, M. Hada, M. Ehara, K. Toyota, R. Fukuda, 
 J. Hasegawa, M. Ishida, T. Nakajima, Y. Honda, O. Kitao, H. Nakai, 
 T. Vreven, K. Throssell, J. A. Montgomery, Jr., J. E. Peralta, 
 F. Ogliaro, M. J. Bearpark, J. J. Heyd, E. N. Brothers, K. N. Kudin, 
 V. N. Staroverov, T. A. Keith, R. Kobayashi, J. Normand, 
 K. Raghavachari, A. P. Rendell, J. C. Burant, S. S. Iyengar, 
 J. Tomasi, M. Cossi, J. M. Millam, M. Klene, C. Adamo, R. Cammi, 
 J. W. Ochterski, R. L. Martin, K. Morokuma, O. Farkas, 
 J. B. Foresman, and D. J. Fox, Gaussian, Inc., Wallingford CT, 2016.
 
 ******************************************
 Gaussian 16:  ES64L-G16RevB.01 20-Dec-2017
                14-Jun-2022 
 ******************************************
 %mem=500mw
 %nprocs=4
 Will use up to    4 processors via shared memory.
 --------------------
 # b3lyp/gen opt freq
 --------------------
 1/18=20,19=15,26=3,38=1/1,3;
 2/9=110,12=2,17=6,18=5,40=1/2;
 3/5=7,11=2,25=1,30=1,71=1,74=-5/1,2,3;
 4//1;
 5/5=2,38=5/2;
 6/7=2,8=2,9=2,10=2,28=1/1;
 7//1,2,3,16;
 1/18=20,19=15,26=3/3(2);
 2/9=110/2;
 99//99;
 2/9=110/2;
 3/5=7,6=1,11=2,25=1,30=1,71=1,74=-5,82=7/1,2,3;
 4/5=5,16=3,69=1/1;
 5/5=2,38=5/2;
 7//1,2,3,16;
 1/18=20,19=15,26=3/3(-5);
 2/9=110/2;
 6/7=2,8=2,9=2,10=2,19=2,28=1/1;
 99/9=1/99;
 --------------------
 vinyl, B3LYP/pcseg-2
 --------------------
 Symbolic Z-matrix:
 Charge =  0 Multiplicity = 2
 C                     0.04804   0.71703   0. 
 C                     0.04804  -0.58415   0. 
 H                    -0.66156   1.52831   0. 
 H                    -0.87945  -1.15957   0. 
 H                     0.96458  -1.16603   0. 
 

 GradGradGradGradGradGradGradGradGradGradGradGradGradGradGradGradGradGrad
 Berny optimization.
 Initialization pass.
                           ----------------------------
                           !    Initial Parameters    !
                           ! (Angstroms and Degrees)  !
 --------------------------                            --------------------------
 ! Name  Definition              Value          Derivative Info.                !
 --------------------------------------------------------------------------------
 ! R1    R(1,2)                  1.3012         estimate D2E/DX2                !
 ! R2    R(1,3)                  1.0778         estimate D2E/DX2                !
 ! R3    R(2,4)                  1.0915         estimate D2E/DX2                !
 ! R4    R(2,5)                  1.0857         estimate D2E/DX2                !
 ! A1    A(2,1,3)              138.8248         estimate D2E/DX2                !
 ! A2    A(1,2,4)              121.8156         estimate D2E/DX2                !
 ! A3    A(1,2,5)              122.41           estimate D2E/DX2                !
 ! A4    A(4,2,5)              115.7744         estimate D2E/DX2                !
 ! D1    D(3,1,2,4)              0.0            estimate D2E/DX2                !
 ! D2    D(3,1,2,5)            180.0            estimate D2E/DX2                !
 ! D3    D(1,2,4,5)            180.0            estimate D2E/DX2                !
 --------------------------------------------------------------------------------
 Trust Radius=3.00D-01 FncErr=1.00D-07 GrdErr=1.00D-06 EigMax=2.50D+02 EigMin=1.00D-04
 Number of steps in this run=     21 maximum allowed number of steps=    100.
 GradGradGradGradGradGradGradGradGradGradGradGradGradGradGradGradGradGrad

                          Input orientation:                          
 ---------------------------------------------------------------------
 Center     Atomic      Atomic             Coordinates (Angstroms)
 Number     Number       Type             X           Y           Z
 ---------------------------------------------------------------------
      1          6           0        0.048036    0.717034    0.000000
      2          6           0        0.048036   -0.584152    0.000000
      3          1           0       -0.661561    1.528307    0.000000
      4          1           0       -0.879450   -1.159568    0.000000
      5          1           0        0.964580   -1.166033    0.000000
 ---------------------------------------------------------------------
                    Distance matrix (angstroms):
                    1          2          3          4          5
     1  C    0.000000
     2  C    1.301186   0.000000
     3  H    1.077818   2.228455   0.000000
     4  H    2.093291   1.091482   2.696692   0.000000
     5  H    2.094277   1.085651   3.147031   1.844041   0.000000
 Stoichiometry    C2H3(2)
 Framework group  CS[SG(C2H3)]
 Deg. of freedom     7
 Full point group                 CS      NOp   2
 Largest Abelian subgroup         CS      NOp   2
 Largest concise Abelian subgroup C1      NOp   1
                         Standard orientation:                         
 ---------------------------------------------------------------------
 Center     Atomic      Atomic             Coordinates (Angstroms)
 Number     Number       Type             X           Y           Z
 ---------------------------------------------------------------------
      1          6           0        0.048036    0.717034    0.000000
      2          6           0        0.048036   -0.584152    0.000000
      3          1           0       -0.661561    1.528307    0.000000
      4          1           0       -0.879450   -1.159568    0.000000
      5          1           0        0.964580   -1.166033    0.000000
 ---------------------------------------------------------------------
 Rotational constants (GHZ):         238.8747221          32.8028304          28.8421584
 General basis read from cards:  (5D, 7F)
 There are    81 symmetry adapted cartesian basis functions of A'  symmetry.
 There are    34 symmetry adapted cartesian basis functions of A"  symmetry.
 There are    70 symmetry adapted basis functions of A'  symmetry.
 There are    32 symmetry adapted basis functions of A"  symmetry.
   102 basis functions,   156 primitive gaussians,   115 cartesian basis functions
     8 alpha electrons        7 beta electrons
       nuclear repulsion energy        28.5291019923 Hartrees.
 NAtoms=    5 NActive=    5 NUniq=    5 SFac= 1.00D+00 NAtFMM=   60 NAOKFM=F Big=F
 Integral buffers will be    131072 words long.
 Raffenetti 2 integral format.
 Two-electron integral symmetry is turned on.
 One-electron integrals computed using PRISM.
 NBasis=   102 RedAO= T EigKep=  5.23D-04  NBF=    70    32
 NBsUse=   102 1.00D-06 EigRej= -1.00D+00 NBFU=    70    32
 ExpMin= 7.42D-02 ExpMax= 7.32D+03 ExpMxC= 2.50D+02 IAcc=3 IRadAn=         5 AccDes= 0.00D+00
 Harris functional with IExCor=  402 and IRadAn=       5 diagonalized for initial guess.
 HarFok:  IExCor=  402 AccDes= 0.00D+00 IRadAn=         5 IDoV= 1 UseB2=F ITyADJ=14
 ICtDFT=  3500011 ScaDFX=  1.000000  1.000000  1.000000  1.000000
 FoFCou: FMM=F IPFlag=           0 FMFlag=      100000 FMFlg1=           0
         NFxFlg=           0 DoJE=T BraDBF=F KetDBF=T FulRan=T
         wScrn=  0.000000 ICntrl=       500 IOpCl=  0 I1Cent=   200000004 NGrid=           0
         NMat0=    1 NMatS0=      1 NMatT0=    0 NMatD0=    1 NMtDS0=    0 NMtDT0=    0
 Petite list used in FoFCou.
 Initial guess orbital symmetries:
 Alpha Orbitals:
       Occupied  (A') (A') (A') (A') (A') (A') (A") (A')
       Virtual   (A") (A') (A') (A') (A') (A") (A') (A') (A') (A")
                 (A') (A') (A') (A') (A') (A') (A") (A") (A') (A")
                 (A') (A') (A') (A') (A') (A") (A') (A') (A") (A")
                 (A') (A") (A') (A') (A") (A') (A") (A') (A') (A')
                 (A') (A') (A') (A') (A') (A") (A') (A") (A') (A")
                 (A') (A") (A') (A") (A') (A') (A') (A") (A') (A')
                 (A") (A") (A") (A') (A') (A') (A") (A') (A") (A')
                 (A") (A') (A") (A') (A') (A") (A') (A") (A') (A")
                 (A') (A') (A") (A') (A") (A') (A') (A') (A") (A')
                 (A') (A') (A') (A')
 Beta  Orbitals:
       Occupied  (A') (A') (A') (A') (A') (A') (A")
       Virtual   (A') (A") (A') (A') (A') (A') (A") (A') (A') (A')
                 (A") (A') (A') (A') (A') (A') (A') (A") (A") (A')
                 (A") (A') (A') (A') (A') (A') (A") (A') (A') (A")
                 (A") (A') (A") (A') (A') (A") (A') (A") (A') (A')
                 (A') (A') (A') (A') (A') (A') (A") (A') (A") (A')
                 (A") (A') (A") (A') (A") (A') (A') (A') (A") (A')
                 (A') (A") (A") (A") (A') (A') (A') (A") (A') (A")
                 (A') (A") (A') (A") (A') (A') (A") (A') (A") (A')
                 (A") (A') (A') (A") (A') (A") (A') (A') (A') (A")
                 (A') (A') (A') (A') (A')
 The electronic state of the initial guess is 2-A'.
 Initial guess <Sx>= 0.0000 <Sy>= 0.0000 <Sz>= 0.5000 <S**2>= 0.7500 S= 0.5000
 Keep R1 and R2 ints in memory in symmetry-blocked form, NReq=21164326.
 Requested convergence on RMS density matrix=1.00D-08 within 128 cycles.
 Requested convergence on MAX density matrix=1.00D-06.
 Requested convergence on             energy=1.00D-06.
 No special actions if energy rises.
 Integral accuracy reduced to 1.0D-05 until final iterations.
 Initial convergence to 1.0D-05 achieved.  Increase integral accuracy.
 SCF Done:  E(UB3LYP) =  -77.9387377164     A.U. after   16 cycles
            NFock= 16  Conv=0.23D-08     -V/T= 2.0041
 <Sx>= 0.0000 <Sy>= 0.0000 <Sz>= 0.5000 <S**2>= 0.7592 S= 0.5046
 <L.S>=  0.00000000000    
 Annihilation of the first spin contaminant:
 S**2 before annihilation     0.7592,   after     0.7500

 **********************************************************************

            Population analysis using the SCF Density.

 **********************************************************************

 Orbital symmetries:
 Alpha Orbitals:
       Occupied  (A') (A') (A') (A') (A') (A') (A") (A')
       Virtual   (A") (A') (A') (A') (A') (A") (A') (A') (A') (A")
                 (A') (A') (A') (A') (A') (A') (A") (A") (A') (A")
                 (A') (A') (A') (A') (A') (A") (A') (A') (A") (A')
                 (A") (A') (A") (A') (A") (A') (A") (A') (A') (A')
                 (A') (A') (A') (A') (A') (A') (A") (A") (A') (A")
                 (A') (A") (A') (A") (A') (A') (A') (A") (A') (A")
                 (A') (A") (A') (A") (A') (A') (A') (A") (A') (A")
                 (A") (A') (A") (A') (A') (A") (A") (A') (A') (A")
                 (A') (A') (A") (A') (A") (A') (A') (A') (A") (A')
                 (A') (A') (A') (A')
 Beta  Orbitals:
       Occupied  (A') (A') (A') (A') (A') (A') (A")
       Virtual   (A') (A") (A') (A') (A') (A') (A") (A') (A') (A")
                 (A') (A') (A') (A') (A') (A') (A') (A") (A") (A')
                 (A") (A') (A') (A') (A') (A') (A") (A') (A') (A")
                 (A") (A') (A') (A") (A') (A") (A') (A") (A') (A')
                 (A') (A') (A') (A') (A') (A') (A') (A") (A") (A')
                 (A") (A') (A") (A') (A") (A') (A') (A') (A") (A')
                 (A") (A') (A") (A") (A') (A') (A') (A') (A") (A")
                 (A') (A") (A') (A") (A') (A') (A") (A") (A') (A')
                 (A") (A') (A') (A") (A') (A") (A') (A') (A') (A")
                 (A') (A') (A') (A') (A')
 The electronic state is 2-A'.
 Alpha  occ. eigenvalues --  -10.20224 -10.18166  -0.77560  -0.58348  -0.47171
 Alpha  occ. eigenvalues --   -0.44065  -0.29521  -0.24287
 Alpha virt. eigenvalues --   -0.00941   0.03012   0.04549   0.07145   0.14854
 Alpha virt. eigenvalues --    0.16917   0.17649   0.21046   0.25142   0.25688
 Alpha virt. eigenvalues --    0.28512   0.33440   0.34339   0.37565   0.42967
 Alpha virt. eigenvalues --    0.53785   0.64933   0.73982   0.80899   0.87784
 Alpha virt. eigenvalues --    0.91313   0.98044   0.98309   1.00313   1.03234
 Alpha virt. eigenvalues --    1.07104   1.10088   1.16748   1.23532   1.25691
 Alpha virt. eigenvalues --    1.25992   1.33456   1.37138   1.50298   1.52181
 Alpha virt. eigenvalues --    1.53780   1.67914   1.71000   1.71946   1.80571
 Alpha virt. eigenvalues --    1.92005   2.20034   2.25898   2.32810   2.62142
 Alpha virt. eigenvalues --    2.95948   3.00572   3.09203   3.17513   3.28750
 Alpha virt. eigenvalues --    3.30110   3.38356   3.49674   3.54414   3.58111
 Alpha virt. eigenvalues --    3.67976   3.76736   3.87691   3.92802   3.94417
 Alpha virt. eigenvalues --    3.95163   4.05961   4.07539   4.08936   4.13181
 Alpha virt. eigenvalues --    4.17264   4.23606   4.25426   4.29003   4.30317
 Alpha virt. eigenvalues --    4.33745   4.37281   4.43980   4.49246   4.50304
 Alpha virt. eigenvalues --    4.53354   4.56434   4.56684   4.90846   4.97685
 Alpha virt. eigenvalues --    5.12821   5.18649   5.34163   5.35290   5.40363
 Alpha virt. eigenvalues --    5.42553   5.55225   5.72001   5.74742   5.76769
 Alpha virt. eigenvalues --    5.98155   6.05648   6.20985   6.63886
  Beta  occ. eigenvalues --  -10.18644 -10.18315  -0.75839  -0.56219  -0.45737
  Beta  occ. eigenvalues --   -0.42518  -0.28747
  Beta virt. eigenvalues --   -0.08579   0.00060   0.03199   0.04873   0.07419
  Beta virt. eigenvalues --    0.15094   0.17025   0.19440   0.21928   0.26133
  Beta virt. eigenvalues --    0.26549   0.29529   0.34149   0.34546   0.38286
  Beta virt. eigenvalues --    0.44285   0.55462   0.65540   0.74450   0.82938
  Beta virt. eigenvalues --    0.90501   0.92200   0.98869   0.99848   1.01834
  Beta virt. eigenvalues --    1.04375   1.08541   1.11328   1.18625   1.24179
  Beta virt. eigenvalues --    1.26586   1.30317   1.35560   1.37546   1.51441
  Beta virt. eigenvalues --    1.53056   1.55349   1.68912   1.71354   1.72973
  Beta virt. eigenvalues --    1.82309   1.93015   2.21222   2.27417   2.34302
  Beta virt. eigenvalues --    2.63532   2.98006   3.01757   3.11197   3.20431
  Beta virt. eigenvalues --    3.31553   3.34336   3.38929   3.50557   3.56253
  Beta virt. eigenvalues --    3.59147   3.69201   3.77897   3.89821   3.95367
  Beta virt. eigenvalues --    3.96056   3.97224   4.08375   4.10440   4.11419
  Beta virt. eigenvalues --    4.14262   4.18191   4.26232   4.27284   4.30322
  Beta virt. eigenvalues --    4.30781   4.34910   4.38401   4.45405   4.50745
  Beta virt. eigenvalues --    4.51867   4.54572   4.57858   4.57982   4.92291
  Beta virt. eigenvalues --    4.98172   5.14370   5.20299   5.35264   5.37484
  Beta virt. eigenvalues --    5.40920   5.43742   5.56649   5.72722   5.75572
  Beta virt. eigenvalues --    5.77685   5.99127   6.07302   6.22868   6.65397
          Condensed to atoms (all electrons):
               1          2          3          4          5
     1  C    5.127257   0.646130   0.401501  -0.047746  -0.050625
     2  C    0.646130   4.688006  -0.046524   0.413749   0.418858
     3  H    0.401501  -0.046524   0.580865  -0.008732   0.006613
     4  H   -0.047746   0.413749  -0.008732   0.623049  -0.041102
     5  H   -0.050625   0.418858   0.006613  -0.041102   0.596583
          Atomic-Atomic Spin Densities.
               1          2          3          4          5
     1  C    1.117196  -0.043288  -0.018930  -0.032904  -0.021776
     2  C   -0.043288  -0.139980   0.000943   0.018221   0.010882
     3  H   -0.018930   0.000943   0.045767  -0.010317   0.003914
     4  H   -0.032904   0.018221  -0.010317   0.140725  -0.029853
     5  H   -0.021776   0.010882   0.003914  -0.029853   0.082509
 Mulliken charges and spin densities:
               1          2
     1  C   -0.076516   1.000297
     2  C   -0.120219  -0.153222
     3  H    0.066278   0.021377
     4  H    0.060783   0.085872
     5  H    0.069674   0.045676
 Sum of Mulliken charges =  -0.00000   1.00000
 Mulliken charges and spin densities with hydrogens summed into heavy atoms:
               1          2
     1  C   -0.010238   1.021674
     2  C    0.010238  -0.021674
 Electronic spatial extent (au):  <R**2>=             73.0522
 Charge=             -0.0000 electrons
 Dipole moment (field-independent basis, Debye):
    X=             -0.6407    Y=             -0.3255    Z=              0.0000  Tot=              0.7187
 Quadrupole moment (field-independent basis, Debye-Ang):
   XX=            -12.5349   YY=            -11.4908   ZZ=            -14.9538
   XY=             -1.2244   XZ=              0.0000   YZ=              0.0000
 Traceless Quadrupole moment (field-independent basis, Debye-Ang):
   XX=              0.4583   YY=              1.5024   ZZ=             -1.9606
   XY=             -1.2244   XZ=              0.0000   YZ=              0.0000
 Octapole moment (field-independent basis, Debye-Ang**2):
  XXX=             -0.9901  YYY=             -0.0861  ZZZ=              0.0000  XYY=             -1.9645
  XXY=             -1.4677  XXZ=              0.0000  XZZ=             -0.3298  YZZ=             -0.2507
  YYZ=              0.0000  XYZ=              0.0000
 Hexadecapole moment (field-independent basis, Debye-Ang**3):
 XXXX=            -24.0370 YYYY=            -61.7412 ZZZZ=            -19.3359 XXXY=              0.6355
 XXXZ=              0.0000 YYYX=             -1.7015 YYYZ=              0.0000 ZZZX=              0.0000
 ZZZY=              0.0000 XXYY=            -13.1061 XXZZ=             -7.6606 YYZZ=            -14.7799
 XXYZ=              0.0000 YYXZ=              0.0000 ZZXY=              0.5186
 N-N= 2.852910199228D+01 E-N=-2.375752207472D+02  KE= 7.762263124436D+01
 Symmetry A'   KE= 7.548733317205D+01
 Symmetry A"   KE= 2.135298072316D+00
 Symmetry A'   SP= 1.000000000000D+00
 Symmetry A"   SP= 7.575520478932D-15
                          Isotropic Fermi Contact Couplings
        Atom                 a.u.       MegaHertz       Gauss      10(-4) cm-1
     1  C(13)              0.33129     372.43342     132.89350     124.23042
     2  C(13)             -0.02184     -24.55260      -8.76098      -8.18986
     3  H(1)               0.01015      45.37818      16.19206      15.13653
     4  H(1)               0.03967     177.30910      63.26830      59.14395
     5  H(1)               0.02538     113.43062      40.47487      37.83638
 --------------------------------------------------------
       Center         ----  Spin Dipole Couplings  ----
                      3XX-RR        3YY-RR        3ZZ-RR
 --------------------------------------------------------
     1   Atom        0.815613     -0.372798     -0.442815
     2   Atom        0.022735      0.119631     -0.142366
     3   Atom        0.017732      0.044566     -0.062298
     4   Atom       -0.001238      0.011001     -0.009764
     5   Atom       -0.009468      0.021406     -0.011937
 --------------------------------------------------------
                        XY            XZ            YZ
 --------------------------------------------------------
     1   Atom        0.567911      0.000000      0.000000
     2   Atom        0.015821      0.000000      0.000000
     3   Atom       -0.041068      0.000000      0.000000
     4   Atom        0.004958      0.000000      0.000000
     5   Atom       -0.007649      0.000000      0.000000
 --------------------------------------------------------


 ---------------------------------------------------------------------------------
              Anisotropic Spin Dipole Couplings in Principal Axis System
 ---------------------------------------------------------------------------------

       Atom             a.u.   MegaHertz   Gauss  10(-4) cm-1        Axes

              Baa    -0.6005   -80.587   -28.755   -26.881 -0.3722  0.9281 -0.0000
     1 C(13)  Bbb    -0.4428   -59.422   -21.203   -19.821  0.0000  0.0000  1.0000
              Bcc     1.0434   140.009    49.959    46.702  0.9281  0.3722  0.0000
 
              Baa    -0.1424   -19.104    -6.817    -6.372  0.0000  0.0000  1.0000
     2 C(13)  Bbb     0.0202     2.713     0.968     0.905  0.9876 -0.1572 -0.0000
              Bcc     0.1221    16.391     5.849     5.468  0.1572  0.9876  0.0000
 
              Baa    -0.0623   -33.239   -11.861   -11.087  0.0000  0.0000  1.0000
     3 H(1)   Bbb    -0.0121    -6.432    -2.295    -2.146  0.8095  0.5871  0.0000
              Bcc     0.0744    39.671    14.156    13.233 -0.5871  0.8095  0.0000
 
              Baa    -0.0098    -5.209    -1.859    -1.738  0.0000  0.0000  1.0000
     4 H(1)   Bbb    -0.0030    -1.597    -0.570    -0.533  0.9426 -0.3339 -0.0000
              Bcc     0.0128     6.807     2.429     2.271  0.3339  0.9426  0.0000
 
              Baa    -0.0119    -6.369    -2.273    -2.125  0.0000  0.0000  1.0000
     5 H(1)   Bbb    -0.0113    -6.008    -2.144    -2.004  0.9737  0.2280  0.0000
              Bcc     0.0232    12.377     4.416     4.128 -0.2280  0.9737  0.0000
 

 ---------------------------------------------------------------------------------

 Calling FoFJK, ICntrl=      2127 FMM=F ISym2X=1 I1Cent= 0 IOpClX= 1 NMat=1 NMatS=1 NMatT=0.
 ***** Axes restored to original set *****
 -------------------------------------------------------------------
 Center     Atomic                   Forces (Hartrees/Bohr)
 Number     Number              X              Y              Z
 -------------------------------------------------------------------
      1        6           0.000004203   -0.000052310   -0.000000000
      2        6          -0.000250618    0.000019856   -0.000000000
      3        1           0.000124202   -0.000129096   -0.000000000
      4        1           0.000096186    0.000022548   -0.000000000
      5        1           0.000026027    0.000139001   -0.000000000
 -------------------------------------------------------------------
 Cartesian Forces:  Max     0.000250618 RMS     0.000092307

 GradGradGradGradGradGradGradGradGradGradGradGradGradGradGradGradGradGrad
 Berny optimization.
 FormGI is forming the generalized inverse of G from B-inverse, IUseBI=4.
 Internal  Forces:  Max     0.000201007 RMS     0.000112602
 Search for a local minimum.
 Step number   1 out of a maximum of   21
 All quantities printed in internal units (Hartrees-Bohrs-Radians)
 Mixed Optimization -- En-DIIS/RFO-DIIS
 Second derivative matrix not updated -- first step.
 The second derivative matrix:
                          R1        R2        R3        R4        A1
           R1           0.66865
           R2           0.00000   0.36259
           R3           0.00000   0.00000   0.34642
           R4           0.00000   0.00000   0.00000   0.35320
           A1           0.00000   0.00000   0.00000   0.00000   0.16000
           A2           0.00000   0.00000   0.00000   0.00000   0.00000
           A3           0.00000   0.00000   0.00000   0.00000   0.00000
           A4           0.00000   0.00000   0.00000   0.00000   0.00000
           D1           0.00000   0.00000   0.00000   0.00000   0.00000
           D2           0.00000   0.00000   0.00000   0.00000   0.00000
           D3           0.00000   0.00000   0.00000   0.00000   0.00000
                          A2        A3        A4        D1        D2
           A2           0.16000
           A3           0.00000   0.16000
           A4           0.00000   0.00000   0.16000
           D1           0.00000   0.00000   0.00000   0.03396
           D2           0.00000   0.00000   0.00000   0.00000   0.03396
           D3           0.00000   0.00000   0.00000   0.00000   0.00000
                          D3
           D3           0.00230
 ITU=  0
     Eigenvalues ---    0.01378   0.03396   0.16000   0.16000   0.16000
     Eigenvalues ---    0.34642   0.35320   0.36259   0.66865
 RFO step:  Lambda=-5.64521695D-07 EMin= 1.37796092D-02
 Linear search not attempted -- first point.
 Iteration  1 RMS(Cart)=  0.00067505 RMS(Int)=  0.00000028
 Iteration  2 RMS(Cart)=  0.00000029 RMS(Int)=  0.00000000
 ClnCor:  largest displacement from symmetrization is 3.75D-13 for atom     2.
 Variable       Old X    -DE/DX   Delta X   Delta X   Delta X     New X
                                 (Linear)    (Quad)   (Total)
    R1        2.45889  -0.00018   0.00000  -0.00027  -0.00027   2.45861
    R2        2.03678  -0.00018   0.00000  -0.00049  -0.00049   2.03629
    R3        2.06260  -0.00009   0.00000  -0.00027  -0.00027   2.06233
    R4        2.05158  -0.00005   0.00000  -0.00015  -0.00015   2.05143
    A1        2.42295   0.00002   0.00000   0.00011   0.00011   2.42306
    A2        2.12608   0.00013   0.00000   0.00083   0.00083   2.12691
    A3        2.13646  -0.00020   0.00000  -0.00126  -0.00126   2.13520
    A4        2.02064   0.00007   0.00000   0.00043   0.00043   2.02107
    D1        0.00000  -0.00000   0.00000   0.00000   0.00000   0.00000
    D2        3.14159  -0.00000   0.00000  -0.00000   0.00000   3.14159
    D3        3.14159   0.00000   0.00000  -0.00000   0.00000   3.14159
         Item               Value     Threshold  Converged?
 Maximum Force            0.000201     0.000450     YES
 RMS     Force            0.000113     0.000300     YES
 Maximum Displacement     0.001510     0.001800     YES
 RMS     Displacement     0.000675     0.001200     YES
 Predicted change in Energy=-2.822608D-07
 Optimization completed.
    -- Stationary point found.
                           ----------------------------
                           !   Optimized Parameters   !
                           ! (Angstroms and Degrees)  !
 --------------------------                            --------------------------
 ! Name  Definition              Value          Derivative Info.                !
 --------------------------------------------------------------------------------
 ! R1    R(1,2)                  1.3012         -DE/DX =   -0.0002              !
 ! R2    R(1,3)                  1.0778         -DE/DX =   -0.0002              !
 ! R3    R(2,4)                  1.0915         -DE/DX =   -0.0001              !
 ! R4    R(2,5)                  1.0857         -DE/DX =   -0.0001              !
 ! A1    A(2,1,3)              138.8248         -DE/DX =    0.0                 !
 ! A2    A(1,2,4)              121.8156         -DE/DX =    0.0001              !
 ! A3    A(1,2,5)              122.41           -DE/DX =   -0.0002              !
 ! A4    A(4,2,5)              115.7744         -DE/DX =    0.0001              !
 ! D1    D(3,1,2,4)              0.0            -DE/DX =    0.0                 !
 ! D2    D(3,1,2,5)            180.0            -DE/DX =    0.0                 !
 ! D3    D(1,2,4,5)            180.0            -DE/DX =    0.0                 !
 --------------------------------------------------------------------------------
 GradGradGradGradGradGradGradGradGradGradGradGradGradGradGradGradGradGrad

                          Input orientation:                          
 ---------------------------------------------------------------------
 Center     Atomic      Atomic             Coordinates (Angstroms)
 Number     Number       Type             X           Y           Z
 ---------------------------------------------------------------------
      1          6           0        0.048036    0.717034    0.000000
      2          6           0        0.048036   -0.584152    0.000000
      3          1           0       -0.661561    1.528307    0.000000
      4          1           0       -0.879450   -1.159568    0.000000
      5          1           0        0.964580   -1.166033    0.000000
 ---------------------------------------------------------------------
                    Distance matrix (angstroms):
                    1          2          3          4          5
     1  C    0.000000
     2  C    1.301186   0.000000
     3  H    1.077818   2.228455   0.000000
     4  H    2.093291   1.091482   2.696692   0.000000
     5  H    2.094277   1.085651   3.147031   1.844041   0.000000
 Stoichiometry    C2H3(2)
 Framework group  CS[SG(C2H3)]
 Deg. of freedom     7
 Full point group                 CS      NOp   2
 Largest Abelian subgroup         CS      NOp   2
 Largest concise Abelian subgroup C1      NOp   1
                         Standard orientation:                         
 ---------------------------------------------------------------------
 Center     Atomic      Atomic             Coordinates (Angstroms)
 Number     Number       Type             X           Y           Z
 ---------------------------------------------------------------------
      1          6           0        0.048036    0.717034    0.000000
      2          6           0        0.048036   -0.584152    0.000000
      3          1           0       -0.661561    1.528307    0.000000
      4          1           0       -0.879450   -1.159568    0.000000
      5          1           0        0.964580   -1.166033    0.000000
 ---------------------------------------------------------------------
 Rotational constants (GHZ):         238.8747221          32.8028304          28.8421584
 1\1\GINC-GAMBA\FOpt\UB3LYP\Gen\C2H3(2)\IRIKURA\14-Jun-2022\0\\# b3lyp/
 gen opt freq\\vinyl, B3LYP/pcseg-2\\0,2\C,0.048036,0.717034,0.\C,0.048
 036,-0.584152,0.\H,-0.661561,1.528307,0.\H,-0.87945,-1.159568,0.\H,0.9
 6458,-1.166033,0.\\Version=ES64L-G16RevB.01\State=2-A'\HF=-77.9387377\
 S2=0.75917\S2-1=0.\S2A=0.750041\RMSD=2.270e-09\RMSF=9.231e-05\Dipole=-
 0.2520791,-0.1280666,0.\Quadrupole=0.3407197,1.1169676,-1.4576873,-0.9
 103452,0.,0.\PG=CS [SG(C2H3)]\\@


 THE RED LIGHT IS ALWAYS LONGER THAN THE GREEN LIGHT.

                     -- PETER'S THEORY OF RELATIVITY
 Job cpu time:       0 days  0 hours  0 minutes 27.8 seconds.
 Elapsed time:       0 days  0 hours  0 minutes  7.1 seconds.
 File lengths (MBytes):  RWF=     10 Int=      0 D2E=      0 Chk=      2 Scr=      1
 Normal termination of Gaussian 16 at Tue Jun 14 20:33:19 2022.
 Link1:  Proceeding to internal job step number  2.
 ------------------------------------------------------------------
 #N Geom=AllCheck Guess=TCheck SCRF=Check GenChk UB3LYP/ChkBas Freq
 ------------------------------------------------------------------
 1/10=4,29=7,30=1,38=1,40=1/1,3;
 2/12=2,40=1/2;
 3/5=7,6=2,11=2,14=-4,25=1,30=1,67=1,70=2,71=2,74=-5,82=7,116=2,140=1/1,2,3;
 4/5=101/1;
 5/5=2,38=6,98=1/2;
 8/6=4,10=90,11=11/1;
 11/6=1,8=1,9=11,15=111,16=1/1,2,10;
 10/6=1/2;
 6/7=2,8=2,9=2,10=2,28=1/1;
 7/8=1,10=1,25=1/1,2,3,16;
 1/10=4,30=1/3;
 99//99;
 Structure from the checkpoint file:  "/wrk/irikura/Gau-10579.chk"
 --------------------
 vinyl, B3LYP/pcseg-2
 --------------------
 Charge =  0 Multiplicity = 2
 Redundant internal coordinates found in file.  (old form).
 C,0,0.048036,0.717034,0.
 C,0,0.048036,-0.584152,0.
 H,0,-0.661561,1.528307,0.
 H,0,-0.87945,-1.159568,0.
 H,0,0.96458,-1.166033,0.
 Recover connectivity data from disk.

 GradGradGradGradGradGradGradGradGradGradGradGradGradGradGradGradGradGrad
 Berny optimization.
 Initialization pass.
                           ----------------------------
                           !    Initial Parameters    !
                           ! (Angstroms and Degrees)  !
 --------------------------                            --------------------------
 ! Name  Definition              Value          Derivative Info.                !
 --------------------------------------------------------------------------------
 ! R1    R(1,2)                  1.3012         calculate D2E/DX2 analytically  !
 ! R2    R(1,3)                  1.0778         calculate D2E/DX2 analytically  !
 ! R3    R(2,4)                  1.0915         calculate D2E/DX2 analytically  !
 ! R4    R(2,5)                  1.0857         calculate D2E/DX2 analytically  !
 ! A1    A(2,1,3)              138.8248         calculate D2E/DX2 analytically  !
 ! A2    A(1,2,4)              121.8156         calculate D2E/DX2 analytically  !
 ! A3    A(1,2,5)              122.41           calculate D2E/DX2 analytically  !
 ! A4    A(4,2,5)              115.7744         calculate D2E/DX2 analytically  !
 ! D1    D(3,1,2,4)              0.0            calculate D2E/DX2 analytically  !
 ! D2    D(3,1,2,5)            180.0            calculate D2E/DX2 analytically  !
 ! D3    D(1,2,4,5)            180.0            calculate D2E/DX2 analytically  !
 --------------------------------------------------------------------------------
 Trust Radius=3.00D-01 FncErr=1.00D-07 GrdErr=1.00D-07 EigMax=2.50D+02 EigMin=1.00D-04
 Number of steps in this run=      2 maximum allowed number of steps=      2.
 GradGradGradGradGradGradGradGradGradGradGradGradGradGradGradGradGradGrad

                          Input orientation:                          
 ---------------------------------------------------------------------
 Center     Atomic      Atomic             Coordinates (Angstroms)
 Number     Number       Type             X           Y           Z
 ---------------------------------------------------------------------
      1          6           0        0.048036    0.717034    0.000000
      2          6           0        0.048036   -0.584152    0.000000
      3          1           0       -0.661561    1.528307    0.000000
      4          1           0       -0.879450   -1.159568    0.000000
      5          1           0        0.964580   -1.166033    0.000000
 ---------------------------------------------------------------------
                    Distance matrix (angstroms):
                    1          2          3          4          5
     1  C    0.000000
     2  C    1.301186   0.000000
     3  H    1.077818   2.228455   0.000000
     4  H    2.093291   1.091482   2.696692   0.000000
     5  H    2.094277   1.085651   3.147031   1.844041   0.000000
 Stoichiometry    C2H3(2)
 Framework group  CS[SG(C2H3)]
 Deg. of freedom     7
 Full point group                 CS      NOp   2
 Largest Abelian subgroup         CS      NOp   2
 Largest concise Abelian subgroup C1      NOp   1
                         Standard orientation:                         
 ---------------------------------------------------------------------
 Center     Atomic      Atomic             Coordinates (Angstroms)
 Number     Number       Type             X           Y           Z
 ---------------------------------------------------------------------
      1          6           0        0.048036    0.717034    0.000000
      2          6           0        0.048036   -0.584152    0.000000
      3          1           0       -0.661561    1.528307    0.000000
      4          1           0       -0.879450   -1.159568    0.000000
      5          1           0        0.964580   -1.166033    0.000000
 ---------------------------------------------------------------------
 Rotational constants (GHZ):         238.8747221          32.8028304          28.8421584
 Basis read from chk: "/wrk/irikura/Gau-10579.chk" (5D, 7F)
 There are    81 symmetry adapted cartesian basis functions of A'  symmetry.
 There are    34 symmetry adapted cartesian basis functions of A"  symmetry.
 There are    70 symmetry adapted basis functions of A'  symmetry.
 There are    32 symmetry adapted basis functions of A"  symmetry.
   102 basis functions,   156 primitive gaussians,   115 cartesian basis functions
     8 alpha electrons        7 beta electrons
       nuclear repulsion energy        28.5291019923 Hartrees.
 NAtoms=    5 NActive=    5 NUniq=    5 SFac= 1.00D+00 NAtFMM=   60 NAOKFM=F Big=F
 Integral buffers will be    131072 words long.
 Raffenetti 2 integral format.
 Two-electron integral symmetry is turned on.
 One-electron integrals computed using PRISM.
 NBasis=   102 RedAO= T EigKep=  5.23D-04  NBF=    70    32
 NBsUse=   102 1.00D-06 EigRej= -1.00D+00 NBFU=    70    32
 Initial guess from the checkpoint file:  "/wrk/irikura/Gau-10579.chk"
 B after Tr=     0.000000   -0.000000    0.000000
         Rot=    1.000000    0.000000   -0.000000   -0.000000 Ang=   0.00 deg.
 Initial guess orbital symmetries:
 Alpha Orbitals:
       Occupied  (A') (A') (A') (A') (A') (A') (A") (A')
       Virtual   (A") (A') (A') (A') (A') (A") (A') (A') (A') (A")
                 (A') (A') (A') (A') (A') (A') (A") (A") (A') (A")
                 (A') (A') (A') (A') (A') (A") (A') (A') (A") (A')
                 (A") (A') (A") (A') (A") (A') (A") (A') (A') (A')
                 (A') (A') (A') (A') (A') (A') (A") (A") (A') (A")
                 (A') (A") (A') (A") (A') (A') (A') (A") (A') (A")
                 (A') (A") (A') (A") (A') (A') (A') (A") (A') (A")
                 (A") (A') (A") (A') (A') (A") (A") (A') (A') (A")
                 (A') (A') (A") (A') (A") (A') (A') (A') (A") (A')
                 (A') (A') (A') (A')
 Beta  Orbitals:
       Occupied  (A') (A') (A') (A') (A') (A') (A")
       Virtual   (A') (A") (A') (A') (A') (A') (A") (A') (A') (A")
                 (A') (A') (A') (A') (A') (A') (A') (A") (A") (A')
                 (A") (A') (A') (A') (A') (A') (A") (A') (A') (A")
                 (A") (A') (A') (A") (A') (A") (A') (A") (A') (A')
                 (A') (A') (A') (A') (A') (A') (A') (A") (A") (A')
                 (A") (A') (A") (A') (A") (A') (A') (A') (A") (A')
                 (A") (A') (A") (A") (A') (A') (A') (A') (A") (A")
                 (A') (A") (A') (A") (A') (A') (A") (A") (A') (A')
                 (A") (A') (A') (A") (A') (A") (A') (A') (A') (A")
                 (A') (A') (A') (A') (A')
 Initial guess <Sx>= 0.0000 <Sy>= 0.0000 <Sz>= 0.5000 <S**2>= 0.7592 S= 0.5046
 Keep R1 and R2 ints in memory in symmetry-blocked form, NReq=21164326.
 Requested convergence on RMS density matrix=1.00D-08 within 128 cycles.
 Requested convergence on MAX density matrix=1.00D-06.
 Requested convergence on             energy=1.00D-06.
 No special actions if energy rises.
 SCF Done:  E(UB3LYP) =  -77.9387377164     A.U. after    1 cycles
            NFock=  1  Conv=0.25D-09     -V/T= 2.0041
 <Sx>= 0.0000 <Sy>= 0.0000 <Sz>= 0.5000 <S**2>= 0.7592 S= 0.5046
 <L.S>=  0.00000000000    
 Annihilation of the first spin contaminant:
 S**2 before annihilation     0.7592,   after     0.7500
 DoSCS=F DFT=T ScalE2(SS,OS)=  1.000000  1.000000
 Range of M.O.s used for correlation:     1   102
 NBasis=   102 NAE=     8 NBE=     7 NFC=     0 NFV=     0
 NROrb=    102 NOA=     8 NOB=     7 NVA=    94 NVB=    95

 **** Warning!!: The largest alpha MO coefficient is  0.12104797D+02


 **** Warning!!: The largest beta MO coefficient is  0.12156896D+02

 Symmetrizing basis deriv contribution to polar:
 IMax=3 JMax=2 DiffMx= 0.00D+00
 G2DrvN: will do     6 centers at a time, making    1 passes.
 Calling FoFCou, ICntrl=  3107 FMM=F I1Cent=   0 AccDes= 0.00D+00.
 End of G2Drv F.D. properties file   721 does not exist.
 End of G2Drv F.D. properties file   722 does not exist.
 End of G2Drv F.D. properties file   788 does not exist.
          IDoAtm=11111
          Differentiating once with respect to electric field.
                with respect to dipole field.
          Differentiating once with respect to nuclear coordinates.
 Keep R1 and R2 ints in memory in symmetry-blocked form, NReq=21166840.
          There are    18 degrees of freedom in the 1st order CPHF.  IDoFFX=6 NUNeed=     3.
     15 vectors produced by pass  0 Test12= 7.87D-15 5.56D-09 XBig12= 7.31D+01 4.83D+00.
 AX will form    15 AO Fock derivatives at one time.
     15 vectors produced by pass  1 Test12= 7.87D-15 5.56D-09 XBig12= 1.46D+01 1.13D+00.
     15 vectors produced by pass  2 Test12= 7.87D-15 5.56D-09 XBig12= 6.53D-01 2.07D-01.
     15 vectors produced by pass  3 Test12= 7.87D-15 5.56D-09 XBig12= 4.71D-03 1.56D-02.
     15 vectors produced by pass  4 Test12= 7.87D-15 5.56D-09 XBig12= 2.37D-05 1.29D-03.
     15 vectors produced by pass  5 Test12= 7.87D-15 5.56D-09 XBig12= 8.02D-08 8.29D-05.
     10 vectors produced by pass  6 Test12= 7.87D-15 5.56D-09 XBig12= 3.28D-10 3.04D-06.
      4 vectors produced by pass  7 Test12= 7.87D-15 5.56D-09 XBig12= 7.81D-13 1.33D-07.
      1 vectors produced by pass  8 Test12= 7.87D-15 5.56D-09 XBig12= 1.99D-15 6.76D-09.
 InvSVY:  IOpt=1 It=  1 EMax= 4.44D-16
 Solved reduced A of dimension   105 with    15 vectors.
 Isotropic polarizability for W=    0.000000       23.95 Bohr**3.
 End of Minotr F.D. properties file   721 does not exist.
 End of Minotr F.D. properties file   722 does not exist.
 End of Minotr F.D. properties file   788 does not exist.

 **********************************************************************

            Population analysis using the SCF Density.

 **********************************************************************

 Orbital symmetries:
 Alpha Orbitals:
       Occupied  (A') (A') (A') (A') (A') (A') (A") (A')
       Virtual   (A") (A') (A') (A') (A') (A") (A') (A') (A') (A")
                 (A') (A') (A') (A') (A') (A') (A") (A") (A') (A")
                 (A') (A') (A') (A') (A') (A") (A') (A') (A") (A')
                 (A") (A') (A") (A') (A") (A') (A") (A') (A') (A')
                 (A') (A') (A') (A') (A') (A') (A") (A") (A') (A")
                 (A') (A") (A') (A") (A') (A') (A') (A") (A') (A")
                 (A') (A") (A') (A") (A') (A') (A') (A") (A') (A")
                 (A") (A') (A") (A') (A') (A") (A") (A') (A') (A")
                 (A') (A') (A") (A') (A") (A') (A') (A') (A") (A')
                 (A') (A') (A') (A')
 Beta  Orbitals:
       Occupied  (A') (A') (A') (A') (A') (A') (A")
       Virtual   (A') (A") (A') (A') (A') (A') (A") (A') (A') (A")
                 (A') (A') (A') (A') (A') (A') (A') (A") (A") (A')
                 (A") (A') (A') (A') (A') (A') (A") (A') (A') (A")
                 (A") (A') (A') (A") (A') (A") (A') (A") (A') (A')
                 (A') (A') (A') (A') (A') (A') (A') (A") (A") (A')
                 (A") (A') (A") (A') (A") (A') (A') (A') (A") (A')
                 (A") (A') (A") (A") (A') (A') (A') (A') (A") (A")
                 (A') (A") (A') (A") (A') (A') (A") (A") (A') (A')
                 (A") (A') (A') (A") (A') (A") (A') (A') (A') (A")
                 (A') (A') (A') (A') (A')
 The electronic state is 2-A'.
 Alpha  occ. eigenvalues --  -10.20224 -10.18166  -0.77560  -0.58348  -0.47171
 Alpha  occ. eigenvalues --   -0.44065  -0.29521  -0.24287
 Alpha virt. eigenvalues --   -0.00941   0.03012   0.04549   0.07145   0.14854
 Alpha virt. eigenvalues --    0.16917   0.17649   0.21046   0.25142   0.25688
 Alpha virt. eigenvalues --    0.28512   0.33440   0.34339   0.37565   0.42967
 Alpha virt. eigenvalues --    0.53785   0.64933   0.73982   0.80899   0.87784
 Alpha virt. eigenvalues --    0.91313   0.98044   0.98309   1.00313   1.03234
 Alpha virt. eigenvalues --    1.07104   1.10088   1.16748   1.23532   1.25691
 Alpha virt. eigenvalues --    1.25992   1.33456   1.37138   1.50298   1.52181
 Alpha virt. eigenvalues --    1.53780   1.67914   1.71000   1.71946   1.80571
 Alpha virt. eigenvalues --    1.92005   2.20034   2.25898   2.32810   2.62142
 Alpha virt. eigenvalues --    2.95948   3.00572   3.09203   3.17513   3.28750
 Alpha virt. eigenvalues --    3.30110   3.38356   3.49674   3.54414   3.58111
 Alpha virt. eigenvalues --    3.67976   3.76736   3.87691   3.92802   3.94417
 Alpha virt. eigenvalues --    3.95163   4.05961   4.07539   4.08936   4.13181
 Alpha virt. eigenvalues --    4.17264   4.23606   4.25426   4.29003   4.30317
 Alpha virt. eigenvalues --    4.33745   4.37281   4.43980   4.49246   4.50304
 Alpha virt. eigenvalues --    4.53354   4.56434   4.56684   4.90846   4.97685
 Alpha virt. eigenvalues --    5.12821   5.18649   5.34163   5.35290   5.40363
 Alpha virt. eigenvalues --    5.42553   5.55225   5.72001   5.74742   5.76769
 Alpha virt. eigenvalues --    5.98155   6.05648   6.20985   6.63886
  Beta  occ. eigenvalues --  -10.18644 -10.18315  -0.75839  -0.56219  -0.45737
  Beta  occ. eigenvalues --   -0.42518  -0.28747
  Beta virt. eigenvalues --   -0.08579   0.00060   0.03199   0.04873   0.07419
  Beta virt. eigenvalues --    0.15094   0.17025   0.19440   0.21928   0.26133
  Beta virt. eigenvalues --    0.26549   0.29529   0.34149   0.34546   0.38286
  Beta virt. eigenvalues --    0.44285   0.55462   0.65540   0.74450   0.82938
  Beta virt. eigenvalues --    0.90501   0.92200   0.98869   0.99848   1.01834
  Beta virt. eigenvalues --    1.04375   1.08541   1.11328   1.18625   1.24179
  Beta virt. eigenvalues --    1.26586   1.30317   1.35560   1.37546   1.51441
  Beta virt. eigenvalues --    1.53056   1.55349   1.68912   1.71354   1.72973
  Beta virt. eigenvalues --    1.82309   1.93015   2.21222   2.27417   2.34302
  Beta virt. eigenvalues --    2.63532   2.98006   3.01757   3.11197   3.20431
  Beta virt. eigenvalues --    3.31553   3.34336   3.38929   3.50557   3.56253
  Beta virt. eigenvalues --    3.59147   3.69201   3.77897   3.89821   3.95367
  Beta virt. eigenvalues --    3.96056   3.97224   4.08375   4.10440   4.11419
  Beta virt. eigenvalues --    4.14262   4.18191   4.26232   4.27284   4.30322
  Beta virt. eigenvalues --    4.30781   4.34910   4.38401   4.45405   4.50745
  Beta virt. eigenvalues --    4.51867   4.54572   4.57858   4.57982   4.92291
  Beta virt. eigenvalues --    4.98172   5.14370   5.20299   5.35264   5.37484
  Beta virt. eigenvalues --    5.40920   5.43742   5.56649   5.72722   5.75572
  Beta virt. eigenvalues --    5.77685   5.99127   6.07302   6.22868   6.65397
          Condensed to atoms (all electrons):
               1          2          3          4          5
     1  C    5.127257   0.646130   0.401501  -0.047746  -0.050625
     2  C    0.646130   4.688006  -0.046524   0.413749   0.418858
     3  H    0.401501  -0.046524   0.580865  -0.008732   0.006613
     4  H   -0.047746   0.413749  -0.008732   0.623049  -0.041102
     5  H   -0.050625   0.418858   0.006613  -0.041102   0.596583
          Atomic-Atomic Spin Densities.
               1          2          3          4          5
     1  C    1.117196  -0.043288  -0.018930  -0.032904  -0.021776
     2  C   -0.043288  -0.139980   0.000943   0.018221   0.010882
     3  H   -0.018930   0.000943   0.045766  -0.010317   0.003914
     4  H   -0.032904   0.018221  -0.010317   0.140725  -0.029853
     5  H   -0.021776   0.010882   0.003914  -0.029853   0.082509
 Mulliken charges and spin densities:
               1          2
     1  C   -0.076516   1.000297
     2  C   -0.120219  -0.153222
     3  H    0.066278   0.021377
     4  H    0.060783   0.085872
     5  H    0.069674   0.045676
 Sum of Mulliken charges =  -0.00000   1.00000
 Mulliken charges and spin densities with hydrogens summed into heavy atoms:
               1          2
     1  C   -0.010238   1.021674
     2  C    0.010238  -0.021674
 APT charges:
               1
     1  C   -0.138392
     2  C   -0.099051
     3  H    0.124032
     4  H    0.047694
     5  H    0.065717
 Sum of APT charges =   0.00000
 APT charges with hydrogens summed into heavy atoms:
               1
     1  C   -0.014360
     2  C    0.014360
 Electronic spatial extent (au):  <R**2>=             73.0522
 Charge=             -0.0000 electrons
 Dipole moment (field-independent basis, Debye):
    X=             -0.6407    Y=             -0.3255    Z=              0.0000  Tot=              0.7187
 Quadrupole moment (field-independent basis, Debye-Ang):
   XX=            -12.5349   YY=            -11.4908   ZZ=            -14.9538
   XY=             -1.2244   XZ=              0.0000   YZ=              0.0000
 Traceless Quadrupole moment (field-independent basis, Debye-Ang):
   XX=              0.4583   YY=              1.5024   ZZ=             -1.9606
   XY=             -1.2244   XZ=              0.0000   YZ=              0.0000
 Octapole moment (field-independent basis, Debye-Ang**2):
  XXX=             -0.9901  YYY=             -0.0861  ZZZ=              0.0000  XYY=             -1.9645
  XXY=             -1.4677  XXZ=              0.0000  XZZ=             -0.3298  YZZ=             -0.2507
  YYZ=              0.0000  XYZ=              0.0000
 Hexadecapole moment (field-independent basis, Debye-Ang**3):
 XXXX=            -24.0370 YYYY=            -61.7412 ZZZZ=            -19.3359 XXXY=              0.6355
 XXXZ=              0.0000 YYYX=             -1.7015 YYYZ=              0.0000 ZZZX=              0.0000
 ZZZY=              0.0000 XXYY=            -13.1061 XXZZ=             -7.6606 YYZZ=            -14.7799
 XXYZ=              0.0000 YYXZ=              0.0000 ZZXY=              0.5186
 N-N= 2.852910199228D+01 E-N=-2.375752208239D+02  KE= 7.762263126446D+01
 Symmetry A'   KE= 7.548733318140D+01
 Symmetry A"   KE= 2.135298083065D+00
 Symmetry A'   SP= 1.000000000000D+00
 Symmetry A"   SP=-8.146051379016D-16
  Exact polarizability:  20.270  -0.630  34.772   0.000  -0.000  16.823
 Approx polarizability:  25.190  -0.540  52.299  -0.000  -0.000  21.562
                          Isotropic Fermi Contact Couplings
        Atom                 a.u.       MegaHertz       Gauss      10(-4) cm-1
     1  C(13)              0.33129     372.43342     132.89351     124.23042
     2  C(13)             -0.02184     -24.55255      -8.76096      -8.18985
     3  H(1)               0.01015      45.37814      16.19205      15.13652
     4  H(1)               0.03967     177.30908      63.26829      59.14394
     5  H(1)               0.02538     113.43059      40.47486      37.83637
 --------------------------------------------------------
       Center         ----  Spin Dipole Couplings  ----
                      3XX-RR        3YY-RR        3ZZ-RR
 --------------------------------------------------------
     1   Atom        0.815613     -0.372798     -0.442815
     2   Atom        0.022735      0.119631     -0.142366
     3   Atom        0.017732      0.044566     -0.062298
     4   Atom       -0.001238      0.011001     -0.009764
     5   Atom       -0.009468      0.021406     -0.011937
 --------------------------------------------------------
                        XY            XZ            YZ
 --------------------------------------------------------
     1   Atom        0.567911      0.000000      0.000000
     2   Atom        0.015821      0.000000      0.000000
     3   Atom       -0.041068      0.000000      0.000000
     4   Atom        0.004958      0.000000      0.000000
     5   Atom       -0.007649      0.000000      0.000000
 --------------------------------------------------------


 ---------------------------------------------------------------------------------
              Anisotropic Spin Dipole Couplings in Principal Axis System
 ---------------------------------------------------------------------------------

       Atom             a.u.   MegaHertz   Gauss  10(-4) cm-1        Axes

              Baa    -0.6005   -80.587   -28.755   -26.881 -0.3722  0.9281 -0.0000
     1 C(13)  Bbb    -0.4428   -59.422   -21.203   -19.821  0.0000  0.0000  1.0000
              Bcc     1.0434   140.009    49.959    46.702  0.9281  0.3722  0.0000
 
              Baa    -0.1424   -19.104    -6.817    -6.372  0.0000  0.0000  1.0000
     2 C(13)  Bbb     0.0202     2.713     0.968     0.905  0.9876 -0.1572 -0.0000
              Bcc     0.1221    16.391     5.849     5.468  0.1572  0.9876  0.0000
 
              Baa    -0.0623   -33.239   -11.861   -11.087  0.0000  0.0000  1.0000
     3 H(1)   Bbb    -0.0121    -6.432    -2.295    -2.146  0.8095  0.5871  0.0000
              Bcc     0.0744    39.671    14.156    13.233 -0.5871  0.8095  0.0000
 
              Baa    -0.0098    -5.209    -1.859    -1.738  0.0000  0.0000  1.0000
     4 H(1)   Bbb    -0.0030    -1.597    -0.570    -0.533  0.9426 -0.3339 -0.0000
              Bcc     0.0128     6.807     2.429     2.271  0.3339  0.9426  0.0000
 
              Baa    -0.0119    -6.369    -2.273    -2.125  0.0000  0.0000  1.0000
     5 H(1)   Bbb    -0.0113    -6.008    -2.144    -2.004  0.9737  0.2280  0.0000
              Bcc     0.0232    12.377     4.416     4.128 -0.2280  0.9737  0.0000
 

 ---------------------------------------------------------------------------------

 Calling FoFJK, ICntrl=    100127 FMM=F ISym2X=1 I1Cent= 0 IOpClX= 1 NMat=1 NMatS=1 NMatT=0.
 Full mass-weighted force constant matrix:
 Low frequencies ---   -0.0009   -0.0002    0.0011   12.3134   21.3494   33.5952
 Low frequencies ---  711.2734  824.6592  931.0784
 Diagonal vibrational polarizability:
        0.3340273       1.2595253       3.2731836
 Harmonic frequencies (cm**-1), IR intensities (KM/Mole), Raman scattering
 activities (A**4/AMU), depolarization ratios for plane and unpolarized
 incident light, reduced masses (AMU), force constants (mDyne/A),
 and normal coordinates:
                      1                      2                      3
                     A'                     A"                     A"
 Frequencies --    711.2733               824.6590               931.0774
 Red. masses --      1.0568                 1.2359                 1.2512
 Frc consts  --      0.3150                 0.4952                 0.6391
 IR Inten    --     23.3374                23.5961                75.3619
  Atom  AN      X      Y      Z        X      Y      Z        X      Y      Z
     1   6    -0.05  -0.02   0.00    -0.00  -0.00  -0.13    -0.00   0.00   0.01
     2   6    -0.04  -0.01  -0.00    -0.00   0.00   0.07    -0.00  -0.00  -0.15
     3   1     0.61   0.53  -0.00     0.00   0.00   0.86     0.00   0.00   0.26
     4   1     0.21  -0.40   0.00     0.00  -0.00  -0.44     0.00  -0.00   0.56
     5   1     0.19   0.32  -0.00     0.00   0.00   0.22     0.00   0.00   0.77
                      4                      5                      6
                     A'                     A'                     A'
 Frequencies --   1048.4616              1395.8783              1650.8743
 Red. masses --      1.5052                 1.1055                 5.4113
 Frc consts  --      0.9749                 1.2692                 8.6892
 IR Inten    --      7.7234                 8.4209                 2.2223
  Atom  AN      X      Y      Z        X      Y      Z        X      Y      Z
     1   6     0.15   0.02   0.00    -0.01  -0.09  -0.00    -0.01  -0.42   0.00
     2   6    -0.15   0.01   0.00    -0.00  -0.00  -0.00    -0.00   0.48  -0.00
     3   1    -0.37  -0.40  -0.00     0.07  -0.05   0.00     0.23  -0.39  -0.00
     4   1     0.20  -0.52  -0.00    -0.35   0.60   0.00     0.40  -0.17   0.00
     5   1     0.21   0.55  -0.00     0.37   0.61   0.00    -0.43  -0.14   0.00
                      7                      8                      9
                     A'                     A'                     A'
 Frequencies --   3043.2318              3140.4468              3242.6276
 Red. masses --      1.0626                 1.1012                 1.1051
 Frc consts  --      5.7981                 6.3987                 6.8463
 IR Inten    --      5.1313                 3.1982                 0.4651
  Atom  AN      X      Y      Z        X      Y      Z        X      Y      Z
     1   6     0.00  -0.00   0.00    -0.00  -0.00   0.00     0.05  -0.08   0.00
     2   6    -0.04  -0.06   0.00    -0.09   0.03   0.00     0.01   0.02   0.00
     3   1    -0.03   0.05  -0.00    -0.01   0.00  -0.00    -0.64   0.76  -0.00
     4   1     0.80   0.49   0.00     0.26   0.18  -0.00    -0.05  -0.03   0.00
     5   1    -0.29   0.16  -0.00     0.79  -0.51  -0.00     0.00  -0.00  -0.00

 -------------------
 - Thermochemistry -
 -------------------
 Temperature   298.150 Kelvin.  Pressure   1.00000 Atm.
 Atom     1 has atomic number  6 and mass  12.00000
 Atom     2 has atomic number  6 and mass  12.00000
 Atom     3 has atomic number  1 and mass   1.00783
 Atom     4 has atomic number  1 and mass   1.00783
 Atom     5 has atomic number  1 and mass   1.00783
 Molecular mass:    27.02348 amu.
 Principal axes and moments of inertia in atomic units:
                           1         2         3
     Eigenvalues --     7.55518  55.01785  62.57303
           X           -0.08038   0.99676   0.00000
           Y            0.99676   0.08038   0.00000
           Z           -0.00000   0.00000   1.00000
 This molecule is an asymmetric top.
 Rotational symmetry number  1.
 Rotational temperatures (Kelvin)     11.46418     1.57429     1.38421
 Rotational constants (GHZ):         238.87472    32.80283    28.84216
 Zero-point vibrational energy      95632.6 (Joules/Mol)
                                   22.85675 (Kcal/Mol)
 Vibrational temperatures:   1023.36  1186.50  1339.61  1508.50  2008.36
          (Kelvin)           2375.24  4378.53  4518.40  4665.42
 
 Zero-point correction=                           0.036425 (Hartree/Particle)
 Thermal correction to Energy=                    0.039526
 Thermal correction to Enthalpy=                  0.040470
 Thermal correction to Gibbs Free Energy=         0.013955
 Sum of electronic and zero-point Energies=            -77.902313
 Sum of electronic and thermal Energies=               -77.899212
 Sum of electronic and thermal Enthalpies=             -77.898268
 Sum of electronic and thermal Free Energies=          -77.924783
 
                     E (Thermal)             CV                S
                      KCal/Mol        Cal/Mol-Kelvin    Cal/Mol-Kelvin
 Total                   24.803              8.318             55.805
 Electronic               0.000              0.000              1.377
 Translational            0.889              2.981             35.818
 Rotational               0.889              2.981             17.904
 Vibrational             23.025              2.356              0.706
                       Q            Log10(Q)             Ln(Q)
 Total Bot       0.381216D-06         -6.418829        -14.779901
 Total V=0       0.216415D+11         10.335287         23.797877
 Vib (Bot)       0.189087D-16        -16.723338        -38.506910
 Vib (V=0)       0.107344D+01          0.030778          0.070868
 Electronic      0.200000D+01          0.301030          0.693147
 Translational   0.552161D+07          6.742066         15.524180
 Rotational      0.182563D+04          3.261413          7.509682
 ***** Axes restored to original set *****
 -------------------------------------------------------------------
 Center     Atomic                   Forces (Hartrees/Bohr)
 Number     Number              X              Y              Z
 -------------------------------------------------------------------
      1        6           0.000004201   -0.000052302   -0.000000000
      2        6          -0.000250618    0.000019849   -0.000000000
      3        1           0.000124203   -0.000129096   -0.000000000
      4        1           0.000096187    0.000022549   -0.000000000
      5        1           0.000026027    0.000139001   -0.000000000
 -------------------------------------------------------------------
 Cartesian Forces:  Max     0.000250618 RMS     0.000092307
 FormGI is forming the generalized inverse of G from B-inverse, IUseBI=4.

 GradGradGradGradGradGradGradGradGradGradGradGradGradGradGradGradGradGrad
 Berny optimization.
 Internal  Forces:  Max     0.000201006 RMS     0.000112601
 Search for a local minimum.
 Step number   1 out of a maximum of    2
 All quantities printed in internal units (Hartrees-Bohrs-Radians)
 Second derivative matrix not updated -- analytic derivatives used.
 The second derivative matrix:
                          R1        R2        R3        R4        A1
           R1           0.65906
           R2          -0.00158   0.36699
           R3           0.01651   0.00078   0.33078
           R4           0.01561   0.00057   0.00424   0.34679
           A1           0.02487   0.01991  -0.00503  -0.00096   0.08509
           A2           0.01074  -0.00233   0.00676  -0.01418  -0.01097
           A3           0.01598   0.00420  -0.01445   0.00782   0.00939
           A4          -0.02671  -0.00187   0.00769   0.00636   0.00159
           D1           0.00000  -0.00000   0.00000  -0.00000   0.00000
           D2           0.00000  -0.00000   0.00000  -0.00000   0.00000
           D3          -0.00000  -0.00000   0.00000  -0.00000   0.00000
                          A2        A3        A4        D1        D2
           A2           0.06687
           A3          -0.03428   0.06906
           A4          -0.03260  -0.03479   0.06739
           D1           0.00000  -0.00000   0.00000   0.01040
           D2           0.00000  -0.00000   0.00000   0.00299   0.01482
           D3           0.00000  -0.00000   0.00000  -0.00695   0.01109
                          D3
           D3           0.01690
 ITU=  0
     Eigenvalues ---    0.01449   0.02764   0.07443   0.09906   0.10745
     Eigenvalues ---    0.33116   0.34781   0.36855   0.66355
 Angle between quadratic step and forces=  36.63 degrees.
 Linear search not attempted -- first point.
 Iteration  1 RMS(Cart)=  0.00119016 RMS(Int)=  0.00000093
 Iteration  2 RMS(Cart)=  0.00000097 RMS(Int)=  0.00000000
 ClnCor:  largest displacement from symmetrization is 4.74D-11 for atom     2.
 Variable       Old X    -DE/DX   Delta X   Delta X   Delta X     New X
                                 (Linear)    (Quad)   (Total)
    R1        2.45889  -0.00018   0.00000  -0.00025  -0.00025   2.45864
    R2        2.03678  -0.00018   0.00000  -0.00049  -0.00049   2.03629
    R3        2.06260  -0.00009   0.00000  -0.00039  -0.00039   2.06222
    R4        2.05158  -0.00005   0.00000  -0.00004  -0.00004   2.05154
    A1        2.42295   0.00002   0.00000   0.00076   0.00076   2.42371
    A2        2.12608   0.00013   0.00000   0.00142   0.00142   2.12751
    A3        2.13646  -0.00020   0.00000  -0.00200  -0.00200   2.13445
    A4        2.02064   0.00007   0.00000   0.00058   0.00058   2.02123
    D1        0.00000  -0.00000   0.00000  -0.00000   0.00000   0.00000
    D2        3.14159   0.00000   0.00000  -0.00000   0.00000   3.14159
    D3        3.14159  -0.00000   0.00000  -0.00000   0.00000   3.14159
         Item               Value     Threshold  Converged?
 Maximum Force            0.000201     0.000450     YES
 RMS     Force            0.000113     0.000300     YES
 Maximum Displacement     0.002294     0.001800     NO 
 RMS     Displacement     0.001190     0.001200     YES
 Predicted change in Energy=-4.082875D-07
                           ----------------------------
                           ! Non-Optimized Parameters !
                           ! (Angstroms and Degrees)  !
 --------------------------                            --------------------------
 ! Name  Definition              Value          Derivative Info.                !
 --------------------------------------------------------------------------------
 ! R1    R(1,2)                  1.3011         -DE/DX =   -0.0002              !
 ! R2    R(1,3)                  1.0776         -DE/DX =   -0.0002              !
 ! R3    R(2,4)                  1.0913         -DE/DX =   -0.0001              !
 ! R4    R(2,5)                  1.0856         -DE/DX =   -0.0001              !
 ! A1    A(2,1,3)              138.8686         -DE/DX =    0.0                 !
 ! A2    A(1,2,4)              121.8971         -DE/DX =    0.0001              !
 ! A3    A(1,2,5)              122.2951         -DE/DX =   -0.0002              !
 ! A4    A(4,2,5)              115.8077         -DE/DX =    0.0001              !
 ! D1    D(3,1,2,4)              0.0            -DE/DX =    0.0                 !
 ! D2    D(3,1,2,5)            180.0            -DE/DX =    0.0                 !
 ! D3    D(1,2,4,5)            180.0            -DE/DX =    0.0                 !
 --------------------------------------------------------------------------------
 GradGradGradGradGradGradGradGradGradGradGradGradGradGradGradGradGradGrad


 ----------------------------------------------------------------------

 Electric dipole moment (input orientation):
 (Debye = 10**-18 statcoulomb cm , SI units = C m)
                  (au)            (Debye)         (10**-30 SI)
   Tot        0.282745D+00      0.718667D+00      0.239722D+01
   x         -0.252079D+00     -0.640721D+00     -0.213722D+01
   y         -0.128067D+00     -0.325513D+00     -0.108579D+01
   z          0.000000D+00      0.000000D+00      0.000000D+00

 Dipole polarizability, Alpha (input orientation).
 (esu units = cm**3 , SI units = C**2 m**2 J**-1)
 Alpha(0;0):
               (au)            (10**-24 esu)      (10**-40 SI)
   iso        0.239548D+02      0.354973D+01      0.394961D+01
   aniso      0.165338D+02      0.245006D+01      0.272606D+01
   xx         0.202696D+02      0.300364D+01      0.334200D+01
   yx        -0.630499D+00     -0.934303D-01     -0.103955D+00
   yy         0.347718D+02      0.515265D+01      0.573309D+01
   zx         0.000000D+00      0.000000D+00      0.000000D+00
   zy         0.000000D+00      0.000000D+00      0.000000D+00
   zz         0.168230D+02      0.249292D+01      0.277374D+01

 ----------------------------------------------------------------------

 Dipole orientation:
     6         -0.52854483          1.04035784         -0.69466198
     6          0.46438850         -0.91407612          0.41906493
     1         -1.42272682          2.80041521         -0.19354992
     1          0.54391462         -1.07061085          2.47418120
     1          1.26375214         -2.48749842         -0.62704891

 Electric dipole moment (dipole orientation):
 (Debye = 10**-18 statcoulomb cm , SI units = C m)
                  (au)            (Debye)         (10**-30 SI)
   Tot        0.282745D+00      0.718667D+00      0.239722D+01
   x          0.000000D+00      0.000000D+00      0.000000D+00
   y          0.000000D+00      0.000000D+00      0.000000D+00
   z          0.282745D+00      0.718667D+00      0.239722D+01

 Dipole polarizability, Alpha (dipole orientation).
 (esu units = cm**3 , SI units = C**2 m**2 J**-1)
 Alpha(0;0):
               (au)            (10**-24 esu)      (10**-40 SI)
   iso        0.239548D+02      0.354973D+01      0.394961D+01
   aniso      0.165338D+02      0.245006D+01      0.272606D+01
   xx         0.199994D+02      0.296360D+01      0.329745D+01
   yx        -0.625216D+01     -0.926475D+00     -0.103084D+01
   yy         0.291294D+02      0.431654D+01      0.480280D+01
   zx         0.248411D+01      0.368107D+00      0.409574D+00
   zy        -0.488958D+01     -0.724560D+00     -0.806182D+00
   zz         0.227355D+02      0.336906D+01      0.374858D+01

 ----------------------------------------------------------------------
 1\1\GINC-GAMBA\Freq\UB3LYP\Gen\C2H3(2)\IRIKURA\14-Jun-2022\0\\#N Geom=
 AllCheck Guess=TCheck SCRF=Check GenChk UB3LYP/ChkBas Freq\\vinyl, B3L
 YP/pcseg-2\\0,2\C,0.048036,0.717034,0.\C,0.048036,-0.584152,0.\H,-0.66
 1561,1.528307,0.\H,-0.87945,-1.159568,0.\H,0.96458,-1.166033,0.\\Versi
 on=ES64L-G16RevB.01\State=2-A'\HF=-77.9387377\S2=0.75917\S2-1=0.\S2A=0
 .750041\RMSD=2.538e-10\RMSF=9.231e-05\ZeroPoint=0.0364246\Thermal=0.03
 95256\Dipole=-0.2520791,-0.1280666,0.\DipoleDeriv=-0.1074175,-0.152591
 2,0.,-0.0300437,-0.0455554,0.,0.,0.,-0.2622026,0.0900367,0.0355337,0.,
 0.017552,-0.1100495,0.,0.,0.,-0.2771404,0.059209,0.128707,0.,0.0238589
 ,0.0952888,0.,0.,0.,0.2175968,-0.0279395,-0.0783409,0.,-0.0567181,0.02
 25008,0.,0.,0.,0.1485211,-0.0138887,0.0666914,0.,0.0453509,0.0378153,0
 .,0.,0.,0.1732251\Polar=20.2695565,-0.6304987,34.7717834,0.,0.,16.8230
 306\Quadrupole=0.3407197,1.1169677,-1.4576874,-0.9103452,0.,0.\PG=CS [
 SG(C2H3)]\NImag=0\\0.23329346,-0.17082697,0.87190314,0.,0.,0.04771273,
 -0.07023512,-0.00931787,0.,0.54411437,0.02707555,-0.60276340,0.,-0.024
 00007,0.83725775,0.,0.,-0.03467775,0.,0.,0.09802710,-0.16981957,0.1805
 8746,0.,0.00819453,-0.01412390,0.,0.16104481,0.14839952,-0.21969336,0.
 ,0.02394776,-0.00623034,0.,-0.17035419,0.22654334,0.,0.,-0.02588788,0.
 ,0.,0.00314554,0.,0.,0.01744913,0.00161806,-0.00421946,0.,-0.23570545,
 -0.10893740,0.,0.00090470,-0.00024012,0.,0.25228232,-0.02734831,-0.026
 49791,0.,-0.11567330,-0.11018664,0.,0.00303861,0.00236447,0.,0.1269624
 2,0.12542343,0.,0.,0.01635085,0.,0.,-0.03433372,0.,0.,-0.00404702,0.,0
 .,0.01253578,0.00514316,0.00377684,0.,-0.24636833,0.11998581,0.,-0.000
 32446,-0.00175296,0.,-0.01909963,0.01302058,0.,0.26064926,0.02270020,-
 0.02294847,0.,0.12504348,-0.11807737,0.,0.00085202,-0.00298410,0.,-0.0
 1356543,0.00889665,0.,-0.13503027,0.13511329,0.,0.,-0.00349795,0.,0.,-
 0.03216117,0.,0.,0.00934023,0.,0.,0.00949411,0.,0.,0.01682477\\-0.0000
 0420,0.00005230,0.,0.00025062,-0.00001985,0.,-0.00012420,0.00012910,0.
 ,-0.00009619,-0.00002255,0.,-0.00002603,-0.00013900,0.\\\@


 ... IT IS NO ONE DREAME THAT
     CAN PLEASE THESE ALL ...

                -- BEN JONSON
 Job cpu time:       0 days  0 hours  1 minutes 58.6 seconds.
 Elapsed time:       0 days  0 hours  0 minutes 29.7 seconds.
 File lengths (MBytes):  RWF=     14 Int=      0 D2E=      0 Chk=      2 Scr=      1
 Normal termination of Gaussian 16 at Tue Jun 14 20:33:49 2022.
