 Entering Gaussian System, Link 0=g16
 AtFile(1): pcseg2.gbs
            -H     0
            S   4   1.00
                  0.754732D+02           0.427821D-02
                  0.113575D+02           0.328672D-01
                  0.260081D+01           0.159578D+00
                  0.735503D+00           0.500000D+00
            S   1   1.00
                  0.231761D+00           1.0000000
            S   1   1.00
                  0.741675D-01           1.0000000
            P   1   1.00
                  0.160000D+01           1.0000000
            P   1   1.00
                  0.450000D+00           1.0000000
            D   1   1.00
                  0.125000D+01           1.0000000
            ****
            -C     0
            S   7   1.00
                  0.731999D+04           0.695369D-03
                  0.109818D+04           0.537138D-02
                  0.250014D+03           0.274734D-01
                  0.707586D+02           0.105078D+00
                  0.228595D+02           0.291262D+00
                  0.803936D+01           0.500000D+00
                  0.289309D+01           0.362224D+00
            S   2   1.00
                  0.521640D+01          -0.957844D-01
                  0.556124D+00           0.500000D+00
            S   1   1.00
                  0.228813D+00           1.0000000
            S   1   1.00
                  0.936338D-01           1.0000000
            P   4   1.00
                  0.339855D+02           0.818395D-02
                  0.772957D+01           0.586921D-01
                  0.224954D+01           0.222514D+00
                  0.767681D+00           0.500000D+00
            P   1   1.00
                  0.263283D+00           1.0000000
            P   1   1.00
                  0.848744D-01           1.0000000
            D   1   1.00
                  0.140000D+01           1.0000000
            D   1   1.00
                  0.450000D+00           1.0000000
            F   1   1.00
                  0.950000D+00           1.0000000
            ****
            -O     0
            S   7   1.00
                  0.135887D+05           0.665492D-03
                  0.203847D+04           0.514222D-02
                  0.464041D+03           0.263472D-01
                  0.131339D+03           0.101500D+00
                  0.425340D+02           0.285877D+00
                  0.150429D+02           0.500000D+00
                  0.546616D+01           0.368211D+00
            S   2   1.00
                  0.100915D+02          -0.100084D+00
                  0.110429D+01           0.500000D+00
            S   1   1.00
                  0.448082D+00           1.0000000
            S   1   1.00
                  0.175325D+00           1.0000000
            P   4   1.00
                  0.608220D+02           0.908253D-02
                  0.140332D+02           0.645878D-01
                  0.418244D+01           0.241502D+00
                  0.142490D+01           0.500000D+00
            P   1   1.00
                  0.478741D+00           1.0000000
            P   1   1.00
                  0.146257D+00           1.0000000
            D   1   1.00
                  0.220000D+01           1.0000000
            D   1   1.00
                  0.650000D+00           1.0000000
            F   1   1.00
                  0.110000D+01           1.0000000
            ****
            -N     0
            S   7   1.00
                  0.101643D+05           0.682757D-03
                  0.152481D+04           0.527488D-02
                  0.347119D+03           0.270037D-01
                  0.982389D+02           0.103673D+00
                  0.317799D+02           0.289575D+00
                  0.112240D+02           0.500000D+00
                  0.406611D+01           0.364621D+00
            S   2   1.00
                  0.747898D+01          -0.975681D-01
                  0.805040D+00           0.500000D+00
            S   1   1.00
                  0.324626D+00           1.0000000
            S   1   1.00
                  0.128132D+00           1.0000000
            P   4   1.00
                  0.482704D+02           0.829547D-02
                  0.110815D+02           0.596223D-01
                  0.326643D+01           0.227889D+00
                  0.111680D+01           0.500000D+00
            P   1   1.00
                  0.382049D+00           1.0000000
            P   1   1.00
                  0.121222D+00           1.0000000
            D   1   1.00
                  0.180000D+01           1.0000000
            D   1   1.00
                  0.550000D+00           1.0000000
            F   1   1.00
                  0.102000D+01           1.0000000
            ****
            -F     0
            S   7   1.00
                  0.174507D+05           0.655972D-03
                  0.261768D+04           0.506944D-02
                  0.595857D+03           0.259899D-01
                  0.168651D+03           0.100353D+00
                  0.546654D+02           0.284095D+00
                  0.193717D+02           0.500000D+00
                  0.706202D+01           0.370721D+00
            S   2   1.00
                  0.131197D+02          -0.101997D+00
                  0.145046D+01           0.500000D+00
            S   1   1.00
                  0.588255D+00           1.0000000
            S   1   1.00
                  0.227960D+00           1.0000000
            P   4   1.00
                  0.779407D+02           0.931135D-02
                  0.180425D+02           0.663964D-01
                  0.542342D+01           0.246386D+00
                  0.184876D+01           0.500000D+00
            P   1   1.00
                  0.617455D+00           1.0000000
            P   1   1.00
                  0.185496D+00           1.0000000
            D   1   1.00
                  0.280000D+01           1.0000000
            D   1   1.00
                  0.800000D+00           1.0000000
            F   1   1.00
                  0.120000D+01           1.0000000
            ****
            -Cl     0
            S   8   1.00
                  0.154272D+06           0.222473D-03
                  0.231232D+05           0.172590D-02
                  0.526257D+04           0.899286D-02
                  0.148995D+04           0.367724D-01
                  0.485417D+03           0.121446D+00
                  0.174634D+03           0.304148D+00
                  0.672393D+02           0.500000D+00
                  0.265780D+02           0.360252D+00
            S   3   1.00
                  0.131826D+03          -0.531330D-01
                  0.400703D+02          -0.233346D+00
                  0.789448D+01           0.500000D+00
            S   2   1.00
                  0.427711D+01           0.500000D+00
                  0.196233D+01           0.370517D+00
            S   1   1.00
                  0.520793D+00           1.0000000
            S   1   1.00
                  0.181633D+00           1.0000000
            P   7   1.00
                  0.124440D+04           0.988206D-03
                  0.295109D+03           0.829674D-02
                  0.947224D+02           0.430906D-01
                  0.352588D+02           0.148443D+00
                  0.144211D+02           0.344744D+00
                  0.610371D+01           0.500000D+00
                  0.258886D+01           0.348278D+00
            P   2   1.00
                  0.109447D+02          -0.196768D-01
                  0.104413D+01           0.500000D+00
            P   1   1.00
                  0.376184D+00           1.0000000
            P   1   1.00
                  0.120613D+00           1.0000000
            D   1   1.00
                  0.231000D+01           1.0000000
            D   1   1.00
                  0.520000D+00           1.0000000
            F   1   1.00
                  0.720000D+00           1.0000000
            ****
            -S     0
            S   8   1.00
                  0.134700D+06           0.226231D-03
                  0.201904D+05           0.175488D-02
                  0.459528D+04           0.914190D-02
                  0.130109D+04           0.373551D-01
                  0.423902D+03           0.123121D+00
                  0.152485D+03           0.306801D+00
                  0.586925D+02           0.500000D+00
                  0.231461D+02           0.354358D+00
            S   3   1.00
                  0.116327D+03          -0.491772D-01
                  0.352841D+02          -0.215962D+00
                  0.677831D+01           0.500000D+00
            S   2   1.00
                  0.360404D+01           0.500000D+00
                  0.164871D+01           0.366278D+00
            S   1   1.00
                  0.421821D+00           1.0000000
            S   1   1.00
                  0.147554D+00           1.0000000
            P   7   1.00
                  0.104863D+04           0.105273D-02
                  0.248717D+03           0.879338D-02
                  0.797887D+02           0.453358D-01
                  0.296023D+02           0.154476D+00
                  0.120627D+02           0.352366D+00
                  0.507628D+01           0.500000D+00
                  0.213375D+01           0.346429D+00
            P   2   1.00
                  0.928958D+01          -0.185932D-01
                  0.837819D+00           0.500000D+00
            P   1   1.00
                  0.301495D+00           1.0000000
            P   1   1.00
                  0.974740D-01           1.0000000
            D   1   1.00
                  0.210000D+01           1.0000000
            D   1   1.00
                  0.480000D+00           1.0000000
            F   1   1.00
                  0.660000D+00           1.0000000
            ****
            -Br     0
            S    10   1.00
                  0.233625D+07           0.532336D-04
                  0.349961D+06           0.413715D-03
                  0.796444D+05           0.217123D-02
                  0.225555D+05           0.910109D-02
                  0.735546D+04           0.323789D-01
                  0.265352D+04           0.988755D-01
                  0.103517D+04           0.248138D+00
                  0.422205D+03           0.474328D+00
                  0.180035D+03           0.500000D+00
                  0.793308D+02           0.187769D+00
            S    4   1.00
                  0.620834D+03          -0.226511D-01
                  0.190829D+03          -0.109497D+00
                  0.312505D+02           0.500000D+00
                  0.135270D+02           0.492812D+00
            S    2   1.00
                  0.216097D+02          -0.165418D+00
                  0.372566D+01           0.500000D+00
            S    1   1.00
                  0.169770D+01           1.0000000
            S    1   1.00
                  0.489332D+00           1.0000000
            S    1   1.00
                  0.175712D+00           1.0000000
            P    8   1.00
                  0.960829D+04           0.478974D-03
                  0.227618D+04           0.417853D-02
                  0.736723D+03           0.229315D-01
                  0.281579D+03           0.892653D-01
                  0.118395D+03           0.255288D+00
                  0.527481D+02           0.479074D+00
                  0.245098D+02           0.500000D+00
                  0.112009D+02           0.200944D+00
            P    4   1.00
                  0.587849D+02          -0.189674D-01
                  0.918962D+01           0.264104D+00
                  0.413895D+01           0.500000D+00
                  0.184225D+01           0.319316D+00
            P    1   1.00
                  0.713862D+00           1.0000000
            P    1   1.00
                  0.274232D+00           1.0000000
            P    1   1.00
                  0.944411D-01           1.0000000
            D    7   1.00
                  0.398470D+03           0.204066D-02
                  0.118967D+03           0.175171D-01
                  0.450197D+02           0.829708D-01
                  0.190320D+02           0.236284D+00
                  0.855686D+01           0.428468D+00
                  0.382950D+01           0.500000D+00
                  0.166291D+01           0.349360D+00
            D    1   1.00
                  0.672953D+00           1.0000000
            D    1   1.00
                  0.252000D+00           1.0000000
            F    1   1.00
                  0.530000D+00           1.0000000
            ****
            -Si     0
            S    8   1.00
                  0.996133D+05           0.235546D-03
                  0.149311D+05           0.182707D-02
                  0.339820D+04           0.951425D-02
                  0.962140D+03           0.388172D-01
                  0.313430D+03           0.127328D+00
                  0.112683D+03           0.313522D+00
                  0.433372D+02           0.500000D+00
                  0.170029D+02           0.340347D+00
            S    3   1.00
                  0.884208D+02          -0.404451D-01
                  0.266756D+02          -0.178059D+00
                  0.479640D+01           0.500000D+00
            S    2   1.00
                  0.239385D+01           0.500000D+00
                  0.108333D+01           0.338016D+00
            S    1   1.00
                  0.252420D+00           1.0000000
            S    1   1.00
                  0.891210D-01           1.0000000
            P    7   1.00
                  0.709901D+03           0.123028D-02
                  0.168426D+03           0.101366D-01
                  0.539946D+02           0.511840D-01
                  0.198646D+02           0.169967D+00
                  0.801369D+01           0.370717D+00
                  0.331870D+01           0.500000D+00
                  0.136112D+01           0.344128D+00
            P    2   1.00
                  0.622158D+01          -0.166609D-01
                  0.503049D+00           0.500000D+00
            P    1   1.00
                  0.179848D+00           1.0000000
            P    1   1.00
                  0.591912D-01           1.0000000
            D    1   1.00
                  0.168000D+01           1.0000000
            D    1   1.00
                  0.380000D+00           1.0000000
            F    1   1.00
                  0.540000D+00           1.0000000
            ****
            -P     0
            S    8   1.00
                  0.116416D+06           0.230715D-03
                  0.174500D+05           0.178960D-02
                  0.397149D+04           0.932116D-02
                  0.112447D+04           0.380591D-01
                  0.366347D+03           0.125148D+00
                  0.131757D+03           0.310022D+00
                  0.506988D+02           0.500000D+00
                  0.199436D+02           0.347528D+00
            S    3   1.00
                  0.101878D+03          -0.446755D-01
                  0.308249D+02          -0.196376D+00
                  0.573688D+01           0.500000D+00
            S    2   1.00
                  0.296868D+01           0.500000D+00
                  0.135315D+01           0.355098D+00
            S    1   1.00
                  0.332196D+00           1.0000000
            S    1   1.00
                  0.116229D+00           1.0000000
            P    7   1.00
                  0.873928D+03           0.112375D-02
                  0.207298D+03           0.933330D-02
                  0.664628D+02           0.477213D-01
                  0.245665D+02           0.160733D+00
                  0.996820D+01           0.359760D+00
                  0.416536D+01           0.500000D+00
                  0.173022D+01           0.346593D+00
            P    2   1.00
                  0.772530D+01          -0.175718D-01
                  0.657252D+00           0.500000D+00
            P    1   1.00
                  0.239903D+00           1.0000000
            P    1   1.00
                  0.800988D-01           1.0000000
            D    1   1.00
                  0.189000D+01           1.0000000
            D    1   1.00
                  0.430000D+00           1.0000000
            F    1   1.00
                  0.600000D+00           1.0000000
            ****
            
 Initial command:
 /usr/local/apps/g16_b01_avx/g16/l1.exe "/wrk/irikura/Gau-490159.inp" -scrdir="/wrk/irikura/"
 Entering Link 1 = /usr/local/apps/g16_b01_avx/g16/l1.exe PID=    490161.
  
 Copyright (c) 1988-2017, Gaussian, Inc.  All Rights Reserved.
  
 This is part of the Gaussian(R) 16 program.  It is based on
 the Gaussian(R) 09 system (copyright 2009, Gaussian, Inc.),
 the Gaussian(R) 03 system (copyright 2003, Gaussian, Inc.),
 the Gaussian(R) 98 system (copyright 1998, Gaussian, Inc.),
 the Gaussian(R) 94 system (copyright 1995, Gaussian, Inc.),
 the Gaussian 92(TM) system (copyright 1992, Gaussian, Inc.),
 the Gaussian 90(TM) system (copyright 1990, Gaussian, Inc.),
 the Gaussian 88(TM) system (copyright 1988, Gaussian, Inc.),
 the Gaussian 86(TM) system (copyright 1986, Carnegie Mellon
 University), and the Gaussian 82(TM) system (copyright 1983,
 Carnegie Mellon University). Gaussian is a federally registered
 trademark of Gaussian, Inc.
  
 This software contains proprietary and confidential information,
 including trade secrets, belonging to Gaussian, Inc.
  
 This software is provided under written license and may be
 used, copied, transmitted, or stored only in accord with that
 written license.
  
 The following legend is applicable only to US Government
 contracts under FAR:
  
                    RESTRICTED RIGHTS LEGEND
  
 Use, reproduction and disclosure by the US Government is
 subject to restrictions as set forth in subparagraphs (a)
 and (c) of the Commercial Computer Software - Restricted
 Rights clause in FAR 52.227-19.
  
 Gaussian, Inc.
 340 Quinnipiac St., Bldg. 40, Wallingford CT 06492
  
  
 ---------------------------------------------------------------
 Warning -- This program may not be used in any manner that
 competes with the business of Gaussian, Inc. or will provide
 assistance to any competitor of Gaussian, Inc.  The licensee
 of this program is prohibited from giving any competitor of
 Gaussian, Inc. access to this program.  By using this program,
 the user acknowledges that Gaussian, Inc. is engaged in the
 business of creating and licensing software in the field of
 computational chemistry and represents and warrants to the
 licensee that it is not a competitor of Gaussian, Inc. and that
 it will not use this program in any manner prohibited above.
 ---------------------------------------------------------------
  

 Cite this work as:
 Gaussian 16, Revision B.01,
 M. J. Frisch, G. W. Trucks, H. B. Schlegel, G. E. Scuseria, 
 M. A. Robb, J. R. Cheeseman, G. Scalmani, V. Barone, 
 G. A. Petersson, H. Nakatsuji, X. Li, M. Caricato, A. V. Marenich, 
 J. Bloino, B. G. Janesko, R. Gomperts, B. Mennucci, H. P. Hratchian, 
 J. V. Ortiz, A. F. Izmaylov, J. L. Sonnenberg, D. Williams-Young, 
 F. Ding, F. Lipparini, F. Egidi, J. Goings, B. Peng, A. Petrone, 
 T. Henderson, D. Ranasinghe, V. G. Zakrzewski, J. Gao, N. Rega, 
 G. Zheng, W. Liang, M. Hada, M. Ehara, K. Toyota, R. Fukuda, 
 J. Hasegawa, M. Ishida, T. Nakajima, Y. Honda, O. Kitao, H. Nakai, 
 T. Vreven, K. Throssell, J. A. Montgomery, Jr., J. E. Peralta, 
 F. Ogliaro, M. J. Bearpark, J. J. Heyd, E. N. Brothers, K. N. Kudin, 
 V. N. Staroverov, T. A. Keith, R. Kobayashi, J. Normand, 
 K. Raghavachari, A. P. Rendell, J. C. Burant, S. S. Iyengar, 
 J. Tomasi, M. Cossi, J. M. Millam, M. Klene, C. Adamo, R. Cammi, 
 J. W. Ochterski, R. L. Martin, K. Morokuma, O. Farkas, 
 J. B. Foresman, and D. J. Fox, Gaussian, Inc., Wallingford CT, 2016.
 
 ******************************************
 Gaussian 16:  ES64L-G16RevB.01 20-Dec-2017
                 1-Oct-2023 
 ******************************************
 %chk=c2h4.chk
 %mem=500mw
 %nprocs=4
 Will use up to    4 processors via shared memory.
 ---------------------------------------
 # b3lyp/gen opt freq CPHF(Grid=OneStep)
 ---------------------------------------
 1/18=20,19=15,26=3,38=1/1,3;
 2/9=110,12=2,17=6,18=5,40=1/2;
 3/5=7,11=2,25=1,30=1,71=1,74=-5/1,2,3;
 4//1;
 5/5=2,38=5/2;
 6/7=2,8=2,9=2,10=2,28=1/1;
 7//1,2,3,16;
 1/18=20,19=15,26=3/3(2);
 2/9=110/2;
 99//99;
 2/9=110/2;
 3/5=7,6=1,11=2,25=1,30=1,71=1,74=-5,82=7/1,2,3;
 4/5=5,16=3,69=1/1;
 5/5=2,38=5/2;
 7//1,2,3,16;
 1/18=20,19=15,26=3/3(-5);
 2/9=110/2;
 6/7=2,8=2,9=2,10=2,19=2,28=1/1;
 99/9=1/99;
 -------------------
 C2H4, B3LYP/pcseg-2
 -------------------
 Symbolic Z-matrix:
 Charge =  0 Multiplicity = 1
 C                     0.        0.        0.66237 
 C                     0.        0.       -0.66237 
 H                     0.        0.92134   1.23136 
 H                     0.       -0.92134   1.23136 
 H                     0.        0.92134  -1.23136 
 H                     0.       -0.92134  -1.23136 
 

 GradGradGradGradGradGradGradGradGradGradGradGradGradGradGradGradGradGrad
 Berny optimization.
 Initialization pass.
                           ----------------------------
                           !    Initial Parameters    !
                           ! (Angstroms and Degrees)  !
 --------------------------                            --------------------------
 ! Name  Definition              Value          Derivative Info.                !
 --------------------------------------------------------------------------------
 ! R1    R(1,2)                  1.3247         estimate D2E/DX2                !
 ! R2    R(1,3)                  1.0829         estimate D2E/DX2                !
 ! R3    R(1,4)                  1.0829         estimate D2E/DX2                !
 ! R4    R(2,5)                  1.0829         estimate D2E/DX2                !
 ! R5    R(2,6)                  1.0829         estimate D2E/DX2                !
 ! A1    A(2,1,3)              121.6983         estimate D2E/DX2                !
 ! A2    A(2,1,4)              121.6983         estimate D2E/DX2                !
 ! A3    A(3,1,4)              116.6034         estimate D2E/DX2                !
 ! A4    A(1,2,5)              121.6983         estimate D2E/DX2                !
 ! A5    A(1,2,6)              121.6983         estimate D2E/DX2                !
 ! A6    A(5,2,6)              116.6034         estimate D2E/DX2                !
 ! D1    D(3,1,2,5)              0.0            estimate D2E/DX2                !
 ! D2    D(3,1,2,6)            180.0            estimate D2E/DX2                !
 ! D3    D(4,1,2,5)            180.0            estimate D2E/DX2                !
 ! D4    D(4,1,2,6)              0.0            estimate D2E/DX2                !
 --------------------------------------------------------------------------------
 Trust Radius=3.00D-01 FncErr=1.00D-07 GrdErr=1.00D-06 EigMax=2.50D+02 EigMin=1.00D-04
 Number of steps in this run=     25 maximum allowed number of steps=    100.
 GradGradGradGradGradGradGradGradGradGradGradGradGradGradGradGradGradGrad

                          Input orientation:                          
 ---------------------------------------------------------------------
 Center     Atomic      Atomic             Coordinates (Angstroms)
 Number     Number       Type             X           Y           Z
 ---------------------------------------------------------------------
      1          6           0        0.000000    0.000000    0.662365
      2          6           0        0.000000    0.000000   -0.662365
      3          1           0        0.000000    0.921339    1.231358
      4          1           0        0.000000   -0.921339    1.231358
      5          1           0        0.000000    0.921339   -1.231358
      6          1           0        0.000000   -0.921339   -1.231358
 ---------------------------------------------------------------------
                    Distance matrix (angstroms):
                    1          2          3          4          5
     1  C    0.000000
     2  C    1.324730   0.000000
     3  H    1.082875   2.105956   0.000000
     4  H    1.082875   2.105956   1.842678   0.000000
     5  H    2.105956   1.082875   2.462716   3.075782   0.000000
     6  H    2.105956   1.082875   3.075782   2.462716   1.842678
                    6
     6  H    0.000000
 Stoichiometry    C2H4
 Framework group  D2H[C2"(C.C),SG(H4)]
 Deg. of freedom     3
 Full point group                 D2H     NOp   8
 Largest Abelian subgroup         D2H     NOp   8
 Largest concise Abelian subgroup D2      NOp   4
                         Standard orientation:                         
 ---------------------------------------------------------------------
 Center     Atomic      Atomic             Coordinates (Angstroms)
 Number     Number       Type             X           Y           Z
 ---------------------------------------------------------------------
      1          6           0        0.000000    0.000000    0.662365
      2          6           0        0.000000    0.000000   -0.662365
      3          1           0        0.000000    0.921339    1.231358
      4          1           0       -0.000000   -0.921339    1.231358
      5          1           0        0.000000    0.921339   -1.231358
      6          1           0       -0.000000   -0.921339   -1.231358
 ---------------------------------------------------------------------
 Rotational constants (GHZ):         147.6839008          30.3678925          25.1884507
 General basis read from cards:  (5D, 7F)
 There are    27 symmetry adapted cartesian basis functions of AG  symmetry.
 There are     7 symmetry adapted cartesian basis functions of B1G symmetry.
 There are    12 symmetry adapted cartesian basis functions of B2G symmetry.
 There are    19 symmetry adapted cartesian basis functions of B3G symmetry.
 There are     7 symmetry adapted cartesian basis functions of AU  symmetry.
 There are    27 symmetry adapted cartesian basis functions of B1U symmetry.
 There are    19 symmetry adapted cartesian basis functions of B2U symmetry.
 There are    12 symmetry adapted cartesian basis functions of B3U symmetry.
 There are    23 symmetry adapted basis functions of AG  symmetry.
 There are     7 symmetry adapted basis functions of B1G symmetry.
 There are    11 symmetry adapted basis functions of B2G symmetry.
 There are    17 symmetry adapted basis functions of B3G symmetry.
 There are     7 symmetry adapted basis functions of AU  symmetry.
 There are    23 symmetry adapted basis functions of B1U symmetry.
 There are    17 symmetry adapted basis functions of B2U symmetry.
 There are    11 symmetry adapted basis functions of B3U symmetry.
   116 basis functions,   174 primitive gaussians,   130 cartesian basis functions
     8 alpha electrons        8 beta electrons
       nuclear repulsion energy        33.4876810358 Hartrees.
 NAtoms=    6 NActive=    6 NUniq=    2 SFac= 4.00D+00 NAtFMM=   60 NAOKFM=F Big=F
 Integral buffers will be    131072 words long.
 Raffenetti 2 integral format.
 Two-electron integral symmetry is turned on.
 One-electron integrals computed using PRISM.
 NBasis=   116 RedAO= T EigKep=  5.58D-04  NBF=    23     7    11    17     7    23    17    11
 NBsUse=   116 1.00D-06 EigRej= -1.00D+00 NBFU=    23     7    11    17     7    23    17    11
 ExpMin= 7.42D-02 ExpMax= 7.32D+03 ExpMxC= 2.50D+02 IAcc=3 IRadAn=         5 AccDes= 0.00D+00
 Harris functional with IExCor=  402 and IRadAn=       5 diagonalized for initial guess.
 HarFok:  IExCor=  402 AccDes= 0.00D+00 IRadAn=         5 IDoV= 1 UseB2=F ITyADJ=14
 ICtDFT=  3500011 ScaDFX=  1.000000  1.000000  1.000000  1.000000
 FoFCou: FMM=F IPFlag=           0 FMFlag=      100000 FMFlg1=           0
         NFxFlg=           0 DoJE=T BraDBF=F KetDBF=T FulRan=T
         wScrn=  0.000000 ICntrl=       500 IOpCl=  0 I1Cent=   200000004 NGrid=           0
         NMat0=    1 NMatS0=      1 NMatT0=    0 NMatD0=    1 NMtDS0=    0 NMtDT0=    0
 Petite list used in FoFCou.
 Initial guess orbital symmetries:
       Occupied  (AG) (B1U) (AG) (B1U) (B2U) (AG) (B3G) (B3U)
       Virtual   (B2G) (AG) (B2U) (B1U) (B3G) (AG) (B3U) (B1U)
                 (B2U) (AG) (B2G) (B1U) (B2U) (AG) (B3G) (B1U)
                 (B1U) (B3G) (B1G) (AU) (B3U) (AG) (B2U) (B3G)
                 (AG) (B1U) (B2U) (B2G) (AG) (B1U) (B3G) (B3U)
                 (B1G) (B3U) (B2U) (B2G) (AG) (B1U) (B1U) (B2G)
                 (AU) (AG) (B2U) (B3G) (B1U) (B3G) (AG) (AG) (B2U)
                 (B1U) (B3G) (B3U) (B1G) (B1U) (B2U) (B3U) (B2G)
                 (AG) (AU) (B2U) (AG) (B3G) (B1U) (B1G) (B3G) (B1G)
                 (B2U) (AU) (B3U) (B1U) (AG) (B2G) (AG) (B2U) (AU)
                 (B1U) (B3G) (B1G) (B2G) (B3U) (AG) (B3G) (B1U)
                 (B2G) (B3U) (B1U) (B2U) (AU) (B2G) (AG) (B3U)
                 (B3G) (B2U) (B1U) (AG) (B1G) (B2G) (AG) (B3G)
                 (B2U) (B1U) (AU) (B3G) (AG) (B1U) (B1U) (B2U)
                 (B3G)
 The electronic state of the initial guess is 1-AG.
 Keep R1 ints in memory in symmetry-blocked form, NReq=26872331.
 Requested convergence on RMS density matrix=1.00D-08 within 128 cycles.
 Requested convergence on MAX density matrix=1.00D-06.
 Requested convergence on             energy=1.00D-06.
 No special actions if energy rises.
 Integral accuracy reduced to 1.0D-05 until final iterations.
 Initial convergence to 1.0D-05 achieved.  Increase integral accuracy.
 SCF Done:  E(RB3LYP) =  -78.6258720706     A.U. after    9 cycles
            NFock=  9  Conv=0.20D-08     -V/T= 2.0045

 **********************************************************************

            Population analysis using the SCF Density.

 **********************************************************************

 Orbital symmetries:
       Occupied  (AG) (B1U) (AG) (B1U) (B2U) (AG) (B3G) (B3U)
       Virtual   (B2G) (AG) (B1U) (B2U) (B3G) (AG) (B3U) (B1U)
                 (AG) (B2U) (B2G) (B2U) (B1U) (AG) (B3G) (B1U)
                 (B1U) (B3G) (B1G) (AU) (B3U) (AG) (B2U) (B3G)
                 (AG) (B2U) (B1U) (B2G) (AG) (B1U) (B3G) (B1G)
                 (B3U) (B3U) (B2U) (B2G) (AG) (B1U) (B1U) (B2G)
                 (AU) (B2U) (AG) (B3G) (B3G) (B1U) (AG) (AG) (B2U)
                 (B1U) (B3G) (B3U) (B1G) (B1U) (B2U) (B2G) (B3U)
                 (AG) (AU) (B2U) (AG) (B3G) (B1U) (B1G) (B3G) (B1G)
                 (B2U) (AU) (B1U) (B3U) (AG) (B2G) (AG) (B2U) (B1U)
                 (AU) (B3G) (B1G) (B2G) (B3U) (B3G) (AG) (B2G)
                 (B1U) (B3U) (B2U) (B1U) (AU) (B2G) (AG) (B3U)
                 (B3G) (B2U) (B1U) (AG) (B1G) (B2G) (B2U) (AG)
                 (B3G) (B1U) (AU) (B3G) (AG) (B1U) (B1U) (B2U)
                 (B3G)
 The electronic state is 1-AG.
 Alpha  occ. eigenvalues --  -10.17372 -10.17275  -0.76663  -0.58451  -0.47566
 Alpha  occ. eigenvalues --   -0.42785  -0.36068  -0.28236
 Alpha virt. eigenvalues --   -0.00794   0.02797   0.05291   0.05441   0.10651
 Alpha virt. eigenvalues --    0.15667   0.17204   0.19677   0.22509   0.23409
 Alpha virt. eigenvalues --    0.25850   0.31747   0.32935   0.34159   0.38066
 Alpha virt. eigenvalues --    0.38808   0.51915   0.54137   0.63267   0.72677
 Alpha virt. eigenvalues --    0.79068   0.82746   0.92580   0.95416   0.98132
 Alpha virt. eigenvalues --    1.01686   1.03021   1.04533   1.06068   1.10596
 Alpha virt. eigenvalues --    1.16064   1.21868   1.23804   1.26854   1.30972
 Alpha virt. eigenvalues --    1.40360   1.46583   1.50716   1.53045   1.62198
 Alpha virt. eigenvalues --    1.63143   1.71874   1.73642   1.76432   1.92297
 Alpha virt. eigenvalues --    1.92634   2.09354   2.26542   2.31278   2.38236
 Alpha virt. eigenvalues --    2.68914   2.98646   3.06935   3.11933   3.28306
 Alpha virt. eigenvalues --    3.37127   3.37815   3.41091   3.44028   3.46406
 Alpha virt. eigenvalues --    3.65398   3.69306   3.77514   3.87464   3.94453
 Alpha virt. eigenvalues --    3.95967   3.98052   4.04063   4.07479   4.07669
 Alpha virt. eigenvalues --    4.11372   4.12961   4.21126   4.24296   4.28372
 Alpha virt. eigenvalues --    4.32532   4.35120   4.35963   4.38881   4.41707
 Alpha virt. eigenvalues --    4.46226   4.47074   4.52631   4.53730   4.54724
 Alpha virt. eigenvalues --    4.63437   4.64127   4.64526   4.95554   5.11187
 Alpha virt. eigenvalues --    5.11722   5.14185   5.20176   5.26531   5.31127
 Alpha virt. eigenvalues --    5.46984   5.56249   5.62341   5.63193   5.63277
 Alpha virt. eigenvalues --    5.65727   5.80965   5.88352   5.93199   6.07392
 Alpha virt. eigenvalues --    6.23073   6.28622   6.98502
          Condensed to atoms (all electrons):
               1          2          3          4          5          6
     1  C    4.692731   0.634047   0.427046   0.427046  -0.042352  -0.042352
     2  C    0.634047   4.692731  -0.042352  -0.042352   0.427046   0.427046
     3  H    0.427046  -0.042352   0.603376  -0.033209  -0.010579   0.007634
     4  H    0.427046  -0.042352  -0.033209   0.603376   0.007634  -0.010579
     5  H   -0.042352   0.427046  -0.010579   0.007634   0.603376  -0.033209
     6  H   -0.042352   0.427046   0.007634  -0.010579  -0.033209   0.603376
 Mulliken charges:
               1
     1  C   -0.096166
     2  C   -0.096166
     3  H    0.048083
     4  H    0.048083
     5  H    0.048083
     6  H    0.048083
 Sum of Mulliken charges =   0.00000
 Mulliken charges with hydrogens summed into heavy atoms:
               1
     1  C    0.000000
     2  C    0.000000
 Electronic spatial extent (au):  <R**2>=             82.8370
 Charge=             -0.0000 electrons
 Dipole moment (field-independent basis, Debye):
    X=              0.0000    Y=              0.0000    Z=              0.0000  Tot=              0.0000
 Quadrupole moment (field-independent basis, Debye-Ang):
   XX=            -15.7696   YY=            -12.4737   ZZ=            -12.4475
   XY=              0.0000   XZ=              0.0000   YZ=              0.0000
 Traceless Quadrupole moment (field-independent basis, Debye-Ang):
   XX=             -2.2060   YY=              1.0899   ZZ=              1.1161
   XY=              0.0000   XZ=              0.0000   YZ=              0.0000
 Octapole moment (field-independent basis, Debye-Ang**2):
  XXX=             -0.0000  YYY=              0.0000  ZZZ=             -0.0000  XYY=             -0.0000
  XXY=              0.0000  XXZ=              0.0000  XZZ=             -0.0000  YZZ=             -0.0000
  YYZ=              0.0000  XYZ=             -0.0000
 Hexadecapole moment (field-independent basis, Debye-Ang**3):
 XXXX=            -20.3304 YYYY=            -28.0175 ZZZZ=            -69.7847 XXXY=             -0.0000
 XXXZ=              0.0000 YYYX=             -0.0000 YYYZ=              0.0000 ZZZX=              0.0000
 ZZZY=             -0.0000 XXYY=             -8.7762 XXZZ=            -15.9694 YYZZ=            -13.7724
 XXYZ=              0.0000 YYXZ=              0.0000 ZZXY=              0.0000
 N-N= 3.348768103584D+01 E-N=-2.488382788479D+02  KE= 7.827304090231D+01
 Symmetry AG   KE= 3.766391434397D+01
 Symmetry B1G  KE=-3.377630859719D-20
 Symmetry B2G  KE= 8.699532613041D-21
 Symmetry B3G  KE= 2.133428314997D+00
 Symmetry AU   KE= 4.152231418553D-22
 Symmetry B1U  KE= 3.447877089173D+01
 Symmetry B2U  KE= 1.919723438097D+00
 Symmetry B3U  KE= 2.077203913511D+00
 Calling FoFJK, ICntrl=      2127 FMM=F ISym2X=1 I1Cent= 0 IOpClX= 0 NMat=1 NMatS=1 NMatT=0.
 ***** Axes restored to original set *****
 -------------------------------------------------------------------
 Center     Atomic                   Forces (Hartrees/Bohr)
 Number     Number              X              Y              Z
 -------------------------------------------------------------------
      1        6          -0.000000000    0.000000000    0.000045238
      2        6          -0.000000000   -0.000000000   -0.000045238
      3        1           0.000000000   -0.000362938   -0.000037791
      4        1           0.000000000    0.000362938   -0.000037791
      5        1          -0.000000000   -0.000362938    0.000037791
      6        1           0.000000000    0.000362938    0.000037791
 -------------------------------------------------------------------
 Cartesian Forces:  Max     0.000362938 RMS     0.000172675

 GradGradGradGradGradGradGradGradGradGradGradGradGradGradGradGradGradGrad
 Berny optimization.
 FormGI is forming the generalized inverse of G from B-inverse, IUseBI=4.
 Internal  Forces:  Max     0.000328654 RMS     0.000195505
 Search for a local minimum.
 Step number   1 out of a maximum of   25
 All quantities printed in internal units (Hartrees-Bohrs-Radians)
 Mixed Optimization -- En-DIIS/RFO-DIIS
 Second derivative matrix not updated -- first step.
 The second derivative matrix:
                          R1        R2        R3        R4        R5
           R1           0.60768
           R2           0.00000   0.35649
           R3           0.00000   0.00000   0.35649
           R4           0.00000   0.00000   0.00000   0.35649
           R5           0.00000   0.00000   0.00000   0.00000   0.35649
           A1           0.00000   0.00000   0.00000   0.00000   0.00000
           A2           0.00000   0.00000   0.00000   0.00000   0.00000
           A3           0.00000   0.00000   0.00000   0.00000   0.00000
           A4           0.00000   0.00000   0.00000   0.00000   0.00000
           A5           0.00000   0.00000   0.00000   0.00000   0.00000
           A6           0.00000   0.00000   0.00000   0.00000   0.00000
           D1           0.00000   0.00000   0.00000   0.00000   0.00000
           D2           0.00000   0.00000   0.00000   0.00000   0.00000
           D3           0.00000   0.00000   0.00000   0.00000   0.00000
           D4           0.00000   0.00000   0.00000   0.00000   0.00000
                          A1        A2        A3        A4        A5
           A1           0.16000
           A2           0.00000   0.16000
           A3           0.00000   0.00000   0.16000
           A4           0.00000   0.00000   0.00000   0.16000
           A5           0.00000   0.00000   0.00000   0.00000   0.16000
           A6           0.00000   0.00000   0.00000   0.00000   0.00000
           D1           0.00000   0.00000   0.00000   0.00000   0.00000
           D2           0.00000   0.00000   0.00000   0.00000   0.00000
           D3           0.00000   0.00000   0.00000   0.00000   0.00000
           D4           0.00000   0.00000   0.00000   0.00000   0.00000
                          A6        D1        D2        D3        D4
           A6           0.16000
           D1           0.00000   0.03084
           D2           0.00000   0.00000   0.03084
           D3           0.00000   0.00000   0.00000   0.03084
           D4           0.00000   0.00000   0.00000   0.00000   0.03084
 ITU=  0
     Eigenvalues ---    0.03084   0.03084   0.03084   0.16000   0.16000
     Eigenvalues ---    0.16000   0.16000   0.35649   0.35649   0.35649
     Eigenvalues ---    0.35649   0.60768
 RFO step:  Lambda=-2.09069899D-06 EMin= 3.08443361D-02
 Linear search not attempted -- first point.
 Iteration  1 RMS(Cart)=  0.00085307 RMS(Int)=  0.00000036
 Iteration  2 RMS(Cart)=  0.00000039 RMS(Int)=  0.00000000
 ClnCor:  largest displacement from symmetrization is 7.78D-14 for atom     6.
 Variable       Old X    -DE/DX   Delta X   Delta X   Delta X     New X
                                 (Linear)    (Quad)   (Total)
    R1        2.50338  -0.00003   0.00000  -0.00005  -0.00005   2.50333
    R2        2.04634  -0.00033   0.00000  -0.00092  -0.00092   2.04542
    R3        2.04634  -0.00033   0.00000  -0.00092  -0.00092   2.04542
    R4        2.04634  -0.00033   0.00000  -0.00092  -0.00092   2.04542
    R5        2.04634  -0.00033   0.00000  -0.00092  -0.00092   2.04542
    A1        2.12404   0.00011   0.00000   0.00068   0.00068   2.12471
    A2        2.12404   0.00011   0.00000   0.00068   0.00068   2.12471
    A3        2.03511  -0.00022   0.00000  -0.00135  -0.00135   2.03376
    A4        2.12404   0.00011   0.00000   0.00068   0.00068   2.12471
    A5        2.12404   0.00011   0.00000   0.00068   0.00068   2.12471
    A6        2.03511  -0.00022   0.00000  -0.00135  -0.00135   2.03376
    D1       -0.00000   0.00000   0.00000   0.00000   0.00000   0.00000
    D2        3.14159  -0.00000   0.00000  -0.00000   0.00000   3.14159
    D3        3.14159   0.00000   0.00000   0.00000   0.00000   3.14159
    D4        0.00000  -0.00000   0.00000  -0.00000   0.00000   0.00000
         Item               Value     Threshold  Converged?
 Maximum Force            0.000329     0.000450     YES
 RMS     Force            0.000196     0.000300     YES
 Maximum Displacement     0.001511     0.001800     YES
 RMS     Displacement     0.000853     0.001200     YES
 Predicted change in Energy=-1.045349D-06
 Optimization completed.
    -- Stationary point found.
                           ----------------------------
                           !   Optimized Parameters   !
                           ! (Angstroms and Degrees)  !
 --------------------------                            --------------------------
 ! Name  Definition              Value          Derivative Info.                !
 --------------------------------------------------------------------------------
 ! R1    R(1,2)                  1.3247         -DE/DX =    0.0                 !
 ! R2    R(1,3)                  1.0829         -DE/DX =   -0.0003              !
 ! R3    R(1,4)                  1.0829         -DE/DX =   -0.0003              !
 ! R4    R(2,5)                  1.0829         -DE/DX =   -0.0003              !
 ! R5    R(2,6)                  1.0829         -DE/DX =   -0.0003              !
 ! A1    A(2,1,3)              121.6983         -DE/DX =    0.0001              !
 ! A2    A(2,1,4)              121.6983         -DE/DX =    0.0001              !
 ! A3    A(3,1,4)              116.6034         -DE/DX =   -0.0002              !
 ! A4    A(1,2,5)              121.6983         -DE/DX =    0.0001              !
 ! A5    A(1,2,6)              121.6983         -DE/DX =    0.0001              !
 ! A6    A(5,2,6)              116.6034         -DE/DX =   -0.0002              !
 ! D1    D(3,1,2,5)              0.0            -DE/DX =    0.0                 !
 ! D2    D(3,1,2,6)            180.0            -DE/DX =    0.0                 !
 ! D3    D(4,1,2,5)            180.0            -DE/DX =    0.0                 !
 ! D4    D(4,1,2,6)              0.0            -DE/DX =    0.0                 !
 --------------------------------------------------------------------------------
 GradGradGradGradGradGradGradGradGradGradGradGradGradGradGradGradGradGrad

                          Input orientation:                          
 ---------------------------------------------------------------------
 Center     Atomic      Atomic             Coordinates (Angstroms)
 Number     Number       Type             X           Y           Z
 ---------------------------------------------------------------------
      1          6           0       -0.000000    0.000000    0.662365
      2          6           0        0.000000    0.000000   -0.662365
      3          1           0       -0.000000    0.921339    1.231358
      4          1           0       -0.000000   -0.921339    1.231358
      5          1           0        0.000000    0.921339   -1.231358
      6          1           0        0.000000   -0.921339   -1.231358
 ---------------------------------------------------------------------
                    Distance matrix (angstroms):
                    1          2          3          4          5
     1  C    0.000000
     2  C    1.324730   0.000000
     3  H    1.082875   2.105956   0.000000
     4  H    1.082875   2.105956   1.842678   0.000000
     5  H    2.105956   1.082875   2.462716   3.075782   0.000000
     6  H    2.105956   1.082875   3.075782   2.462716   1.842678
                    6
     6  H    0.000000
 Stoichiometry    C2H4
 Framework group  D2H[C2"(C.C),SG(H4)]
 Deg. of freedom     3
 Full point group                 D2H     NOp   8
 Largest Abelian subgroup         D2H     NOp   8
 Largest concise Abelian subgroup D2      NOp   4
                         Standard orientation:                         
 ---------------------------------------------------------------------
 Center     Atomic      Atomic             Coordinates (Angstroms)
 Number     Number       Type             X           Y           Z
 ---------------------------------------------------------------------
      1          6           0        0.000000    0.000000    0.662365
      2          6           0        0.000000    0.000000   -0.662365
      3          1           0        0.000000    0.921339    1.231358
      4          1           0       -0.000000   -0.921339    1.231358
      5          1           0        0.000000    0.921339   -1.231358
      6          1           0       -0.000000   -0.921339   -1.231358
 ---------------------------------------------------------------------
 Rotational constants (GHZ):         147.6839008          30.3678925          25.1884507
 1\1\GINC-GAMBA\FOpt\RB3LYP\Gen\C2H4\IRIKURA\01-Oct-2023\0\\# b3lyp/gen
  opt freq CPHF(Grid=OneStep)\\C2H4, B3LYP/pcseg-2\\0,1\C,0.,0.,0.66236
 5\C,0.,0.,-0.662365\H,0.,0.921339,1.231358\H,0.,-0.921339,1.231358\H,0
 .,0.921339,-1.231358\H,0.,-0.921339,-1.231358\\Version=ES64L-G16RevB.0
 1\State=1-AG\HF=-78.6258721\RMSD=1.968e-09\RMSF=1.727e-04\Dipole=0.,0.
 ,0.\Quadrupole=-1.6401065,0.8103191,0.8297874,0.,0.,0.\PG=D02H [C2"(C1
 .C1),SG(H4)]\\@


 I DO NOT KNOW WHAT I MAY APPEAR TO THE WORLD; BUT TO MYSELF
 I SEEM TO HAVE BEEN ONLY LIKE A BOY PLAYING ON THE SEASHORE,
 AND DIVERTING MYSELF IN NOW AND THEN FINDING A SMOOTHER PEBBLE
 OR A PRETTIER SHELL THAN ORDINARY, WHILST THE GREAT OCEAN OF
 TRUTH LAY ALL UNDISCOVERED BEFORE ME.
                                          -- NEWTON (1642-1726)
 Job cpu time:       0 days  0 hours  0 minutes 13.0 seconds.
 Elapsed time:       0 days  0 hours  0 minutes  3.3 seconds.
 File lengths (MBytes):  RWF=     10 Int=      0 D2E=      0 Chk=      2 Scr=      1
 Normal termination of Gaussian 16 at Sun Oct  1 00:04:06 2023.
 Link1:  Proceeding to internal job step number  2.
 ------------------------------------------------------------------
 #N Geom=AllCheck Guess=TCheck SCRF=Check GenChk RB3LYP/ChkBas Freq
 ------------------------------------------------------------------
 1/10=4,29=7,30=1,38=1,40=1/1,3;
 2/12=2,40=1/2;
 3/5=7,6=2,11=2,14=-4,25=1,30=1,67=1,70=2,71=2,74=-5,82=7,116=1,140=1/1,2,3;
 4/5=101/1;
 5/5=2,38=6,98=1/2;
 8/6=4,10=90,11=11/1;
 11/6=1,8=1,9=11,15=111,16=1/1,2,10;
 10/6=1,60=-420/2;
 6/7=2,8=2,9=2,10=2,28=1/1;
 7/8=1,10=1,25=1/1,2,3,16;
 1/10=4,30=1/3;
 99//99;
 Structure from the checkpoint file:  "c2h4.chk"
 -------------------
 C2H4, B3LYP/pcseg-2
 -------------------
 Charge =  0 Multiplicity = 1
 Redundant internal coordinates found in file.  (old form).
 C,0,0.,0.,0.662365
 C,0,0.,0.,-0.662365
 H,0,0.,0.921339,1.231358
 H,0,0.,-0.921339,1.231358
 H,0,0.,0.921339,-1.231358
 H,0,0.,-0.921339,-1.231358
 Recover connectivity data from disk.

 GradGradGradGradGradGradGradGradGradGradGradGradGradGradGradGradGradGrad
 Berny optimization.
 Initialization pass.
                           ----------------------------
                           !    Initial Parameters    !
                           ! (Angstroms and Degrees)  !
 --------------------------                            --------------------------
 ! Name  Definition              Value          Derivative Info.                !
 --------------------------------------------------------------------------------
 ! R1    R(1,2)                  1.3247         calculate D2E/DX2 analytically  !
 ! R2    R(1,3)                  1.0829         calculate D2E/DX2 analytically  !
 ! R3    R(1,4)                  1.0829         calculate D2E/DX2 analytically  !
 ! R4    R(2,5)                  1.0829         calculate D2E/DX2 analytically  !
 ! R5    R(2,6)                  1.0829         calculate D2E/DX2 analytically  !
 ! A1    A(2,1,3)              121.6983         calculate D2E/DX2 analytically  !
 ! A2    A(2,1,4)              121.6983         calculate D2E/DX2 analytically  !
 ! A3    A(3,1,4)              116.6034         calculate D2E/DX2 analytically  !
 ! A4    A(1,2,5)              121.6983         calculate D2E/DX2 analytically  !
 ! A5    A(1,2,6)              121.6983         calculate D2E/DX2 analytically  !
 ! A6    A(5,2,6)              116.6034         calculate D2E/DX2 analytically  !
 ! D1    D(3,1,2,5)              0.0            calculate D2E/DX2 analytically  !
 ! D2    D(3,1,2,6)            180.0            calculate D2E/DX2 analytically  !
 ! D3    D(4,1,2,5)            180.0            calculate D2E/DX2 analytically  !
 ! D4    D(4,1,2,6)              0.0            calculate D2E/DX2 analytically  !
 --------------------------------------------------------------------------------
 Trust Radius=3.00D-01 FncErr=1.00D-07 GrdErr=1.00D-07 EigMax=2.50D+02 EigMin=1.00D-04
 Number of steps in this run=      2 maximum allowed number of steps=      2.
 GradGradGradGradGradGradGradGradGradGradGradGradGradGradGradGradGradGrad

                          Input orientation:                          
 ---------------------------------------------------------------------
 Center     Atomic      Atomic             Coordinates (Angstroms)
 Number     Number       Type             X           Y           Z
 ---------------------------------------------------------------------
      1          6           0       -0.000000    0.000000    0.662365
      2          6           0        0.000000   -0.000000   -0.662365
      3          1           0       -0.000000    0.921339    1.231358
      4          1           0       -0.000000   -0.921339    1.231358
      5          1           0        0.000000    0.921339   -1.231358
      6          1           0        0.000000   -0.921339   -1.231358
 ---------------------------------------------------------------------
                    Distance matrix (angstroms):
                    1          2          3          4          5
     1  C    0.000000
     2  C    1.324730   0.000000
     3  H    1.082875   2.105956   0.000000
     4  H    1.082875   2.105956   1.842678   0.000000
     5  H    2.105956   1.082875   2.462716   3.075782   0.000000
     6  H    2.105956   1.082875   3.075782   2.462716   1.842678
                    6
     6  H    0.000000
 Stoichiometry    C2H4
 Framework group  D2H[C2"(C.C),SG(H4)]
 Deg. of freedom     3
 Full point group                 D2H     NOp   8
 Largest Abelian subgroup         D2H     NOp   8
 Largest concise Abelian subgroup D2      NOp   4
                         Standard orientation:                         
 ---------------------------------------------------------------------
 Center     Atomic      Atomic             Coordinates (Angstroms)
 Number     Number       Type             X           Y           Z
 ---------------------------------------------------------------------
      1          6           0        0.000000    0.000000    0.662365
      2          6           0        0.000000    0.000000   -0.662365
      3          1           0       -0.000000    0.921339    1.231358
      4          1           0       -0.000000   -0.921339    1.231358
      5          1           0        0.000000    0.921339   -1.231358
      6          1           0       -0.000000   -0.921339   -1.231358
 ---------------------------------------------------------------------
 Rotational constants (GHZ):         147.6839008          30.3678925          25.1884507
 Basis read from chk: "c2h4.chk" (5D, 7F)
 There are    27 symmetry adapted cartesian basis functions of AG  symmetry.
 There are     7 symmetry adapted cartesian basis functions of B1G symmetry.
 There are    12 symmetry adapted cartesian basis functions of B2G symmetry.
 There are    19 symmetry adapted cartesian basis functions of B3G symmetry.
 There are     7 symmetry adapted cartesian basis functions of AU  symmetry.
 There are    27 symmetry adapted cartesian basis functions of B1U symmetry.
 There are    19 symmetry adapted cartesian basis functions of B2U symmetry.
 There are    12 symmetry adapted cartesian basis functions of B3U symmetry.
 There are    23 symmetry adapted basis functions of AG  symmetry.
 There are     7 symmetry adapted basis functions of B1G symmetry.
 There are    11 symmetry adapted basis functions of B2G symmetry.
 There are    17 symmetry adapted basis functions of B3G symmetry.
 There are     7 symmetry adapted basis functions of AU  symmetry.
 There are    23 symmetry adapted basis functions of B1U symmetry.
 There are    17 symmetry adapted basis functions of B2U symmetry.
 There are    11 symmetry adapted basis functions of B3U symmetry.
   116 basis functions,   174 primitive gaussians,   130 cartesian basis functions
     8 alpha electrons        8 beta electrons
       nuclear repulsion energy        33.4876810358 Hartrees.
 NAtoms=    6 NActive=    6 NUniq=    2 SFac= 4.00D+00 NAtFMM=   60 NAOKFM=F Big=F
 Integral buffers will be    131072 words long.
 Raffenetti 2 integral format.
 Two-electron integral symmetry is turned on.
 One-electron integrals computed using PRISM.
 NBasis=   116 RedAO= T EigKep=  5.58D-04  NBF=    23     7    11    17     7    23    17    11
 NBsUse=   116 1.00D-06 EigRej= -1.00D+00 NBFU=    23     7    11    17     7    23    17    11
 Initial guess from the checkpoint file:  "c2h4.chk"
 B after Tr=     0.000000    0.000000    0.000000
         Rot=    1.000000    0.000000   -0.000000   -0.000000 Ang=   0.00 deg.
 Initial guess orbital symmetries:
       Occupied  (AG) (B1U) (AG) (B1U) (B2U) (AG) (B3G) (B3U)
       Virtual   (B2G) (AG) (B1U) (B2U) (B3G) (AG) (B3U) (B1U)
                 (AG) (B2U) (B2G) (B2U) (B1U) (AG) (B3G) (B1U)
                 (B1U) (B3G) (B1G) (AU) (B3U) (AG) (B2U) (B3G)
                 (AG) (B2U) (B1U) (B2G) (AG) (B1U) (B3G) (B1G)
                 (B3U) (B3U) (B2U) (B2G) (AG) (B1U) (B1U) (B2G)
                 (AU) (B2U) (AG) (B3G) (B3G) (B1U) (AG) (AG) (B2U)
                 (B1U) (B3G) (B3U) (B1G) (B1U) (B2U) (B2G) (B3U)
                 (AG) (AU) (B2U) (AG) (B3G) (B1U) (B1G) (B3G) (B1G)
                 (B2U) (AU) (B1U) (B3U) (AG) (B2G) (AG) (B2U) (B1U)
                 (AU) (B3G) (B1G) (B2G) (B3U) (B3G) (AG) (B2G)
                 (B1U) (B3U) (B2U) (B1U) (AU) (B2G) (AG) (B3U)
                 (B3G) (B2U) (B1U) (AG) (B1G) (B2G) (B2U) (AG)
                 (B3G) (B1U) (AU) (B3G) (AG) (B1U) (B1U) (B2U)
                 (B3G)
 Keep R1 ints in memory in symmetry-blocked form, NReq=26872331.
 Requested convergence on RMS density matrix=1.00D-08 within 128 cycles.
 Requested convergence on MAX density matrix=1.00D-06.
 Requested convergence on             energy=1.00D-06.
 No special actions if energy rises.
 SCF Done:  E(RB3LYP) =  -78.6258720706     A.U. after    1 cycles
            NFock=  1  Conv=0.32D-09     -V/T= 2.0045
 DoSCS=F DFT=T ScalE2(SS,OS)=  1.000000  1.000000
 Range of M.O.s used for correlation:     1   116
 NBasis=   116 NAE=     8 NBE=     8 NFC=     0 NFV=     0
 NROrb=    116 NOA=     8 NOB=     8 NVA=   108 NVB=   108

 **** Warning!!: The largest alpha MO coefficient is  0.12292366D+02

 Symmetrizing basis deriv contribution to polar:
 IMax=3 JMax=2 DiffMx= 0.00D+00
 G2DrvN: will do     7 centers at a time, making    1 passes.
 Calling FoFCou, ICntrl=  3107 FMM=F I1Cent=   0 AccDes= 0.00D+00.
 End of G2Drv F.D. properties file   721 does not exist.
 End of G2Drv F.D. properties file   722 does not exist.
 End of G2Drv F.D. properties file   788 does not exist.
          IDoAtm=111111
          Differentiating once with respect to electric field.
                with respect to dipole field.
          Differentiating once with respect to nuclear coordinates.
 Keep R1 ints in memory in symmetry-blocked form, NReq=26869204.
          There are     9 degrees of freedom in the 1st order CPHF.  IDoFFX=4 NUNeed=     9.
      9 vectors produced by pass  0 Test12= 9.60D-15 1.11D-08 XBig12= 3.64D+01 5.15D+00.
 AX will form     9 AO Fock derivatives at one time.
      9 vectors produced by pass  1 Test12= 9.60D-15 1.11D-08 XBig12= 1.06D+01 1.34D+00.
      9 vectors produced by pass  2 Test12= 9.60D-15 1.11D-08 XBig12= 7.18D-01 3.75D-01.
      9 vectors produced by pass  3 Test12= 9.60D-15 1.11D-08 XBig12= 4.46D-03 2.09D-02.
      9 vectors produced by pass  4 Test12= 9.60D-15 1.11D-08 XBig12= 3.26D-05 1.68D-03.
      8 vectors produced by pass  5 Test12= 9.60D-15 1.11D-08 XBig12= 5.95D-08 8.13D-05.
      4 vectors produced by pass  6 Test12= 9.60D-15 1.11D-08 XBig12= 4.59D-11 1.78D-06.
      1 vectors produced by pass  7 Test12= 9.60D-15 1.11D-08 XBig12= 5.12D-14 4.86D-08.
 InvSVY:  IOpt=1 It=  1 EMax= 4.44D-16
 Solved reduced A of dimension    58 with     9 vectors.
 Isotropic polarizability for W=    0.000000       25.24 Bohr**3.
 End of Minotr F.D. properties file   721 does not exist.
 End of Minotr F.D. properties file   722 does not exist.
 End of Minotr F.D. properties file   788 does not exist.

 **********************************************************************

            Population analysis using the SCF Density.

 **********************************************************************

 Orbital symmetries:
       Occupied  (AG) (B1U) (AG) (B1U) (B2U) (AG) (B3G) (B3U)
       Virtual   (B2G) (AG) (B1U) (B2U) (B3G) (AG) (B3U) (B1U)
                 (AG) (B2U) (B2G) (B2U) (B1U) (AG) (B3G) (B1U)
                 (B1U) (B3G) (B1G) (AU) (B3U) (AG) (B2U) (B3G)
                 (AG) (B2U) (B1U) (B2G) (AG) (B1U) (B3G) (B1G)
                 (B3U) (B3U) (B2U) (B2G) (AG) (B1U) (B1U) (B2G)
                 (AU) (B2U) (AG) (B3G) (B3G) (B1U) (AG) (AG) (B2U)
                 (B1U) (B3G) (B3U) (B1G) (B1U) (B2U) (B2G) (B3U)
                 (AG) (AU) (B2U) (AG) (B3G) (B1U) (B1G) (B3G) (B1G)
                 (B2U) (AU) (B1U) (B3U) (AG) (B2G) (AG) (B2U) (B1U)
                 (AU) (B3G) (B1G) (B2G) (B3U) (B3G) (AG) (B2G)
                 (B1U) (B3U) (B2U) (B1U) (AU) (B2G) (AG) (B3U)
                 (B3G) (B2U) (B1U) (AG) (B1G) (B2G) (B2U) (AG)
                 (B3G) (B1U) (AU) (B3G) (AG) (B1U) (B1U) (B2U)
                 (B3G)
 The electronic state is 1-AG.
 Alpha  occ. eigenvalues --  -10.17372 -10.17275  -0.76663  -0.58451  -0.47566
 Alpha  occ. eigenvalues --   -0.42785  -0.36068  -0.28236
 Alpha virt. eigenvalues --   -0.00794   0.02797   0.05291   0.05441   0.10651
 Alpha virt. eigenvalues --    0.15667   0.17204   0.19677   0.22509   0.23409
 Alpha virt. eigenvalues --    0.25850   0.31747   0.32935   0.34159   0.38066
 Alpha virt. eigenvalues --    0.38808   0.51915   0.54137   0.63267   0.72677
 Alpha virt. eigenvalues --    0.79068   0.82746   0.92580   0.95416   0.98132
 Alpha virt. eigenvalues --    1.01686   1.03021   1.04533   1.06068   1.10596
 Alpha virt. eigenvalues --    1.16064   1.21868   1.23804   1.26854   1.30972
 Alpha virt. eigenvalues --    1.40360   1.46583   1.50716   1.53045   1.62198
 Alpha virt. eigenvalues --    1.63143   1.71874   1.73642   1.76432   1.92297
 Alpha virt. eigenvalues --    1.92634   2.09354   2.26542   2.31278   2.38236
 Alpha virt. eigenvalues --    2.68914   2.98646   3.06935   3.11933   3.28306
 Alpha virt. eigenvalues --    3.37127   3.37815   3.41091   3.44028   3.46406
 Alpha virt. eigenvalues --    3.65398   3.69306   3.77514   3.87464   3.94453
 Alpha virt. eigenvalues --    3.95967   3.98052   4.04063   4.07479   4.07669
 Alpha virt. eigenvalues --    4.11372   4.12961   4.21126   4.24296   4.28372
 Alpha virt. eigenvalues --    4.32532   4.35120   4.35963   4.38881   4.41707
 Alpha virt. eigenvalues --    4.46226   4.47074   4.52631   4.53730   4.54724
 Alpha virt. eigenvalues --    4.63437   4.64127   4.64526   4.95554   5.11187
 Alpha virt. eigenvalues --    5.11722   5.14185   5.20176   5.26531   5.31127
 Alpha virt. eigenvalues --    5.46984   5.56249   5.62341   5.63193   5.63277
 Alpha virt. eigenvalues --    5.65727   5.80965   5.88352   5.93199   6.07392
 Alpha virt. eigenvalues --    6.23073   6.28622   6.98502
          Condensed to atoms (all electrons):
               1          2          3          4          5          6
     1  C    4.692731   0.634047   0.427046   0.427046  -0.042352  -0.042352
     2  C    0.634047   4.692731  -0.042352  -0.042352   0.427046   0.427046
     3  H    0.427046  -0.042352   0.603376  -0.033209  -0.010579   0.007634
     4  H    0.427046  -0.042352  -0.033209   0.603376   0.007634  -0.010579
     5  H   -0.042352   0.427046  -0.010579   0.007634   0.603376  -0.033209
     6  H   -0.042352   0.427046   0.007634  -0.010579  -0.033209   0.603376
 Mulliken charges:
               1
     1  C   -0.096166
     2  C   -0.096166
     3  H    0.048083
     4  H    0.048083
     5  H    0.048083
     6  H    0.048083
 Sum of Mulliken charges =   0.00000
 Mulliken charges with hydrogens summed into heavy atoms:
               1
     1  C    0.000000
     2  C    0.000000
 APT charges:
               1
     1  C   -0.068425
     2  C   -0.068425
     3  H    0.034213
     4  H    0.034213
     5  H    0.034213
     6  H    0.034213
 Sum of APT charges =  -0.00000
 APT charges with hydrogens summed into heavy atoms:
               1
     1  C    0.000000
     2  C   -0.000000
 Electronic spatial extent (au):  <R**2>=             82.8370
 Charge=             -0.0000 electrons
 Dipole moment (field-independent basis, Debye):
    X=              0.0000    Y=              0.0000    Z=              0.0000  Tot=              0.0000
 Quadrupole moment (field-independent basis, Debye-Ang):
   XX=            -15.7696   YY=            -12.4737   ZZ=            -12.4475
   XY=              0.0000   XZ=              0.0000   YZ=              0.0000
 Traceless Quadrupole moment (field-independent basis, Debye-Ang):
   XX=             -2.2060   YY=              1.0899   ZZ=              1.1161
   XY=              0.0000   XZ=              0.0000   YZ=              0.0000
 Octapole moment (field-independent basis, Debye-Ang**2):
  XXX=             -0.0000  YYY=             -0.0000  ZZZ=              0.0000  XYY=             -0.0000
  XXY=             -0.0000  XXZ=              0.0000  XZZ=             -0.0000  YZZ=             -0.0000
  YYZ=              0.0000  XYZ=             -0.0000
 Hexadecapole moment (field-independent basis, Debye-Ang**3):
 XXXX=            -20.3304 YYYY=            -28.0175 ZZZZ=            -69.7847 XXXY=             -0.0000
 XXXZ=              0.0000 YYYX=             -0.0000 YYYZ=             -0.0000 ZZZX=              0.0000
 ZZZY=             -0.0000 XXYY=             -8.7762 XXZZ=            -15.9694 YYZZ=            -13.7724
 XXYZ=              0.0000 YYXZ=              0.0000 ZZXY=              0.0000
 N-N= 3.348768103584D+01 E-N=-2.488382791490D+02  KE= 7.827304097774D+01
 Symmetry AG   KE= 3.766391436589D+01
 Symmetry B1G  KE= 3.469437906021D-20
 Symmetry B2G  KE= 6.364474493871D-20
 Symmetry B3G  KE= 2.133428314175D+00
 Symmetry AU   KE= 8.087897096599D-20
 Symmetry B1U  KE= 3.447877088968D+01
 Symmetry B2U  KE= 1.919723431097D+00
 Symmetry B3U  KE= 2.077203976898D+00
  Exact polarizability:  17.995   0.000  22.496  -0.000  -0.000  35.227
 Approx polarizability:  23.573   0.000  28.650  -0.000  -0.000  52.275
 Calling FoFJK, ICntrl=    100127 FMM=F ISym2X=1 I1Cent= 0 IOpClX= 0 NMat=1 NMatS=1 NMatT=0.
 Full mass-weighted force constant matrix:
 Low frequencies ---    0.0002    0.0011    0.0014    8.9189   32.2974   74.1757
 Low frequencies ---  839.2562  981.6418  989.7441
 Diagonal vibrational polarizability:
        2.9691036       0.0697275       0.1686746
 Harmonic frequencies (cm**-1), IR intensities (KM/Mole), Raman scattering
 activities (A**4/AMU), depolarization ratios for plane and unpolarized
 incident light, reduced masses (AMU), force constants (mDyne/A),
 and normal coordinates:
                      1                      2                      3
                     B2U                    B3U                    B2G
 Frequencies --    839.2562               981.6418               989.7441
 Red. masses --      1.0426                 1.1607                 1.5188
 Frc consts  --      0.4327                 0.6590                 0.8766
 IR Inten    --      0.2850               106.3159                 0.0000
  Atom  AN      X      Y      Z        X      Y      Z        X      Y      Z
     1   6    -0.00   0.04   0.00    -0.08  -0.00  -0.00     0.15   0.00  -0.00
     2   6     0.00   0.04  -0.00    -0.08  -0.00  -0.00    -0.15   0.00   0.00
     3   1     0.00  -0.24   0.44     0.50  -0.00   0.00    -0.49  -0.00   0.00
     4   1     0.00  -0.24  -0.44     0.50   0.00  -0.00    -0.49  -0.00  -0.00
     5   1    -0.00  -0.24  -0.44     0.50   0.00  -0.00     0.49  -0.00  -0.00
     6   1    -0.00  -0.24   0.44     0.50   0.00   0.00     0.49   0.00   0.00
                      4                      5                      6
                     AU                     B3G                    AG
 Frequencies --   1065.8180              1248.1432              1381.6498
 Red. masses --      1.0078                 1.5264                 1.2252
 Frc consts  --      0.6745                 1.4011                 1.3780
 IR Inten    --      0.0000                 0.0000                 0.0000
  Atom  AN      X      Y      Z        X      Y      Z        X      Y      Z
     1   6    -0.00  -0.00  -0.00     0.00   0.15   0.00     0.00  -0.00   0.10
     2   6     0.00   0.00  -0.00    -0.00  -0.15   0.00    -0.00  -0.00  -0.10
     3   1     0.50   0.00  -0.00     0.00  -0.14   0.47     0.00  -0.20   0.45
     4   1    -0.50  -0.00   0.00    -0.00  -0.14  -0.47    -0.00   0.20   0.45
     5   1    -0.50  -0.00   0.00     0.00   0.14   0.47    -0.00  -0.20  -0.45
     6   1     0.50   0.00   0.00     0.00   0.14  -0.47     0.00   0.20  -0.45
                      7                      8                      9
                     B1U                    AG                     B1U
 Frequencies --   1479.3777              1689.6377              3126.1695
 Red. masses --      1.1120                 3.1373                 1.0477
 Frc consts  --      1.4338                 5.2771                 6.0329
 IR Inten    --      9.9181                 0.0000                16.9661
  Atom  AN      X      Y      Z        X      Y      Z        X      Y      Z
     1   6     0.00   0.00  -0.07     0.00  -0.00   0.31    -0.00   0.00  -0.04
     2   6     0.00  -0.00  -0.07    -0.00  -0.00  -0.31     0.00  -0.00  -0.04
     3   1    -0.00  -0.28   0.41    -0.00   0.38  -0.24    -0.00   0.43   0.25
     4   1     0.00   0.28   0.41     0.00  -0.38  -0.24     0.00  -0.43   0.25
     5   1     0.00   0.28   0.41     0.00   0.38   0.24     0.00  -0.43   0.25
     6   1    -0.00  -0.28   0.41     0.00  -0.38   0.24    -0.00   0.43   0.25
                     10                     11                     12
                     AG                     B3G                    B2U
 Frequencies --   3139.3689              3196.3780              3224.8477
 Red. masses --      1.0720                 1.1143                 1.1178
 Frc consts  --      6.2246                 6.7075                 6.8489
 IR Inten    --      0.0000                 0.0000                22.7378
  Atom  AN      X      Y      Z        X      Y      Z        X      Y      Z
     1   6    -0.00  -0.00  -0.05     0.00  -0.07  -0.00     0.00  -0.07   0.00
     2   6    -0.00  -0.00   0.05    -0.00   0.07  -0.00     0.00  -0.07  -0.00
     3   1     0.00   0.43   0.26     0.00   0.42   0.27    -0.00   0.42   0.27
     4   1     0.00  -0.43   0.26    -0.00   0.42  -0.27    -0.00   0.42  -0.27
     5   1     0.00   0.43  -0.26     0.00  -0.42   0.27    -0.00   0.42  -0.27
     6   1     0.00  -0.43  -0.26     0.00  -0.42  -0.27    -0.00   0.42   0.27

 -------------------
 - Thermochemistry -
 -------------------
 Temperature   298.150 Kelvin.  Pressure   1.00000 Atm.
 Atom     1 has atomic number  6 and mass  12.00000
 Atom     2 has atomic number  6 and mass  12.00000
 Atom     3 has atomic number  1 and mass   1.00783
 Atom     4 has atomic number  1 and mass   1.00783
 Atom     5 has atomic number  1 and mass   1.00783
 Atom     6 has atomic number  1 and mass   1.00783
 Molecular mass:    28.03130 amu.
 Principal axes and moments of inertia in atomic units:
                           1         2         3
     Eigenvalues --    12.22030  59.42925  71.64955
           X            0.00000   0.00000   1.00000
           Y            0.00000   1.00000   0.00000
           Z            1.00000  -0.00000  -0.00000
 This molecule is an asymmetric top.
 Rotational symmetry number  4.
 Rotational temperatures (Kelvin)      7.08771     1.45743     1.20886
 Rotational constants (GHZ):         147.68390    30.36789    25.18845
 Zero-point vibrational energy     133754.7 (Joules/Mol)
                                   31.96813 (Kcal/Mol)
 Vibrational temperatures:   1207.50  1412.36  1424.02  1533.47  1795.80
          (Kelvin)           1987.89  2128.49  2431.01  4497.86  4516.85
                             4598.88  4639.84
 
 Zero-point correction=                           0.050944 (Hartree/Particle)
 Thermal correction to Energy=                    0.053981
 Thermal correction to Enthalpy=                  0.054925
 Thermal correction to Gibbs Free Energy=         0.030083
 Sum of electronic and zero-point Energies=            -78.574928
 Sum of electronic and thermal Energies=               -78.571891
 Sum of electronic and thermal Enthalpies=             -78.570947
 Sum of electronic and thermal Free Energies=          -78.595789
 
                     E (Thermal)             CV                S
                      KCal/Mol        Cal/Mol-Kelvin    Cal/Mol-Kelvin
 Total                   33.873              8.054             52.284
 Electronic               0.000              0.000              0.000
 Translational            0.889              2.981             35.927
 Rotational               0.889              2.981             15.838
 Vibrational             32.096              2.092              0.519
                       Q            Log10(Q)             Ln(Q)
 Total Bot       0.145479D-13        -13.837201        -31.861332
 Total V=0       0.394097D+10          9.595603         22.094693
 Vib (Bot)       0.386320D-23        -23.413053        -53.910546
 Vib (V=0)       0.104653D+01          0.019751          0.045478
 Electronic      0.100000D+01          0.000000          0.000000
 Translational   0.583336D+07          6.765919         15.579104
 Rotational      0.645555D+03          2.809933          6.470111
 ***** Axes restored to original set *****
 -------------------------------------------------------------------
 Center     Atomic                   Forces (Hartrees/Bohr)
 Number     Number              X              Y              Z
 -------------------------------------------------------------------
      1        6           0.000000000    0.000000000    0.000045254
      2        6          -0.000000000   -0.000000000   -0.000045254
      3        1          -0.000000000   -0.000362937   -0.000037788
      4        1           0.000000000    0.000362937   -0.000037788
      5        1          -0.000000000   -0.000362937    0.000037788
      6        1           0.000000000    0.000362937    0.000037788
 -------------------------------------------------------------------
 Cartesian Forces:  Max     0.000362937 RMS     0.000172675
 FormGI is forming the generalized inverse of G from B-inverse, IUseBI=4.

 GradGradGradGradGradGradGradGradGradGradGradGradGradGradGradGradGradGrad
 Berny optimization.
 Internal  Forces:  Max     0.000328652 RMS     0.000195504
 Search for a local minimum.
 Step number   1 out of a maximum of    2
 All quantities printed in internal units (Hartrees-Bohrs-Radians)
 Second derivative matrix not updated -- analytic derivatives used.
 The second derivative matrix:
                          R1        R2        R3        R4        R5
           R1           0.63154
           R2           0.00751   0.35514
           R3           0.00751   0.00239   0.35514
           R4           0.00751   0.00080  -0.00056   0.35514
           R5           0.00751  -0.00056   0.00080   0.00239   0.35514
           A1           0.01103   0.00517  -0.01175  -0.00340   0.00435
           A2           0.01103  -0.01175   0.00517   0.00435  -0.00340
           A3          -0.02205   0.00658   0.00658  -0.00094  -0.00094
           A4           0.01103  -0.00340   0.00435   0.00517  -0.01175
           A5           0.01103   0.00435  -0.00340  -0.01175   0.00517
           A6          -0.02205  -0.00094  -0.00094   0.00658   0.00658
           D1           0.00000   0.00000  -0.00000  -0.00000  -0.00000
           D2          -0.00000   0.00000  -0.00000   0.00000  -0.00000
           D3          -0.00000   0.00000   0.00000  -0.00000   0.00000
           D4          -0.00000   0.00000   0.00000  -0.00000  -0.00000
                          A1        A2        A3        A4        A5
           A1           0.08145
           A2          -0.04538   0.08145
           A3          -0.03607  -0.03607   0.07214
           A4          -0.00904   0.01034  -0.00130   0.08145
           A5           0.01034  -0.00904  -0.00130  -0.04538   0.08145
           A6          -0.00130  -0.00130   0.00260  -0.03607  -0.03607
           D1          -0.00000   0.00000   0.00000   0.00000  -0.00000
           D2          -0.00000  -0.00000   0.00000   0.00000  -0.00000
           D3           0.00000  -0.00000  -0.00000   0.00000  -0.00000
           D4           0.00000  -0.00000   0.00000   0.00000  -0.00000
                          A6        D1        D2        D3        D4
           A6           0.07214
           D1          -0.00000   0.02602
           D2           0.00000   0.00817   0.03195
           D3          -0.00000   0.00817  -0.01561   0.03195
           D4           0.00000  -0.00968   0.00817   0.00817   0.02602
 ITU=  0
     Eigenvalues ---    0.03268   0.03570   0.04755   0.10365   0.10711
     Eigenvalues ---    0.10884   0.14329   0.35431   0.35445   0.35751
     Eigenvalues ---    0.35795   0.63507
 Angle between quadratic step and forces=  32.20 degrees.
 Linear search not attempted -- first point.
 Iteration  1 RMS(Cart)=  0.00106319 RMS(Int)=  0.00000058
 Iteration  2 RMS(Cart)=  0.00000061 RMS(Int)=  0.00000000
 ClnCor:  largest displacement from symmetrization is 6.77D-12 for atom     4.
 Variable       Old X    -DE/DX   Delta X   Delta X   Delta X     New X
                                 (Linear)    (Quad)   (Total)
    R1        2.50338  -0.00003   0.00000  -0.00020  -0.00020   2.50317
    R2        2.04634  -0.00033   0.00000  -0.00087  -0.00087   2.04547
    R3        2.04634  -0.00033   0.00000  -0.00087  -0.00087   2.04547
    R4        2.04634  -0.00033   0.00000  -0.00087  -0.00087   2.04547
    R5        2.04634  -0.00033   0.00000  -0.00087  -0.00087   2.04547
    A1        2.12404   0.00011   0.00000   0.00094   0.00094   2.12498
    A2        2.12404   0.00011   0.00000   0.00094   0.00094   2.12498
    A3        2.03511  -0.00022   0.00000  -0.00188  -0.00188   2.03323
    A4        2.12404   0.00011   0.00000   0.00094   0.00094   2.12498
    A5        2.12404   0.00011   0.00000   0.00094   0.00094   2.12498
    A6        2.03511  -0.00022   0.00000  -0.00188  -0.00188   2.03323
    D1        0.00000   0.00000   0.00000   0.00000   0.00000   0.00000
    D2        3.14159  -0.00000   0.00000  -0.00000   0.00000   3.14159
    D3        3.14159   0.00000   0.00000   0.00000   0.00000   3.14159
    D4        0.00000  -0.00000   0.00000  -0.00000   0.00000   0.00000
         Item               Value     Threshold  Converged?
 Maximum Force            0.000329     0.000450     YES
 RMS     Force            0.000196     0.000300     YES
 Maximum Displacement     0.001752     0.001800     YES
 RMS     Displacement     0.001063     0.001200     YES
 Predicted change in Energy=-1.185494D-06
 Optimization completed.
    -- Stationary point found.
                           ----------------------------
                           !   Optimized Parameters   !
                           ! (Angstroms and Degrees)  !
 --------------------------                            --------------------------
 ! Name  Definition              Value          Derivative Info.                !
 --------------------------------------------------------------------------------
 ! R1    R(1,2)                  1.3247         -DE/DX =    0.0                 !
 ! R2    R(1,3)                  1.0829         -DE/DX =   -0.0003              !
 ! R3    R(1,4)                  1.0829         -DE/DX =   -0.0003              !
 ! R4    R(2,5)                  1.0829         -DE/DX =   -0.0003              !
 ! R5    R(2,6)                  1.0829         -DE/DX =   -0.0003              !
 ! A1    A(2,1,3)              121.6983         -DE/DX =    0.0001              !
 ! A2    A(2,1,4)              121.6983         -DE/DX =    0.0001              !
 ! A3    A(3,1,4)              116.6034         -DE/DX =   -0.0002              !
 ! A4    A(1,2,5)              121.6983         -DE/DX =    0.0001              !
 ! A5    A(1,2,6)              121.6983         -DE/DX =    0.0001              !
 ! A6    A(5,2,6)              116.6034         -DE/DX =   -0.0002              !
 ! D1    D(3,1,2,5)              0.0            -DE/DX =    0.0                 !
 ! D2    D(3,1,2,6)            180.0            -DE/DX =    0.0                 !
 ! D3    D(4,1,2,5)            180.0            -DE/DX =    0.0                 !
 ! D4    D(4,1,2,6)              0.0            -DE/DX =    0.0                 !
 --------------------------------------------------------------------------------
 GradGradGradGradGradGradGradGradGradGradGradGradGradGradGradGradGradGrad

 Dipole is zero, so no output in dipole orientation.

 ----------------------------------------------------------------------

 Electric dipole moment (input orientation):
 (Debye = 10**-18 statcoulomb cm , SI units = C m)
                  (au)            (Debye)         (10**-30 SI)
   Tot        0.000000D+00      0.000000D+00      0.000000D+00
   x          0.000000D+00      0.000000D+00      0.000000D+00
   y          0.000000D+00      0.000000D+00      0.000000D+00
   z          0.000000D+00      0.000000D+00      0.000000D+00

 Dipole polarizability, Alpha (input orientation).
 (esu units = cm**3 , SI units = C**2 m**2 J**-1)
 Alpha(0;0):
               (au)            (10**-24 esu)      (10**-40 SI)
   iso        0.252393D+02      0.374008D+01      0.416140D+01
   aniso      0.154803D+02      0.229395D+01      0.255236D+01
   xx         0.179949D+02      0.266656D+01      0.296695D+01
   yx         0.000000D+00      0.000000D+00      0.000000D+00
   yy         0.224961D+02      0.333358D+01      0.370910D+01
   zx         0.000000D+00      0.000000D+00      0.000000D+00
   zy         0.000000D+00      0.000000D+00      0.000000D+00
   zz         0.352270D+02      0.522010D+01      0.580814D+01

 ----------------------------------------------------------------------
 1\1\GINC-GAMBA\Freq\RB3LYP\Gen\C2H4\IRIKURA\01-Oct-2023\0\\#N Geom=All
 Check Guess=TCheck SCRF=Check GenChk RB3LYP/ChkBas Freq\\C2H4, B3LYP/p
 cseg-2\\0,1\C,0.,0.,0.662365\C,0.,0.,-0.662365\H,0.,0.921339,1.231358\
 H,0.,-0.921339,1.231358\H,0.,0.921339,-1.231358\H,0.,-0.921339,-1.2313
[...]
 ! D1    D(3,1,2,5)              0.0                                            !
 ! D2    D(3,1,2,6)            180.0                                            !
 ! D3    D(4,1,2,5)            180.0                                            !
 ! D4    D(4,1,2,6)              0.0                                            !
 --------------------------------------------------------------------------------
                          Input orientation:                          
 ---------------------------------------------------------------------
 Center     Atomic      Atomic             Coordinates (Angstroms)
 Number     Number       Type             X           Y           Z
 ---------------------------------------------------------------------
      1          6           0       -0.000000    0.000000    0.662365
      2          6           0        0.000000    0.000000   -0.662365
      3          1           0       -0.000000    0.921339    1.231358
      4          1           0       -0.000000   -0.921339    1.231358
      5          1           0        0.000000    0.921339   -1.231358
      6          1           0        0.000000   -0.921339   -1.231358
 ---------------------------------------------------------------------
                    Distance matrix (angstroms):
                    1          2          3          4          5
     1  C    0.000000
     2  C    1.324730   0.000000
     3  H    1.082875   2.105956   0.000000
     4  H    1.082875   2.105956   1.842678   0.000000
     5  H    2.105956   1.082875   2.462716   3.075782   0.000000
     6  H    2.105956   1.082875   3.075782   2.462716   1.842678
                    6
     6  H    0.000000
 Stoichiometry    C2H4
 Framework group  D2H[C2"(C.C),SG(H4)]
 Deg. of freedom     3
 Full point group                 D2H     NOp   8
 Largest Abelian subgroup         D2H     NOp   8
 Largest concise Abelian subgroup D2      NOp   4
                         Standard orientation:                         
 ---------------------------------------------------------------------
 Center     Atomic      Atomic             Coordinates (Angstroms)
 Number     Number       Type             X           Y           Z
 ---------------------------------------------------------------------
      1          6           0        0.000000    0.000000    0.662365
      2          6           0        0.000000    0.000000   -0.662365
      3          1           0        0.000000    0.921339    1.231358
      4          1           0       -0.000000   -0.921339    1.231358
      5          1           0        0.000000    0.921339   -1.231358
      6          1           0       -0.000000   -0.921339   -1.231358
 ---------------------------------------------------------------------
 Rotational constants (GHZ):         147.6839008          30.3678925          25.1884507
 General basis read from cards:  (5D, 7F)
 There are    41 symmetry adapted cartesian basis functions of AG  symmetry.
 There are    10 symmetry adapted cartesian basis functions of B1G symmetry.
 There are    20 symmetry adapted cartesian basis functions of B2G symmetry.
 There are    29 symmetry adapted cartesian basis functions of B3G symmetry.
 There are    10 symmetry adapted cartesian basis functions of AU  symmetry.
 There are    41 symmetry adapted cartesian basis functions of B1U symmetry.
 There are    29 symmetry adapted cartesian basis functions of B2U symmetry.
 There are    20 symmetry adapted cartesian basis functions of B3U symmetry.
 There are    35 symmetry adapted basis functions of AG  symmetry.
 There are    10 symmetry adapted basis functions of B1G symmetry.
 There are    18 symmetry adapted basis functions of B2G symmetry.
 There are    26 symmetry adapted basis functions of B3G symmetry.
 There are    10 symmetry adapted basis functions of AU  symmetry.
 There are    35 symmetry adapted basis functions of B1U symmetry.
 There are    26 symmetry adapted basis functions of B2U symmetry.
 There are    18 symmetry adapted basis functions of B3U symmetry.
   178 basis functions,   240 primitive gaussians,   200 cartesian basis functions
     8 alpha electrons        8 beta electrons
       nuclear repulsion energy        33.4876810358 Hartrees.
 NAtoms=    6 NActive=    6 NUniq=    2 SFac= 4.00D+00 NAtFMM=   60 NAOKFM=F Big=F
 Integral buffers will be    131072 words long.
 Raffenetti 2 integral format.
 Two-electron integral symmetry is turned on.
 One-electron integrals computed using PRISM.
 NBasis=   178 RedAO= T EigKep=  7.75D-05  NBF=    35    10    18    26    10    35    26    18
 NBsUse=   178 1.00D-06 EigRej= -1.00D+00 NBFU=    35    10    18    26    10    35    26    18
 Initial guess from the checkpoint file:  "c2h4.chk"
 B after Tr=    -0.000000    0.000000   -0.000000
         Rot=    1.000000    0.000000    0.000000    0.000000 Ang=   0.00 deg.
 Initial guess orbital symmetries:
       Occupied  (AG) (B1U) (AG) (B1U) (B2U) (AG) (B3G) (B3U)
       Virtual   (B2G) (AG) (B1U) (B2U) (B3G) (AG) (B3U) (B1U)
                 (AG) (B2U) (B2G) (B2U) (B1U) (AG) (B3G) (B1U)
                 (B1U) (B3G) (B1G) (AU) (B3U) (AG) (B2U) (B3G)
                 (AG) (B2U) (B1U) (B2G) (AG) (B1U) (B3G) (B1G)
                 (B3U) (B3U) (B2U) (B2G) (AG) (B1U) (B1U) (B2G)
                 (AU) (B2U) (AG) (B3G) (B3G) (B1U) (AG) (AG) (B2U)
                 (B1U) (B3G) (B3U) (B1G) (B1U) (B2U) (B2G) (B3U)
                 (AG) (AU) (B2U) (AG) (B3G) (B1U) (B1G) (B3G) (B1G)
                 (B2U) (AU) (B1U) (B3U) (AG) (B2G) (AG) (B2U) (B1U)
                 (AU) (B3G) (B1G) (B2G) (B3U) (B3G) (AG) (B2G)
                 (B1U) (B3U) (B2U) (B1U) (AU) (B2G) (AG) (B3U)
                 (B3G) (B2U) (B1U) (AG) (B1G) (B2G) (B2U) (AG)
                 (B3G) (B1U) (AU) (B3G) (AG) (B1U) (B1U) (B2U)
                 (B3G) (AG) (AG) (AG) (AG) (AG) (AG) (AG) (AG)
                 (AG) (AG) (AG) (AG) (B1G) (B1G) (B1G) (B2G) (B2G)
                 (B2G) (B2G) (B2G) (B2G) (B2G) (B3G) (B3G) (B3G)
                 (B3G) (B3G) (B3G) (B3G) (B3G) (B3G) (AU) (AU)
                 (AU) (B1U) (B1U) (B1U) (B1U) (B1U) (B1U) (B1U)
                 (B1U) (B1U) (B1U) (B1U) (B1U) (B2U) (B2U) (B2U)
                 (B2U) (B2U) (B2U) (B2U) (B2U) (B2U) (B3U) (B3U)
                 (B3U) (B3U) (B3U) (B3U) (B3U)
 Keep R1 and R2 ints in memory in symmetry-blocked form, NReq=143172233.
 Requested convergence on RMS density matrix=1.00D-08 within 128 cycles.
 Requested convergence on MAX density matrix=1.00D-06.
 Requested convergence on             energy=1.00D-06.
 No special actions if energy rises.
 SCF Done:  E(ROHF) =  -78.0691310854     A.U. after    9 cycles
            NFock=  9  Conv=0.30D-08     -V/T= 2.0012
 <Sx>= 0.0000 <Sy>= 0.0000 <Sz>= 0.0000 <S**2>=-0.0000 S=-0.0000
 <L.S>=  0.00000000000    
 Annihilation of the first spin contaminant:
 S**2 before annihilation    -0.0000,   after     0.0000

 **********************************************************************

            Population analysis using the SCF Density.

 **********************************************************************

 Orbital symmetries:
       Occupied  (AG) (B1U) (AG) (B1U) (B2U) (AG) (B3G) (B3U)
       Virtual   (B1U) (AG) (B2U) (B3U) (B2G) (B3G) (AG) (B2G)
                 (B1U) (AG) (B2U) (B1U) (B3G) (B1U) (AG) (B2U)
                 (B1G) (AG) (B3U) (B2U) (AU) (B2G) (B1U) (AG) (B3U)
                 (B3G) (B1U) (B2U) (B3G) (AG) (B1U) (B3G) (B2G)
                 (B1U) (AG) (B1G) (B2U) (B3U) (B1U) (AG) (B2U)
                 (B3G) (AG) (AU) (B2G) (B1U) (B1U) (B3G) (AG) (B3U)
                 (B1G) (B2U) (B3U) (AG) (B2G) (B2U) (B3G) (B2G)
                 (B1U) (AU) (B2U) (B3G) (B1U) (B3U) (B1G) (B3U)
                 (AG) (AG) (B2U) (AU) (B3G) (B1U) (B1U) (AG) (B1G)
                 (B2U) (B2G) (B3G) (B1G) (B3U) (AG) (B3G) (B1U)
                 (B2G) (AG) (AU) (B2U) (B2G) (B1U) (B3U) (B3G)
                 (B1U) (AG) (B2U) (AU) (B2G) (B2U) (B1U) (B3U)
                 (AG) (B3G) (B1G) (B2U) (B3G) (AG) (AU) (AG) (B1U)
                 (B3G) (B2G) (B1U) (AG) (B2U) (B1U) (B3G) (B1U)
                 (B3U) (B1G) (B3U) (B2U) (AG) (B2G) (B2U) (B3G)
                 (AU) (AG) (B2G) (B3U) (B1U) (B1U) (B1G) (B3G)
                 (B3U) (B2U) (AG) (AU) (AG) (B2G) (B2U) (B3G) (B2G)
                 (B1U) (B3G) (AG) (B2U) (B3G) (B1U) (B1U) (B3U)
                 (B1G) (AU) (AG) (B2G) (B1U) (B2U) (AG) (B3G) (B2U)
                 (B1U) (AG) (B1U) (B3G) (B3U) (B2G) (AG) (B2U)
                 (B3G) (B1U) (AG) (B1U)
 The electronic state is 1-AG.
 Alpha  occ. eigenvalues --  -11.22952 -11.22772  -1.03629  -0.79260  -0.64385
 Alpha  occ. eigenvalues --   -0.59057  -0.50604  -0.37928
 Alpha virt. eigenvalues --    0.05285   0.06678   0.07251   0.08714   0.08888
 Alpha virt. eigenvalues --    0.09119   0.11257   0.17777   0.18410   0.19864
 Alpha virt. eigenvalues --    0.23251   0.26338   0.27555   0.33349   0.35053
 Alpha virt. eigenvalues --    0.38545   0.39575   0.41470   0.43434   0.46735
 Alpha virt. eigenvalues --    0.49300   0.50366   0.50407   0.50805   0.56026
 Alpha virt. eigenvalues --    0.57082   0.59065   0.62335   0.63750   0.64938
 Alpha virt. eigenvalues --    0.66634   0.67729   0.71825   0.86775   0.87232
 Alpha virt. eigenvalues --    0.87964   0.88720   0.91364   1.00285   1.01617
 Alpha virt. eigenvalues --    1.03293   1.05900   1.07511   1.12995   1.13524
 Alpha virt. eigenvalues --    1.30178   1.30751   1.34056   1.34324   1.43420
 Alpha virt. eigenvalues --    1.43538   1.44585   1.51402   1.51908   1.54886
 Alpha virt. eigenvalues --    1.56624   1.64270   1.67964   1.70686   1.72878
 Alpha virt. eigenvalues --    1.81794   1.82011   1.82574   1.86217   1.86870
 Alpha virt. eigenvalues --    1.87807   1.88655   1.88710   1.88891   1.90168
 Alpha virt. eigenvalues --    1.93723   1.95307   1.99577   2.00055   2.06469
 Alpha virt. eigenvalues --    2.09383   2.13398   2.23014   2.23193   2.25079
 Alpha virt. eigenvalues --    2.30205   2.31773   2.33327   2.33793   2.35374
 Alpha virt. eigenvalues --    2.36601   2.38681   2.44013   2.51295   2.58567
 Alpha virt. eigenvalues --    2.59452   2.63083   2.64711   2.66580   2.79920
 Alpha virt. eigenvalues --    2.90896   2.91729   2.92182   2.95531   3.02739
 Alpha virt. eigenvalues --    3.13669   3.23654   3.23936   3.29243   3.32163
 Alpha virt. eigenvalues --    3.39021   3.49384   3.51612   3.53733   3.57509
 Alpha virt. eigenvalues --    3.74052   3.76344   3.87315   3.96021   4.09529
 Alpha virt. eigenvalues --    4.24479   4.47901   4.54458   4.70780   4.73368
 Alpha virt. eigenvalues --    4.77390   4.94426   4.98187   5.16222   5.21413
 Alpha virt. eigenvalues --    5.23443   5.24885   5.32927   5.33479   5.64344
 Alpha virt. eigenvalues --    5.69095   5.70059   5.79808   5.83628   5.89774
 Alpha virt. eigenvalues --    5.99614   6.12102   6.21041   6.29883   6.36618
 Alpha virt. eigenvalues --    6.37953   6.38693   6.98789   7.09646   7.14412
 Alpha virt. eigenvalues --    7.26329   7.28515   7.72792   8.09719   8.12731
 Alpha virt. eigenvalues --    8.25085   8.31916   8.50980   8.66692   8.84611
 Alpha virt. eigenvalues --    8.99095   9.05482   9.16211   9.44040   9.44381
 Alpha virt. eigenvalues --    9.81926   9.83799  20.57104  21.01261  21.60603
 Alpha virt. eigenvalues --   21.67909  21.75904  22.11500  23.12323  23.97991
          Condensed to atoms (all electrons):
               1          2          3          4          5          6
     1  C    4.902049   0.613951   0.425390   0.425390  -0.045890  -0.045890
     2  C    0.613951   4.902049  -0.045890  -0.045890   0.425390   0.425390
     3  H    0.425390  -0.045890   0.495401  -0.016291   0.001244   0.002644
     4  H    0.425390  -0.045890  -0.016291   0.495401   0.002644   0.001244
     5  H   -0.045890   0.425390   0.001244   0.002644   0.495401  -0.016291
     6  H   -0.045890   0.425390   0.002644   0.001244  -0.016291   0.495401
          Atomic-Atomic Spin Densities.
               1          2          3          4          5          6
     1  C    0.000000   0.000000   0.000000   0.000000   0.000000   0.000000
     2  C    0.000000   0.000000   0.000000   0.000000   0.000000   0.000000
     3  H    0.000000   0.000000   0.000000   0.000000   0.000000   0.000000
     4  H    0.000000   0.000000   0.000000   0.000000   0.000000   0.000000
     5  H    0.000000   0.000000   0.000000   0.000000   0.000000   0.000000
     6  H    0.000000   0.000000   0.000000   0.000000   0.000000   0.000000
 Mulliken charges and spin densities:
               1          2
     1  C   -0.275001   0.000000
     2  C   -0.275001   0.000000
     3  H    0.137501   0.000000
     4  H    0.137501   0.000000
     5  H    0.137501   0.000000
     6  H    0.137501   0.000000
 Sum of Mulliken charges =  -0.00000   0.00000
 Mulliken charges and spin densities with hydrogens summed into heavy atoms:
               1          2
     1  C   -0.000000   0.000000
     2  C   -0.000000   0.000000
 Electronic spatial extent (au):  <R**2>=             82.7902
 Charge=             -0.0000 electrons
 Dipole moment (field-independent basis, Debye):
    X=             -0.0000    Y=              0.0000    Z=             -0.0000  Tot=              0.0000
 Quadrupole moment (field-independent basis, Debye-Ang):
   XX=            -16.0267   YY=            -12.4213   ZZ=            -12.1797
   XY=              0.0000   XZ=              0.0000   YZ=              0.0000
 Traceless Quadrupole moment (field-independent basis, Debye-Ang):
   XX=             -2.4841   YY=              1.1212   ZZ=              1.3629
   XY=              0.0000   XZ=              0.0000   YZ=              0.0000
 Octapole moment (field-independent basis, Debye-Ang**2):
  XXX=             -0.0000  YYY=              0.0000  ZZZ=             -0.0000  XYY=             -0.0000
  XXY=             -0.0000  XXZ=              0.0000  XZZ=             -0.0000  YZZ=              0.0000
  YYZ=              0.0000  XYZ=             -0.0000
 Hexadecapole moment (field-independent basis, Debye-Ang**3):
 XXXX=            -20.7996 YYYY=            -26.9259 ZZZZ=            -67.8379 XXXY=             -0.0000
 XXXZ=              0.0000 YYYX=             -0.0000 YYYZ=             -0.0000 ZZZX=              0.0000
 ZZZY=             -0.0000 XXYY=             -8.7694 XXZZ=            -15.7482 YYZZ=            -13.0786
 XXYZ=              0.0000 YYXZ=              0.0000 ZZXY=              0.0000
 N-N= 3.348768103584D+01 E-N=-2.482777961212D+02  KE= 7.797593555570D+01
 Symmetry AG   KE= 3.758144170800D+01
 Symmetry B1G  KE=-2.651654137996D-20
 Symmetry B2G  KE=-4.980771641453D-20
 Symmetry B3G  KE= 2.097289003672D+00
 Symmetry AU   KE=-4.062454049395D-20
 Symmetry B1U  KE= 3.452327470882D+01
 Symmetry B2U  KE= 1.860865652494D+00
 Symmetry B3U  KE= 1.913064482712D+00
 Symmetry AG   SP= 0.000000000000D+00
 Symmetry B1G  SP= 0.000000000000D+00
 Symmetry B2G  SP= 0.000000000000D+00
 Symmetry B3G  SP= 0.000000000000D+00
 Symmetry AU   SP= 0.000000000000D+00
 Symmetry B1U  SP= 0.000000000000D+00
 Symmetry B2U  SP= 0.000000000000D+00
 Symmetry B3U  SP= 0.000000000000D+00
                          Isotropic Fermi Contact Couplings
        Atom                 a.u.       MegaHertz       Gauss      10(-4) cm-1
     1  C(13)              0.00000       0.00000       0.00000       0.00000
     2  C(13)              0.00000       0.00000       0.00000       0.00000
     3  H(1)               0.00000       0.00000       0.00000       0.00000
     4  H(1)               0.00000       0.00000       0.00000       0.00000
     5  H(1)               0.00000       0.00000       0.00000       0.00000
     6  H(1)               0.00000       0.00000       0.00000       0.00000
 --------------------------------------------------------
       Center         ----  Spin Dipole Couplings  ----
                      3XX-RR        3YY-RR        3ZZ-RR
 --------------------------------------------------------
     1   Atom        0.000000      0.000000      0.000000
     2   Atom        0.000000      0.000000      0.000000
     3   Atom        0.000000      0.000000      0.000000
     4   Atom        0.000000      0.000000      0.000000
     5   Atom        0.000000      0.000000      0.000000
     6   Atom        0.000000      0.000000      0.000000
 --------------------------------------------------------
                        XY            XZ            YZ
 --------------------------------------------------------
     1   Atom        0.000000      0.000000      0.000000
     2   Atom        0.000000      0.000000      0.000000
     3   Atom        0.000000      0.000000      0.000000
     4   Atom        0.000000      0.000000      0.000000
     5   Atom        0.000000      0.000000      0.000000
     6   Atom        0.000000      0.000000      0.000000
 --------------------------------------------------------


 ---------------------------------------------------------------------------------
              Anisotropic Spin Dipole Couplings in Principal Axis System
 ---------------------------------------------------------------------------------

       Atom             a.u.   MegaHertz   Gauss  10(-4) cm-1        Axes

              Baa     0.0000     0.000     0.000     0.000  1.0000  0.0000  0.0000
     1 C(13)  Bbb     0.0000     0.000     0.000     0.000 -0.0000  1.0000  0.0000
              Bcc     0.0000     0.000     0.000     0.000  0.0000  0.0000  1.0000
 
              Baa     0.0000     0.000     0.000     0.000  1.0000  0.0000  0.0000
     2 C(13)  Bbb     0.0000     0.000     0.000     0.000 -0.0000  1.0000  0.0000
              Bcc     0.0000     0.000     0.000     0.000  0.0000  0.0000  1.0000
 
              Baa     0.0000     0.000     0.000     0.000  1.0000  0.0000  0.0000
     3 H(1)   Bbb     0.0000     0.000     0.000     0.000 -0.0000  1.0000  0.0000
              Bcc     0.0000     0.000     0.000     0.000  0.0000  0.0000  1.0000
 
              Baa     0.0000     0.000     0.000     0.000  1.0000  0.0000  0.0000
     4 H(1)   Bbb     0.0000     0.000     0.000     0.000 -0.0000  1.0000  0.0000
              Bcc     0.0000     0.000     0.000     0.000  0.0000  0.0000  1.0000
 
              Baa     0.0000     0.000     0.000     0.000  1.0000  0.0000  0.0000
     5 H(1)   Bbb     0.0000     0.000     0.000     0.000 -0.0000  1.0000  0.0000
              Bcc     0.0000     0.000     0.000     0.000  0.0000  0.0000  1.0000
 
              Baa     0.0000     0.000     0.000     0.000  1.0000  0.0000  0.0000
     6 H(1)   Bbb     0.0000     0.000     0.000     0.000 -0.0000  1.0000  0.0000
              Bcc     0.0000     0.000     0.000     0.000  0.0000  0.0000  1.0000
 

 ---------------------------------------------------------------------------------

 1\1\GINC-GAMBA\SP\ROHF\Gen\C2H4\IRIKURA\01-Oct-2023\0\\# rohf/gen geom
 =check guess=check\\C2H4, ROHF/cc-pVTZ-F12\\0,1\C,0,0.,0.,0.662365\C,0
 ,0.,0.,-0.662365\H,0,0.,0.921339,1.231358\H,0,0.,-0.921339,1.231358\H,
 0,0.,0.921339,-1.231358\H,0,0.,-0.921339,-1.231358\\Version=ES64L-G16R
 evB.01\State=1-AG\HF=-78.0691311\RMSD=2.983e-09\Dipole=0.,0.,0.\Quadru
 pole=-1.8468704,0.8336209,1.0132495,0.,0.,0.\PG=D02H [C2"(C1.C1),SG(H4
 )]\\@


 WE'RE IN THE POSITION OF A VISITOR FROM ANOTHER
 DIMENSION WHO COMES TO EARTH AND SEES A CHESS MATCH.
 ASSUMING HE KNOWS IT'S A GAME, HE'S GOT TWO PROBLEMS:
 FIRST, FIGURE OUT THE RULES, AND SECOND, FIGURE OUT HOW TO WIN.
 NINETY PERCENT OF SCIENCE (INCLUDING VIRTUALLY ALL OF CHEMISRY)
 IS IN THAT SECOND CATEGORY.  THEY'RE TRYING TO APPLY
 THE LAWS THAT ARE ALREADY KNOWN.

                     -- SHELDON GLASHOW, 1979
 Job cpu time:       0 days  0 hours  0 minutes 15.3 seconds.
 Elapsed time:       0 days  0 hours  0 minutes  3.9 seconds.
 File lengths (MBytes):  RWF=     18 Int=      0 D2E=      0 Chk=      4 Scr=      1
 Normal termination of Gaussian 16 at Sun Oct  1 00:04:38 2023.
