 Entering Gaussian System, Link 0=g16
 AtFile(1): pcseg2.gbs
            -H     0
            S   4   1.00
                  0.754732D+02           0.427821D-02
                  0.113575D+02           0.328672D-01
                  0.260081D+01           0.159578D+00
                  0.735503D+00           0.500000D+00
            S   1   1.00
                  0.231761D+00           1.0000000
            S   1   1.00
                  0.741675D-01           1.0000000
            P   1   1.00
                  0.160000D+01           1.0000000
            P   1   1.00
                  0.450000D+00           1.0000000
            D   1   1.00
                  0.125000D+01           1.0000000
            ****
            -C     0
            S   7   1.00
                  0.731999D+04           0.695369D-03
                  0.109818D+04           0.537138D-02
                  0.250014D+03           0.274734D-01
                  0.707586D+02           0.105078D+00
                  0.228595D+02           0.291262D+00
                  0.803936D+01           0.500000D+00
                  0.289309D+01           0.362224D+00
            S   2   1.00
                  0.521640D+01          -0.957844D-01
                  0.556124D+00           0.500000D+00
            S   1   1.00
                  0.228813D+00           1.0000000
            S   1   1.00
                  0.936338D-01           1.0000000
            P   4   1.00
                  0.339855D+02           0.818395D-02
                  0.772957D+01           0.586921D-01
                  0.224954D+01           0.222514D+00
                  0.767681D+00           0.500000D+00
            P   1   1.00
                  0.263283D+00           1.0000000
            P   1   1.00
                  0.848744D-01           1.0000000
            D   1   1.00
                  0.140000D+01           1.0000000
            D   1   1.00
                  0.450000D+00           1.0000000
            F   1   1.00
                  0.950000D+00           1.0000000
            ****
            -O     0
            S   7   1.00
                  0.135887D+05           0.665492D-03
                  0.203847D+04           0.514222D-02
                  0.464041D+03           0.263472D-01
                  0.131339D+03           0.101500D+00
                  0.425340D+02           0.285877D+00
                  0.150429D+02           0.500000D+00
                  0.546616D+01           0.368211D+00
            S   2   1.00
                  0.100915D+02          -0.100084D+00
                  0.110429D+01           0.500000D+00
            S   1   1.00
                  0.448082D+00           1.0000000
            S   1   1.00
                  0.175325D+00           1.0000000
            P   4   1.00
                  0.608220D+02           0.908253D-02
                  0.140332D+02           0.645878D-01
                  0.418244D+01           0.241502D+00
                  0.142490D+01           0.500000D+00
            P   1   1.00
                  0.478741D+00           1.0000000
            P   1   1.00
                  0.146257D+00           1.0000000
            D   1   1.00
                  0.220000D+01           1.0000000
            D   1   1.00
                  0.650000D+00           1.0000000
            F   1   1.00
                  0.110000D+01           1.0000000
            ****
            -N     0
            S   7   1.00
                  0.101643D+05           0.682757D-03
                  0.152481D+04           0.527488D-02
                  0.347119D+03           0.270037D-01
                  0.982389D+02           0.103673D+00
                  0.317799D+02           0.289575D+00
                  0.112240D+02           0.500000D+00
                  0.406611D+01           0.364621D+00
            S   2   1.00
                  0.747898D+01          -0.975681D-01
                  0.805040D+00           0.500000D+00
            S   1   1.00
                  0.324626D+00           1.0000000
            S   1   1.00
                  0.128132D+00           1.0000000
            P   4   1.00
                  0.482704D+02           0.829547D-02
                  0.110815D+02           0.596223D-01
                  0.326643D+01           0.227889D+00
                  0.111680D+01           0.500000D+00
            P   1   1.00
                  0.382049D+00           1.0000000
            P   1   1.00
                  0.121222D+00           1.0000000
            D   1   1.00
                  0.180000D+01           1.0000000
            D   1   1.00
                  0.550000D+00           1.0000000
            F   1   1.00
                  0.102000D+01           1.0000000
            ****
            -F     0
            S   7   1.00
                  0.174507D+05           0.655972D-03
                  0.261768D+04           0.506944D-02
                  0.595857D+03           0.259899D-01
                  0.168651D+03           0.100353D+00
                  0.546654D+02           0.284095D+00
                  0.193717D+02           0.500000D+00
                  0.706202D+01           0.370721D+00
            S   2   1.00
                  0.131197D+02          -0.101997D+00
                  0.145046D+01           0.500000D+00
            S   1   1.00
                  0.588255D+00           1.0000000
            S   1   1.00
                  0.227960D+00           1.0000000
            P   4   1.00
                  0.779407D+02           0.931135D-02
                  0.180425D+02           0.663964D-01
                  0.542342D+01           0.246386D+00
                  0.184876D+01           0.500000D+00
            P   1   1.00
                  0.617455D+00           1.0000000
            P   1   1.00
                  0.185496D+00           1.0000000
            D   1   1.00
                  0.280000D+01           1.0000000
            D   1   1.00
                  0.800000D+00           1.0000000
            F   1   1.00
                  0.120000D+01           1.0000000
            ****
            -Cl     0
            S   8   1.00
                  0.154272D+06           0.222473D-03
                  0.231232D+05           0.172590D-02
                  0.526257D+04           0.899286D-02
                  0.148995D+04           0.367724D-01
                  0.485417D+03           0.121446D+00
                  0.174634D+03           0.304148D+00
                  0.672393D+02           0.500000D+00
                  0.265780D+02           0.360252D+00
            S   3   1.00
                  0.131826D+03          -0.531330D-01
                  0.400703D+02          -0.233346D+00
                  0.789448D+01           0.500000D+00
            S   2   1.00
                  0.427711D+01           0.500000D+00
                  0.196233D+01           0.370517D+00
            S   1   1.00
                  0.520793D+00           1.0000000
            S   1   1.00
                  0.181633D+00           1.0000000
            P   7   1.00
                  0.124440D+04           0.988206D-03
                  0.295109D+03           0.829674D-02
                  0.947224D+02           0.430906D-01
                  0.352588D+02           0.148443D+00
                  0.144211D+02           0.344744D+00
                  0.610371D+01           0.500000D+00
                  0.258886D+01           0.348278D+00
            P   2   1.00
                  0.109447D+02          -0.196768D-01
                  0.104413D+01           0.500000D+00
            P   1   1.00
                  0.376184D+00           1.0000000
            P   1   1.00
                  0.120613D+00           1.0000000
            D   1   1.00
                  0.231000D+01           1.0000000
            D   1   1.00
                  0.520000D+00           1.0000000
            F   1   1.00
                  0.720000D+00           1.0000000
            ****
            -S     0
            S   8   1.00
                  0.134700D+06           0.226231D-03
                  0.201904D+05           0.175488D-02
                  0.459528D+04           0.914190D-02
                  0.130109D+04           0.373551D-01
                  0.423902D+03           0.123121D+00
                  0.152485D+03           0.306801D+00
                  0.586925D+02           0.500000D+00
                  0.231461D+02           0.354358D+00
            S   3   1.00
                  0.116327D+03          -0.491772D-01
                  0.352841D+02          -0.215962D+00
                  0.677831D+01           0.500000D+00
            S   2   1.00
                  0.360404D+01           0.500000D+00
                  0.164871D+01           0.366278D+00
            S   1   1.00
                  0.421821D+00           1.0000000
            S   1   1.00
                  0.147554D+00           1.0000000
            P   7   1.00
                  0.104863D+04           0.105273D-02
                  0.248717D+03           0.879338D-02
                  0.797887D+02           0.453358D-01
                  0.296023D+02           0.154476D+00
                  0.120627D+02           0.352366D+00
                  0.507628D+01           0.500000D+00
                  0.213375D+01           0.346429D+00
            P   2   1.00
                  0.928958D+01          -0.185932D-01
                  0.837819D+00           0.500000D+00
            P   1   1.00
                  0.301495D+00           1.0000000
            P   1   1.00
                  0.974740D-01           1.0000000
            D   1   1.00
                  0.210000D+01           1.0000000
            D   1   1.00
                  0.480000D+00           1.0000000
            F   1   1.00
                  0.660000D+00           1.0000000
            ****
            -Br     0
            S    10   1.00
                  0.233625D+07           0.532336D-04
                  0.349961D+06           0.413715D-03
                  0.796444D+05           0.217123D-02
                  0.225555D+05           0.910109D-02
                  0.735546D+04           0.323789D-01
                  0.265352D+04           0.988755D-01
                  0.103517D+04           0.248138D+00
                  0.422205D+03           0.474328D+00
                  0.180035D+03           0.500000D+00
                  0.793308D+02           0.187769D+00
            S    4   1.00
                  0.620834D+03          -0.226511D-01
                  0.190829D+03          -0.109497D+00
                  0.312505D+02           0.500000D+00
                  0.135270D+02           0.492812D+00
            S    2   1.00
                  0.216097D+02          -0.165418D+00
                  0.372566D+01           0.500000D+00
            S    1   1.00
                  0.169770D+01           1.0000000
            S    1   1.00
                  0.489332D+00           1.0000000
            S    1   1.00
                  0.175712D+00           1.0000000
            P    8   1.00
                  0.960829D+04           0.478974D-03
                  0.227618D+04           0.417853D-02
                  0.736723D+03           0.229315D-01
                  0.281579D+03           0.892653D-01
                  0.118395D+03           0.255288D+00
                  0.527481D+02           0.479074D+00
                  0.245098D+02           0.500000D+00
                  0.112009D+02           0.200944D+00
            P    4   1.00
                  0.587849D+02          -0.189674D-01
                  0.918962D+01           0.264104D+00
                  0.413895D+01           0.500000D+00
                  0.184225D+01           0.319316D+00
            P    1   1.00
                  0.713862D+00           1.0000000
            P    1   1.00
                  0.274232D+00           1.0000000
            P    1   1.00
                  0.944411D-01           1.0000000
            D    7   1.00
                  0.398470D+03           0.204066D-02
                  0.118967D+03           0.175171D-01
                  0.450197D+02           0.829708D-01
                  0.190320D+02           0.236284D+00
                  0.855686D+01           0.428468D+00
                  0.382950D+01           0.500000D+00
                  0.166291D+01           0.349360D+00
            D    1   1.00
                  0.672953D+00           1.0000000
            D    1   1.00
                  0.252000D+00           1.0000000
            F    1   1.00
                  0.530000D+00           1.0000000
            ****
            -Si     0
            S    8   1.00
                  0.996133D+05           0.235546D-03
                  0.149311D+05           0.182707D-02
                  0.339820D+04           0.951425D-02
                  0.962140D+03           0.388172D-01
                  0.313430D+03           0.127328D+00
                  0.112683D+03           0.313522D+00
                  0.433372D+02           0.500000D+00
                  0.170029D+02           0.340347D+00
            S    3   1.00
                  0.884208D+02          -0.404451D-01
                  0.266756D+02          -0.178059D+00
                  0.479640D+01           0.500000D+00
            S    2   1.00
                  0.239385D+01           0.500000D+00
                  0.108333D+01           0.338016D+00
            S    1   1.00
                  0.252420D+00           1.0000000
            S    1   1.00
                  0.891210D-01           1.0000000
            P    7   1.00
                  0.709901D+03           0.123028D-02
                  0.168426D+03           0.101366D-01
                  0.539946D+02           0.511840D-01
                  0.198646D+02           0.169967D+00
                  0.801369D+01           0.370717D+00
                  0.331870D+01           0.500000D+00
                  0.136112D+01           0.344128D+00
            P    2   1.00
                  0.622158D+01          -0.166609D-01
                  0.503049D+00           0.500000D+00
            P    1   1.00
                  0.179848D+00           1.0000000
            P    1   1.00
                  0.591912D-01           1.0000000
            D    1   1.00
                  0.168000D+01           1.0000000
            D    1   1.00
                  0.380000D+00           1.0000000
            F    1   1.00
                  0.540000D+00           1.0000000
            ****
            -P     0
            S    8   1.00
                  0.116416D+06           0.230715D-03
                  0.174500D+05           0.178960D-02
                  0.397149D+04           0.932116D-02
                  0.112447D+04           0.380591D-01
                  0.366347D+03           0.125148D+00
                  0.131757D+03           0.310022D+00
                  0.506988D+02           0.500000D+00
                  0.199436D+02           0.347528D+00
            S    3   1.00
                  0.101878D+03          -0.446755D-01
                  0.308249D+02          -0.196376D+00
                  0.573688D+01           0.500000D+00
            S    2   1.00
                  0.296868D+01           0.500000D+00
                  0.135315D+01           0.355098D+00
            S    1   1.00
                  0.332196D+00           1.0000000
            S    1   1.00
                  0.116229D+00           1.0000000
            P    7   1.00
                  0.873928D+03           0.112375D-02
                  0.207298D+03           0.933330D-02
                  0.664628D+02           0.477213D-01
                  0.245665D+02           0.160733D+00
                  0.996820D+01           0.359760D+00
                  0.416536D+01           0.500000D+00
                  0.173022D+01           0.346593D+00
            P    2   1.00
                  0.772530D+01          -0.175718D-01
                  0.657252D+00           0.500000D+00
            P    1   1.00
                  0.239903D+00           1.0000000
            P    1   1.00
                  0.800988D-01           1.0000000
            D    1   1.00
                  0.189000D+01           1.0000000
            D    1   1.00
                  0.430000D+00           1.0000000
            F    1   1.00
                  0.600000D+00           1.0000000
            ****
            
 Initial command:
 /usr/local/apps/g16_b01_avx/g16/l1.exe "/wrk/irikura/Gau-927.inp" -scrdir="/wrk/irikura/"
 Entering Link 1 = /usr/local/apps/g16_b01_avx/g16/l1.exe PID=       929.
  
 Copyright (c) 1988-2017, Gaussian, Inc.  All Rights Reserved.
  
 This is part of the Gaussian(R) 16 program.  It is based on
 the Gaussian(R) 09 system (copyright 2009, Gaussian, Inc.),
 the Gaussian(R) 03 system (copyright 2003, Gaussian, Inc.),
 the Gaussian(R) 98 system (copyright 1998, Gaussian, Inc.),
 the Gaussian(R) 94 system (copyright 1995, Gaussian, Inc.),
 the Gaussian 92(TM) system (copyright 1992, Gaussian, Inc.),
 the Gaussian 90(TM) system (copyright 1990, Gaussian, Inc.),
 the Gaussian 88(TM) system (copyright 1988, Gaussian, Inc.),
 the Gaussian 86(TM) system (copyright 1986, Carnegie Mellon
 University), and the Gaussian 82(TM) system (copyright 1983,
 Carnegie Mellon University). Gaussian is a federally registered
 trademark of Gaussian, Inc.
  
 This software contains proprietary and confidential information,
 including trade secrets, belonging to Gaussian, Inc.
  
 This software is provided under written license and may be
 used, copied, transmitted, or stored only in accord with that
 written license.
  
 The following legend is applicable only to US Government
 contracts under FAR:
  
                    RESTRICTED RIGHTS LEGEND
  
 Use, reproduction and disclosure by the US Government is
 subject to restrictions as set forth in subparagraphs (a)
 and (c) of the Commercial Computer Software - Restricted
 Rights clause in FAR 52.227-19.
  
 Gaussian, Inc.
 340 Quinnipiac St., Bldg. 40, Wallingford CT 06492
  
  
 ---------------------------------------------------------------
 Warning -- This program may not be used in any manner that
 competes with the business of Gaussian, Inc. or will provide
 assistance to any competitor of Gaussian, Inc.  The licensee
 of this program is prohibited from giving any competitor of
 Gaussian, Inc. access to this program.  By using this program,
 the user acknowledges that Gaussian, Inc. is engaged in the
 business of creating and licensing software in the field of
 computational chemistry and represents and warrants to the
 licensee that it is not a competitor of Gaussian, Inc. and that
 it will not use this program in any manner prohibited above.
 ---------------------------------------------------------------
  

 Cite this work as:
 Gaussian 16, Revision B.01,
 M. J. Frisch, G. W. Trucks, H. B. Schlegel, G. E. Scuseria, 
 M. A. Robb, J. R. Cheeseman, G. Scalmani, V. Barone, 
 G. A. Petersson, H. Nakatsuji, X. Li, M. Caricato, A. V. Marenich, 
 J. Bloino, B. G. Janesko, R. Gomperts, B. Mennucci, H. P. Hratchian, 
 J. V. Ortiz, A. F. Izmaylov, J. L. Sonnenberg, D. Williams-Young, 
 F. Ding, F. Lipparini, F. Egidi, J. Goings, B. Peng, A. Petrone, 
 T. Henderson, D. Ranasinghe, V. G. Zakrzewski, J. Gao, N. Rega, 
 G. Zheng, W. Liang, M. Hada, M. Ehara, K. Toyota, R. Fukuda, 
 J. Hasegawa, M. Ishida, T. Nakajima, Y. Honda, O. Kitao, H. Nakai, 
 T. Vreven, K. Throssell, J. A. Montgomery, Jr., J. E. Peralta, 
 F. Ogliaro, M. J. Bearpark, J. J. Heyd, E. N. Brothers, K. N. Kudin, 
 V. N. Staroverov, T. A. Keith, R. Kobayashi, J. Normand, 
 K. Raghavachari, A. P. Rendell, J. C. Burant, S. S. Iyengar, 
 J. Tomasi, M. Cossi, J. M. Millam, M. Klene, C. Adamo, R. Cammi, 
 J. W. Ochterski, R. L. Martin, K. Morokuma, O. Farkas, 
 J. B. Foresman, and D. J. Fox, Gaussian, Inc., Wallingford CT, 2016.
 
 ******************************************
 Gaussian 16:  ES64L-G16RevB.01 20-Dec-2017
                18-Jun-2022 
 ******************************************
 %mem=1000mw
 %nprocs=12
 Will use up to   12 processors via shared memory.
 --------------------
 # b3lyp/gen opt freq
 --------------------
 1/18=20,19=15,26=3,38=1/1,3;
 2/9=110,12=2,17=6,18=5,40=1/2;
 3/5=7,11=2,25=1,30=1,71=1,74=-5/1,2,3;
 4//1;
 5/5=2,38=5/2;
 6/7=2,8=2,9=2,10=2,28=1/1;
 7//1,2,3,16;
 1/18=20,19=15,26=3/3(2);
 2/9=110/2;
 99//99;
 2/9=110/2;
 3/5=7,6=1,11=2,25=1,30=1,71=1,74=-5,82=7/1,2,3;
 4/5=5,16=3,69=1/1;
 5/5=2,38=5/2;
 7//1,2,3,16;
 1/18=20,19=15,26=3/3(-5);
 2/9=110/2;
 6/7=2,8=2,9=2,10=2,19=2,28=1/1;
 99/9=1/99;
 -----------------------------
 propanoic acid, B3LYP/pcseg-2
 -----------------------------
 Symbolic Z-matrix:
 Charge =  0 Multiplicity = 1
 C                     0.        0.57267   0. 
 C                    -0.59006  -0.81678   0. 
 C                     0.4605   -1.92012   0. 
 O                    -0.97014   1.52389   0. 
 O                     1.17229   0.84951   0. 
 H                    -1.24876  -0.89096   0.87031 
 H                    -1.24876  -0.89096  -0.87031 
 H                    -0.02136  -2.89905   0. 
 H                     1.10196  -1.85328  -0.8791 
 H                     1.10196  -1.85328   0.8791 
 H                    -0.52489   2.38568   0. 
 

 GradGradGradGradGradGradGradGradGradGradGradGradGradGradGradGradGradGrad
 Berny optimization.
 Initialization pass.
                           ----------------------------
                           !    Initial Parameters    !
                           ! (Angstroms and Degrees)  !
 --------------------------                            --------------------------
 ! Name  Definition              Value          Derivative Info.                !
 --------------------------------------------------------------------------------
 ! R1    R(1,2)                  1.5095         estimate D2E/DX2                !
 ! R2    R(1,4)                  1.3587         estimate D2E/DX2                !
 ! R3    R(1,5)                  1.2045         estimate D2E/DX2                !
 ! R4    R(2,3)                  1.5235         estimate D2E/DX2                !
 ! R5    R(2,6)                  1.094          estimate D2E/DX2                !
 ! R6    R(2,7)                  1.094          estimate D2E/DX2                !
 ! R7    R(3,8)                  1.0911         estimate D2E/DX2                !
 ! R8    R(3,9)                  1.0903         estimate D2E/DX2                !
 ! R9    R(3,10)                 1.0903         estimate D2E/DX2                !
 ! R10   R(4,11)                 0.97           estimate D2E/DX2                !
 ! A1    A(2,1,4)              111.4264         estimate D2E/DX2                !
 ! A2    A(2,1,5)              126.297          estimate D2E/DX2                !
 ! A3    A(4,1,5)              122.2766         estimate D2E/DX2                !
 ! A4    A(1,2,3)              113.3943         estimate D2E/DX2                !
 ! A5    A(1,2,6)              107.3233         estimate D2E/DX2                !
 ! A6    A(1,2,7)              107.3233         estimate D2E/DX2                !
 ! A7    A(3,2,6)              111.4747         estimate D2E/DX2                !
 ! A8    A(3,2,7)              111.4747         estimate D2E/DX2                !
 ! A9    A(6,2,7)              105.4112         estimate D2E/DX2                !
 ! A10   A(2,3,8)              110.1961         estimate D2E/DX2                !
 ! A11   A(2,3,9)              111.1801         estimate D2E/DX2                !
 ! A12   A(2,3,10)             111.1801         estimate D2E/DX2                !
 ! A13   A(8,3,9)              108.3504         estimate D2E/DX2                !
 ! A14   A(8,3,10)             108.3504         estimate D2E/DX2                !
 ! A15   A(9,3,10)             107.4701         estimate D2E/DX2                !
 ! A16   A(1,4,11)             107.1123         estimate D2E/DX2                !
 ! D1    D(4,1,2,3)            180.0            estimate D2E/DX2                !
 ! D2    D(4,1,2,6)            -56.4426         estimate D2E/DX2                !
 ! D3    D(4,1,2,7)             56.4426         estimate D2E/DX2                !
 ! D4    D(5,1,2,3)              0.0            estimate D2E/DX2                !
 ! D5    D(5,1,2,6)            123.5574         estimate D2E/DX2                !
 ! D6    D(5,1,2,7)           -123.5574         estimate D2E/DX2                !
 ! D7    D(2,1,4,11)           180.0            estimate D2E/DX2                !
 ! D8    D(5,1,4,11)             0.0            estimate D2E/DX2                !
 ! D9    D(1,2,3,8)            180.0            estimate D2E/DX2                !
 ! D10   D(1,2,3,9)            -59.8486         estimate D2E/DX2                !
 ! D11   D(1,2,3,10)            59.8486         estimate D2E/DX2                !
 ! D12   D(6,2,3,8)             58.7464         estimate D2E/DX2                !
 ! D13   D(6,2,3,9)            178.8978         estimate D2E/DX2                !
 ! D14   D(6,2,3,10)           -61.405          estimate D2E/DX2                !
 ! D15   D(7,2,3,8)            -58.7464         estimate D2E/DX2                !
 ! D16   D(7,2,3,9)             61.405          estimate D2E/DX2                !
 ! D17   D(7,2,3,10)          -178.8978         estimate D2E/DX2                !
 --------------------------------------------------------------------------------
 Trust Radius=3.00D-01 FncErr=1.00D-07 GrdErr=1.00D-06 EigMax=2.50D+02 EigMin=1.00D-04
 Number of steps in this run=     53 maximum allowed number of steps=    100.
 GradGradGradGradGradGradGradGradGradGradGradGradGradGradGradGradGradGrad

                          Input orientation:                          
 ---------------------------------------------------------------------
 Center     Atomic      Atomic             Coordinates (Angstroms)
 Number     Number       Type             X           Y           Z
 ---------------------------------------------------------------------
      1          6           0        0.000000    0.572668    0.000000
      2          6           0       -0.590060   -0.816780    0.000000
      3          6           0        0.460497   -1.920122    0.000000
      4          8           0       -0.970139    1.523892    0.000000
      5          8           0        1.172291    0.849514    0.000000
      6          1           0       -1.248759   -0.890956    0.870308
      7          1           0       -1.248759   -0.890956   -0.870308
      8          1           0       -0.021360   -2.899050    0.000000
      9          1           0        1.101963   -1.853281   -0.879104
     10          1           0        1.101963   -1.853281    0.879104
     11          1           0       -0.524885    2.385682    0.000000
 ---------------------------------------------------------------------
                    Distance matrix (angstroms):
                    1          2          3          4          5
     1  C    0.000000
     2  C    1.509548   0.000000
     3  C    2.534967   1.523494   0.000000
     4  O    1.358675   2.371330   3.729337   0.000000
     5  O    1.204537   2.425369   2.859639   2.246061   0.000000
     6  H    2.111642   1.093994   2.176735   2.581967   3.106148
     7  H    2.111642   1.093994   2.176735   2.581967   3.106148
     8  H    3.471784   2.158534   1.091094   4.523560   3.934023
     9  H    2.805775   2.170276   1.090307   4.058538   2.843039
    10  H    2.805775   2.170276   1.090307   4.058538   2.843039
    11  H    1.887465   3.203125   4.417117   0.970017   2.289152
                    6          7          8          9         10
     6  H    0.000000
     7  H    1.740616   0.000000
     8  H    2.509260   2.509260   0.000000
     9  H    3.084219   2.540087   1.768703   0.000000
    10  H    2.540087   3.084219   1.768703   1.758208   0.000000
    11  H    3.466668   3.466668   5.308666   4.624745   4.624745
                   11
    11  H    0.000000
 Stoichiometry    C3H6O2
 Framework group  CS[SG(C3H2O2),X(H4)]
 Deg. of freedom    17
 Full point group                 CS      NOp   2
 Largest Abelian subgroup         CS      NOp   2
 Largest concise Abelian subgroup CS      NOp   2
                         Standard orientation:                         
 ---------------------------------------------------------------------
 Center     Atomic      Atomic             Coordinates (Angstroms)
 Number     Number       Type             X           Y           Z
 ---------------------------------------------------------------------
      1          6           0        0.000000    0.572668    0.000000
      2          6           0       -0.590060   -0.816780    0.000000
      3          6           0        0.460497   -1.920122    0.000000
      4          8           0       -0.970139    1.523892    0.000000
      5          8           0        1.172291    0.849514    0.000000
      6          1           0       -1.248759   -0.890956    0.870308
      7          1           0       -1.248759   -0.890956   -0.870308
      8          1           0       -0.021360   -2.899050    0.000000
      9          1           0        1.101963   -1.853281   -0.879104
     10          1           0        1.101963   -1.853281    0.879104
     11          1           0       -0.524885    2.385682    0.000000
 ---------------------------------------------------------------------
 Rotational constants (GHZ):          10.1792223           3.7923902           2.8594408
 General basis read from cards:  (5D, 7F)
 There are   172 symmetry adapted cartesian basis functions of A'  symmetry.
 There are    93 symmetry adapted cartesian basis functions of A"  symmetry.
 There are   148 symmetry adapted basis functions of A'  symmetry.
 There are    86 symmetry adapted basis functions of A"  symmetry.
   234 basis functions,   363 primitive gaussians,   265 cartesian basis functions
    20 alpha electrons       20 beta electrons
       nuclear repulsion energy       178.1218023083 Hartrees.
 NAtoms=   11 NActive=   11 NUniq=    9 SFac= 1.49D+00 NAtFMM=   60 NAOKFM=F Big=F
 Integral buffers will be    131072 words long.
 Raffenetti 2 integral format.
 Two-electron integral symmetry is turned on.
 One-electron integrals computed using PRISM.
 NBasis=   234 RedAO= T EigKep=  2.88D-04  NBF=   148    86
 NBsUse=   234 1.00D-06 EigRej= -1.00D+00 NBFU=   148    86
 ExpMin= 7.42D-02 ExpMax= 1.36D+04 ExpMxC= 4.64D+02 IAcc=3 IRadAn=         5 AccDes= 0.00D+00
 Harris functional with IExCor=  402 and IRadAn=       5 diagonalized for initial guess.
 HarFok:  IExCor=  402 AccDes= 0.00D+00 IRadAn=         5 IDoV= 1 UseB2=F ITyADJ=14
 ICtDFT=  3500011 ScaDFX=  1.000000  1.000000  1.000000  1.000000
 FoFCou: FMM=F IPFlag=           0 FMFlag=      100000 FMFlg1=           0
         NFxFlg=           0 DoJE=T BraDBF=F KetDBF=T FulRan=T
         wScrn=  0.000000 ICntrl=       500 IOpCl=  0 I1Cent=   200000004 NGrid=           0
         NMat0=    1 NMatS0=      1 NMatT0=    0 NMatD0=    1 NMtDS0=    0 NMtDT0=    0
 Petite list used in FoFCou.
 Initial guess orbital symmetries:
       Occupied  (A') (A') (A') (A') (A') (A') (A') (A') (A') (A')
                 (A') (A') (A") (A') (A") (A') (A') (A") (A") (A')
       Virtual   (A") (A') (A') (A') (A") (A') (A") (A') (A') (A')
                 (A') (A') (A") (A") (A') (A") (A') (A') (A') (A')
                 (A") (A') (A") (A') (A') (A') (A") (A') (A') (A')
                 (A') (A') (A") (A') (A') (A") (A') (A') (A") (A')
                 (A") (A') (A') (A") (A") (A') (A") (A") (A') (A')
                 (A") (A') (A") (A') (A") (A') (A') (A') (A") (A')
                 (A") (A') (A') (A") (A') (A') (A") (A') (A') (A')
                 (A") (A') (A") (A') (A') (A") (A") (A') (A') (A')
                 (A") (A') (A') (A') (A") (A') (A') (A") (A') (A')
                 (A') (A") (A') (A") (A') (A") (A') (A') (A") (A')
                 (A') (A') (A") (A') (A") (A') (A") (A') (A") (A')
                 (A") (A') (A') (A") (A') (A") (A') (A") (A') (A")
                 (A') (A") (A') (A") (A') (A") (A") (A') (A") (A")
                 (A') (A") (A') (A') (A') (A") (A') (A') (A") (A')
                 (A") (A') (A') (A") (A') (A') (A") (A') (A") (A')
                 (A") (A') (A") (A') (A') (A") (A") (A') (A') (A')
                 (A") (A") (A') (A') (A') (A") (A") (A') (A') (A')
                 (A') (A") (A') (A') (A') (A") (A') (A") (A") (A')
                 (A') (A") (A') (A') (A") (A") (A') (A") (A') (A")
                 (A') (A') (A') (A") (A") (A") (A') (A') (A") (A')
                 (A') (A") (A") (A') (A') (A") (A") (A') (A') (A')
                 (A') (A') (A') (A')
 The electronic state of the initial guess is 1-A'.
 Keep R1 ints in memory in symmetry-blocked form, NReq=568107927.
 Requested convergence on RMS density matrix=1.00D-08 within 128 cycles.
 Requested convergence on MAX density matrix=1.00D-06.
 Requested convergence on             energy=1.00D-06.
 No special actions if energy rises.
 Integral accuracy reduced to 1.0D-05 until final iterations.
 Initial convergence to 1.0D-05 achieved.  Increase integral accuracy.
 SCF Done:  E(RB3LYP) =  -268.520067128     A.U. after   13 cycles
            NFock= 13  Conv=0.36D-08     -V/T= 2.0036

 **********************************************************************

            Population analysis using the SCF Density.

 **********************************************************************

 Orbital symmetries:
       Occupied  (A') (A') (A') (A') (A') (A') (A') (A') (A') (A')
                 (A') (A') (A") (A") (A') (A') (A') (A") (A") (A')
       Virtual   (A") (A') (A') (A') (A") (A') (A") (A') (A') (A')
                 (A') (A") (A') (A") (A') (A") (A') (A') (A') (A")
                 (A') (A') (A') (A') (A") (A') (A") (A') (A') (A')
                 (A") (A') (A') (A') (A') (A") (A') (A') (A") (A")
                 (A') (A') (A') (A") (A") (A") (A') (A") (A') (A')
                 (A") (A") (A') (A') (A") (A') (A') (A') (A") (A')
                 (A') (A") (A') (A") (A') (A') (A') (A") (A') (A')
                 (A") (A') (A") (A') (A") (A') (A") (A') (A') (A')
                 (A") (A') (A') (A") (A') (A') (A') (A") (A') (A')
                 (A') (A") (A') (A") (A') (A") (A') (A') (A") (A')
                 (A') (A') (A") (A') (A") (A') (A") (A") (A') (A')
                 (A") (A') (A') (A") (A') (A') (A") (A") (A') (A")
                 (A') (A") (A') (A") (A') (A") (A") (A') (A") (A")
                 (A') (A") (A') (A') (A') (A") (A') (A") (A') (A')
                 (A") (A') (A') (A") (A') (A") (A') (A') (A") (A')
                 (A") (A') (A") (A') (A") (A') (A") (A') (A') (A')
                 (A") (A") (A') (A') (A') (A") (A") (A') (A') (A')
                 (A') (A") (A') (A') (A") (A') (A") (A') (A") (A')
                 (A') (A") (A') (A') (A") (A") (A') (A") (A') (A")
                 (A') (A') (A") (A') (A") (A') (A") (A') (A") (A')
                 (A') (A") (A") (A') (A') (A") (A') (A") (A') (A')
                 (A') (A') (A') (A')
 The electronic state is 1-A'.
 Alpha  occ. eigenvalues --  -19.17669 -19.12034 -10.31268 -10.19510 -10.17079
 Alpha  occ. eigenvalues --   -1.11504  -1.02680  -0.79617  -0.68305  -0.59402
 Alpha  occ. eigenvalues --   -0.50855  -0.49099  -0.49015  -0.42777  -0.42081
 Alpha  occ. eigenvalues --   -0.39101  -0.37707  -0.36182  -0.33584  -0.29087
 Alpha virt. eigenvalues --   -0.00620   0.00646   0.02138   0.05317   0.06099
 Alpha virt. eigenvalues --    0.07304   0.10330   0.14057   0.14573   0.15884
 Alpha virt. eigenvalues --    0.17124   0.17693   0.18792   0.20355   0.22881
 Alpha virt. eigenvalues --    0.26077   0.26958   0.30654   0.30996   0.32151
 Alpha virt. eigenvalues --    0.33963   0.34948   0.35510   0.35840   0.36907
 Alpha virt. eigenvalues --    0.39082   0.40646   0.41743   0.43223   0.48334
 Alpha virt. eigenvalues --    0.50071   0.50118   0.52331   0.57550   0.61333
 Alpha virt. eigenvalues --    0.64634   0.72459   0.78090   0.80374   0.81369
 Alpha virt. eigenvalues --    0.83189   0.84557   0.90242   0.91438   0.94577
 Alpha virt. eigenvalues --    0.96766   0.97563   0.99195   1.01330   1.04311
 Alpha virt. eigenvalues --    1.05828   1.09669   1.09820   1.12651   1.14638
 Alpha virt. eigenvalues --    1.16352   1.19333   1.21867   1.23733   1.26556
 Alpha virt. eigenvalues --    1.29400   1.31645   1.37101   1.37857   1.42938
 Alpha virt. eigenvalues --    1.43991   1.48241   1.49382   1.56363   1.57613
 Alpha virt. eigenvalues --    1.64227   1.66233   1.70277   1.72676   1.78143
 Alpha virt. eigenvalues --    1.78959   1.81798   1.82702   1.86897   1.89407
 Alpha virt. eigenvalues --    1.90487   1.92017   1.94008   1.99574   1.99750
 Alpha virt. eigenvalues --    2.03552   2.05892   2.09579   2.18333   2.25841
 Alpha virt. eigenvalues --    2.30007   2.36169   2.38788   2.45458   2.47800
 Alpha virt. eigenvalues --    2.53400   2.60953   2.70295   2.73137   2.89509
 Alpha virt. eigenvalues --    2.96735   3.05683   3.07724   3.12194   3.15931
 Alpha virt. eigenvalues --    3.17070   3.27898   3.29412   3.30694   3.33642
 Alpha virt. eigenvalues --    3.37078   3.40108   3.41504   3.49055   3.50478
 Alpha virt. eigenvalues --    3.52725   3.54391   3.62958   3.65026   3.66572
 Alpha virt. eigenvalues --    3.73561   3.73595   3.74645   3.78575   3.81847
 Alpha virt. eigenvalues --    3.83506   3.85150   3.88664   3.93266   3.96466
 Alpha virt. eigenvalues --    3.97193   4.00952   4.01084   4.06522   4.08080
 Alpha virt. eigenvalues --    4.11085   4.16610   4.18562   4.20126   4.24141
 Alpha virt. eigenvalues --    4.24406   4.25517   4.29472   4.30031   4.38176
 Alpha virt. eigenvalues --    4.41929   4.42290   4.43030   4.43451   4.48672
 Alpha virt. eigenvalues --    4.49371   4.50047   4.55705   4.56202   4.59103
 Alpha virt. eigenvalues --    4.60014   4.63328   4.64288   4.66438   4.69521
 Alpha virt. eigenvalues --    4.70398   4.73217   4.77227   4.80546   4.83735
 Alpha virt. eigenvalues --    4.84804   4.87705   4.92373   4.95676   4.99124
 Alpha virt. eigenvalues --    5.02403   5.05229   5.06787   5.19185   5.20112
 Alpha virt. eigenvalues --    5.22305   5.34642   5.35188   5.39736   5.42702
 Alpha virt. eigenvalues --    5.44996   5.51075   5.53169   5.59017   5.69874
 Alpha virt. eigenvalues --    5.70644   5.70829   5.76212   5.83058   5.86608
 Alpha virt. eigenvalues --    5.89525   5.90127   6.00731   6.01694   6.05155
 Alpha virt. eigenvalues --    6.05678   6.06042   6.08229   6.13014   6.19400
 Alpha virt. eigenvalues --    6.21127   6.21566   6.24445   6.26466   6.41697
 Alpha virt. eigenvalues --    6.46225   6.51917   6.54563   6.67836   6.86542
 Alpha virt. eigenvalues --    6.99927   7.04990   7.26171   7.54942
          Condensed to atoms (all electrons):
               1          2          3          4          5          6
     1  C    4.449508   0.311214  -0.051755   0.312699   0.591173  -0.024696
     2  C    0.311214   4.793451   0.316682  -0.097407  -0.077223   0.421781
     3  C   -0.051755   0.316682   4.566409   0.009177   0.013661  -0.036278
     4  O    0.312699  -0.097407   0.009177   7.921869  -0.107880   0.002043
     5  O    0.591173  -0.077223   0.013661  -0.107880   7.992404   0.000265
     6  H   -0.024696   0.421781  -0.036278   0.002043   0.000265   0.620542
     7  H   -0.024696   0.421781  -0.036278   0.002043   0.000265  -0.021921
     8  H    0.013227  -0.041223   0.424349  -0.000227   0.000520  -0.005534
     9  H   -0.010313  -0.023044   0.421354   0.000199   0.002068   0.008441
    10  H   -0.010313  -0.023044   0.421354   0.000199   0.002068  -0.006084
    11  H   -0.011961   0.013372  -0.001815   0.315796   0.010668  -0.000536
               7          8          9         10         11
     1  C   -0.024696   0.013227  -0.010313  -0.010313  -0.011961
     2  C    0.421781  -0.041223  -0.023044  -0.023044   0.013372
     3  C   -0.036278   0.424349   0.421354   0.421354  -0.001815
     4  O    0.002043  -0.000227   0.000199   0.000199   0.315796
     5  O    0.000265   0.000520   0.002068   0.002068   0.010668
     6  H   -0.021921  -0.005534   0.008441  -0.006084  -0.000536
     7  H    0.620542  -0.005534  -0.006084   0.008441  -0.000536
     8  H   -0.005534   0.639822  -0.028057  -0.028057   0.000074
     9  H   -0.006084  -0.028057   0.621072  -0.018914  -0.000051
    10  H    0.008441  -0.028057  -0.018914   0.621072  -0.000051
    11  H   -0.000536   0.000074  -0.000051  -0.000051   0.462509
 Mulliken charges:
               1
     1  C    0.455915
     2  C   -0.016338
     3  C   -0.046860
     4  O   -0.358513
     5  O   -0.427990
     6  H    0.041979
     7  H    0.041979
     8  H    0.030640
     9  H    0.033328
    10  H    0.033328
    11  H    0.212532
 Sum of Mulliken charges =  -0.00000
 Mulliken charges with hydrogens summed into heavy atoms:
               1
     1  C    0.455915
     2  C    0.067620
     3  C    0.050436
     4  O   -0.145981
     5  O   -0.427990
 Electronic spatial extent (au):  <R**2>=            445.4394
 Charge=             -0.0000 electrons
 Dipole moment (field-independent basis, Debye):
    X=             -1.5854    Y=             -0.4798    Z=             -0.0000  Tot=              1.6564
 Quadrupole moment (field-independent basis, Debye-Ang):
   XX=            -35.4911   YY=            -25.8343   ZZ=            -29.7963
   XY=             -0.6732   XZ=              0.0000   YZ=             -0.0000
 Traceless Quadrupole moment (field-independent basis, Debye-Ang):
   XX=             -5.1172   YY=              4.5396   ZZ=              0.5776
   XY=             -0.6732   XZ=              0.0000   YZ=             -0.0000
 Octapole moment (field-independent basis, Debye-Ang**2):
  XXX=             -2.2963  YYY=             25.1580  ZZZ=              0.0000  XYY=             -2.9316
  XXY=             -3.5208  XXZ=              0.0000  XZZ=             -0.1025  YZZ=              2.5540
  YYZ=              0.0000  XYZ=             -0.0000
 Hexadecapole moment (field-independent basis, Debye-Ang**3):
 XXXX=           -162.7086 YYYY=           -319.9020 ZZZZ=            -42.3517 XXXY=             21.7547
 XXXZ=              0.0000 YYYX=             15.0771 YYYZ=             -0.0000 ZZZX=             -0.0000
 ZZZY=              0.0000 XXYY=            -94.0423 XXZZ=            -31.0154 YYZZ=            -70.4916
 XXYZ=             -0.0000 YYXZ=              0.0000 ZZXY=              7.1598
 N-N= 1.781218023083D+02 E-N=-9.854985592402D+02  KE= 2.675619949923D+02
 Symmetry A'   KE= 2.551279752923D+02
 Symmetry A"   KE= 1.243401969998D+01
 Calling FoFJK, ICntrl=      2127 FMM=F ISym2X=1 I1Cent= 0 IOpClX= 0 NMat=1 NMatS=1 NMatT=0.
 ***** Axes restored to original set *****
 -------------------------------------------------------------------
 Center     Atomic                   Forces (Hartrees/Bohr)
 Number     Number              X              Y              Z
 -------------------------------------------------------------------
      1        6           0.001507855    0.001147263    0.000000000
      2        6          -0.000106993   -0.000068632   -0.000000000
      3        6           0.000277728   -0.000481782   -0.000000000
      4        8           0.002189459    0.001175646    0.000000000
      5        8          -0.003097875   -0.000557597    0.000000000
      6        1           0.000449557    0.000161358   -0.000737985
      7        1           0.000449557    0.000161358    0.000737985
      8        1           0.000456146    0.000850197    0.000000000
      9        1          -0.000568183   -0.000034282    0.000757850
     10        1          -0.000568183   -0.000034282   -0.000757850
     11        1          -0.000989070   -0.002319248    0.000000000
 -------------------------------------------------------------------
 Cartesian Forces:  Max     0.003097875 RMS     0.000963408

 GradGradGradGradGradGradGradGradGradGradGradGradGradGradGradGradGradGrad
 Berny optimization.
 FormGI is forming the generalized inverse of G from B-inverse, IUseBI=4.
 Internal  Forces:  Max     0.003143107 RMS     0.000750000
 Search for a local minimum.
 Step number   1 out of a maximum of   53
 All quantities printed in internal units (Hartrees-Bohrs-Radians)
 Mixed Optimization -- En-DIIS/RFO-DIIS
 Second derivative matrix not updated -- first step.
 ITU=  0
     Eigenvalues ---    0.00455   0.00640   0.01011   0.02238   0.03998
     Eigenvalues ---    0.05240   0.05576   0.05643   0.09710   0.12968
     Eigenvalues ---    0.16000   0.16000   0.16000   0.16000   0.21894
     Eigenvalues ---    0.25000   0.25000   0.30033   0.31396   0.34355
     Eigenvalues ---    0.34355   0.34687   0.34777   0.34777   0.53216
     Eigenvalues ---    0.53373   1.02576
 RFO step:  Lambda=-4.30646456D-05 EMin= 4.55168635D-03
 Linear search not attempted -- first point.
 Iteration  1 RMS(Cart)=  0.00208899 RMS(Int)=  0.00000123
 Iteration  2 RMS(Cart)=  0.00000154 RMS(Int)=  0.00000025
 Iteration  3 RMS(Cart)=  0.00000000 RMS(Int)=  0.00000025
 ClnCor:  largest displacement from symmetrization is 3.00D-10 for atom    11.
 Variable       Old X    -DE/DX   Delta X   Delta X   Delta X     New X
                                 (Linear)    (Quad)   (Total)
    R1        2.85263  -0.00066   0.00000  -0.00211  -0.00211   2.85052
    R2        2.56752  -0.00166   0.00000  -0.00311  -0.00311   2.56441
    R3        2.27625  -0.00314   0.00000  -0.00306  -0.00306   2.27318
    R4        2.87899  -0.00049   0.00000  -0.00165  -0.00165   2.87734
    R5        2.06735  -0.00087   0.00000  -0.00253  -0.00253   2.06482
    R6        2.06735  -0.00087   0.00000  -0.00253  -0.00253   2.06482
    R7        2.06187  -0.00096   0.00000  -0.00278  -0.00278   2.05909
    R8        2.06038  -0.00095   0.00000  -0.00272  -0.00272   2.05766
    R9        2.06038  -0.00095   0.00000  -0.00272  -0.00272   2.05766
   R10        1.83307  -0.00251   0.00000  -0.00471  -0.00471   1.82836
    A1        1.94476   0.00014   0.00000   0.00056   0.00056   1.94531
    A2        2.20430   0.00012   0.00000   0.00049   0.00049   2.20479
    A3        2.13413  -0.00026   0.00000  -0.00105  -0.00105   2.13308
    A4        1.97910   0.00017   0.00000   0.00093   0.00093   1.98003
    A5        1.87314  -0.00012   0.00000  -0.00085  -0.00085   1.87229
    A6        1.87314  -0.00012   0.00000  -0.00085  -0.00085   1.87229
    A7        1.94560   0.00005   0.00000   0.00072   0.00072   1.94632
    A8        1.94560   0.00005   0.00000   0.00072   0.00072   1.94632
    A9        1.83977  -0.00004   0.00000  -0.00090  -0.00090   1.83887
   A10        1.92328   0.00007   0.00000   0.00049   0.00049   1.92378
   A11        1.94046  -0.00004   0.00000  -0.00031  -0.00031   1.94015
   A12        1.94046  -0.00004   0.00000  -0.00031  -0.00031   1.94015
   A13        1.89107  -0.00000   0.00000   0.00006   0.00006   1.89113
   A14        1.89107  -0.00000   0.00000   0.00006   0.00006   1.89113
   A15        1.87571   0.00003   0.00000   0.00001   0.00001   1.87572
   A16        1.86946  -0.00034   0.00000  -0.00213  -0.00213   1.86733
    D1        3.14159   0.00000   0.00000   0.00000   0.00000   3.14159
    D2       -0.98511   0.00008   0.00000   0.00092   0.00092  -0.98419
    D3        0.98511  -0.00008   0.00000  -0.00092  -0.00092   0.98419
    D4        0.00000   0.00000   0.00000   0.00000   0.00000   0.00000
    D5        2.15648   0.00008   0.00000   0.00092   0.00092   2.15740
    D6       -2.15648  -0.00008   0.00000  -0.00092  -0.00092  -2.15740
    D7        3.14159  -0.00000   0.00000   0.00000   0.00000   3.14159
    D8        0.00000  -0.00000   0.00000  -0.00000   0.00000   0.00000
    D9        3.14159   0.00000   0.00000   0.00000   0.00000   3.14159
   D10       -1.04456   0.00001   0.00000   0.00020   0.00020  -1.04436
   D11        1.04456  -0.00001   0.00000  -0.00020  -0.00020   1.04436
   D12        1.02532   0.00000   0.00000  -0.00010  -0.00010   1.02522
   D13        3.12236   0.00001   0.00000   0.00010   0.00010   3.12246
   D14       -1.07172  -0.00001   0.00000  -0.00029  -0.00029  -1.07201
   D15       -1.02532  -0.00000   0.00000   0.00010   0.00010  -1.02522
   D16        1.07172   0.00001   0.00000   0.00029   0.00029   1.07201
   D17       -3.12236  -0.00001   0.00000  -0.00010  -0.00010  -3.12246
         Item               Value     Threshold  Converged?
 Maximum Force            0.003143     0.000450     NO 
 RMS     Force            0.000750     0.000300     NO 
 Maximum Displacement     0.008923     0.001800     NO 
 RMS     Displacement     0.002089     0.001200     NO 
 Predicted change in Energy=-2.153204D-05
 GradGradGradGradGradGradGradGradGradGradGradGradGradGradGradGradGradGrad

                          Input orientation:                          
 ---------------------------------------------------------------------
 Center     Atomic      Atomic             Coordinates (Angstroms)
 Number     Number       Type             X           Y           Z
 ---------------------------------------------------------------------
      1          6           0       -0.000484    0.572264    0.000000
      2          6           0       -0.589327   -0.816487    0.000000
      3          6           0        0.460223   -1.919585    0.000000
      4          8           0       -0.969450    1.522330    0.000000
      5          8           0        1.169937    0.849971    0.000000
      6          1           0       -1.247706   -0.889754    0.868946
      7          1           0       -1.247706   -0.889754   -0.868946
      8          1           0       -0.020862   -2.897254    0.000000
      9          1           0        1.100820   -1.852681   -0.877945
     10          1           0        1.100820   -1.852681    0.877945
     11          1           0       -0.523515    2.380960    0.000000
 ---------------------------------------------------------------------
                    Distance matrix (angstroms):
                    1          2          3          4          5
     1  C    0.000000
     2  C    1.508432   0.000000
     3  C    2.534080   1.522622   0.000000
     4  O    1.357026   2.369506   3.727028   0.000000
     5  O    1.202916   2.423241   2.859044   2.242553   0.000000
     6  H    2.109058   1.092656   2.175463   2.578884   3.102694
     7  H    2.109058   1.092656   2.175463   2.578884   3.102694
     8  H    3.469578   2.157021   1.089623   4.520237   3.931882
     9  H    2.804286   2.168198   1.088866   4.055553   2.842516
    10  H    2.804286   2.168198   1.088866   4.055553   2.842516
    11  H    1.882802   3.198125   4.411624   0.967524   2.282917
                    6          7          8          9         10
     6  H    0.000000
     7  H    1.737892   0.000000
     8  H    2.508041   2.508041   0.000000
     9  H    3.081304   2.538284   1.766377   0.000000
    10  H    2.538284   3.081304   1.766377   1.755890   0.000000
    11  H    3.460793   3.460793   5.302094   4.618763   4.618763
                   11
    11  H    0.000000
 Stoichiometry    C3H6O2
 Framework group  CS[SG(C3H2O2),X(H4)]
 Deg. of freedom    17
 Full point group                 CS      NOp   2
 Largest Abelian subgroup         CS      NOp   2
 Largest concise Abelian subgroup CS      NOp   2
                         Standard orientation:                         
 ---------------------------------------------------------------------
 Center     Atomic      Atomic             Coordinates (Angstroms)
 Number     Number       Type             X           Y           Z
 ---------------------------------------------------------------------
      1          6           0        0.000000    0.572404    0.000000
      2          6           0       -0.589303   -0.816153    0.000000
      3          6           0        0.459883   -1.919597    0.000000
      4          8           0       -0.968652    1.522790    0.000000
      5          8           0        1.170513    0.849724    0.000000
      6          1           0       -1.247705   -0.889201    0.868946
      7          1           0       -1.247705   -0.889201   -0.868946
      8          1           0       -0.021524   -2.897107    0.000000
      9          1           0        1.100502   -1.852905   -0.877945
     10          1           0        1.100502   -1.852905    0.877945
     11          1           0       -0.522434    2.381273    0.000000
 ---------------------------------------------------------------------
 Rotational constants (GHZ):          10.2070338           3.7968492           2.8638810
 Basis read from rwf:  (5D, 7F)
 There are   172 symmetry adapted cartesian basis functions of A'  symmetry.
 There are    93 symmetry adapted cartesian basis functions of A"  symmetry.
 There are   148 symmetry adapted basis functions of A'  symmetry.
 There are    86 symmetry adapted basis functions of A"  symmetry.
   234 basis functions,   363 primitive gaussians,   265 cartesian basis functions
    20 alpha electrons       20 beta electrons
       nuclear repulsion energy       178.3055573774 Hartrees.
 NAtoms=   11 NActive=   11 NUniq=    9 SFac= 1.49D+00 NAtFMM=   60 NAOKFM=F Big=F
 Integral buffers will be    131072 words long.
 Raffenetti 2 integral format.
 Two-electron integral symmetry is turned on.
 One-electron integrals computed using PRISM.
 NBasis=   234 RedAO= T EigKep=  2.87D-04  NBF=   148    86
 NBsUse=   234 1.00D-06 EigRej= -1.00D+00 NBFU=   148    86
 Initial guess from the checkpoint file:  "/wrk/irikura/Gau-929.chk"
 B after Tr=     0.000000    0.000000    0.000000
         Rot=    1.000000   -0.000000    0.000000    0.000053 Ang=   0.01 deg.
 Initial guess orbital symmetries:
       Occupied  (A') (A') (A') (A') (A') (A') (A') (A') (A') (A')
                 (A') (A') (A") (A") (A') (A') (A') (A") (A") (A')
       Virtual   (A") (A') (A') (A') (A") (A') (A") (A') (A') (A')
                 (A') (A") (A') (A") (A') (A") (A') (A') (A') (A")
                 (A') (A') (A') (A') (A") (A') (A") (A') (A') (A')
                 (A") (A') (A') (A') (A') (A") (A') (A') (A") (A")
                 (A') (A') (A') (A") (A") (A") (A') (A") (A') (A')
                 (A") (A") (A') (A') (A") (A') (A') (A') (A") (A')
                 (A') (A") (A') (A") (A') (A') (A') (A") (A') (A')
                 (A") (A') (A") (A') (A") (A') (A") (A') (A') (A')
                 (A") (A') (A') (A") (A') (A') (A') (A") (A') (A')
                 (A') (A") (A') (A") (A') (A") (A') (A') (A") (A')
                 (A') (A') (A") (A') (A") (A') (A") (A") (A') (A')
                 (A") (A') (A') (A") (A') (A') (A") (A") (A') (A")
                 (A') (A") (A') (A") (A') (A") (A") (A') (A") (A")
                 (A') (A") (A') (A') (A') (A") (A') (A") (A') (A')
                 (A") (A') (A') (A") (A') (A") (A') (A') (A") (A')
                 (A") (A') (A") (A') (A") (A') (A") (A') (A') (A')
                 (A") (A") (A') (A') (A') (A") (A") (A') (A') (A')
                 (A') (A") (A') (A') (A") (A') (A") (A') (A") (A')
                 (A') (A") (A') (A') (A") (A") (A') (A") (A') (A")
                 (A') (A') (A") (A') (A") (A') (A") (A') (A") (A')
                 (A') (A") (A") (A') (A') (A") (A') (A") (A') (A')
                 (A') (A') (A') (A')
 Keep R1 ints in memory in symmetry-blocked form, NReq=568107927.
 Requested convergence on RMS density matrix=1.00D-08 within 128 cycles.
 Requested convergence on MAX density matrix=1.00D-06.
 Requested convergence on             energy=1.00D-06.
 No special actions if energy rises.
 SCF Done:  E(RB3LYP) =  -268.520088897     A.U. after    8 cycles
            NFock=  8  Conv=0.42D-08     -V/T= 2.0035
 Calling FoFJK, ICntrl=      2127 FMM=F ISym2X=1 I1Cent= 0 IOpClX= 0 NMat=1 NMatS=1 NMatT=0.
 ***** Axes restored to original set *****
 -------------------------------------------------------------------
 Center     Atomic                   Forces (Hartrees/Bohr)
 Number     Number              X              Y              Z
 -------------------------------------------------------------------
      1        6           0.000043645    0.000138834   -0.000000000
      2        6           0.000114120   -0.000089097    0.000000000
      3        6          -0.000042520   -0.000034002   -0.000000000
      4        8           0.000221936    0.000075041    0.000000000
      5        8          -0.000126978   -0.000078045    0.000000000
      6        1          -0.000038744    0.000004163   -0.000008223
      7        1          -0.000038744    0.000004163    0.000008223
      8        1           0.000016956    0.000012358   -0.000000000
      9        1           0.000002307    0.000002252   -0.000004820
     10        1           0.000002307    0.000002252    0.000004820
     11        1          -0.000154286   -0.000037920    0.000000000
 -------------------------------------------------------------------
 Cartesian Forces:  Max     0.000221936 RMS     0.000067673

 GradGradGradGradGradGradGradGradGradGradGradGradGradGradGradGradGradGrad
 Berny optimization.
 Using GEDIIS/GDIIS optimizer.
 FormGI is forming the generalized inverse of G from B-inverse, IUseBI=4.
 Internal  Forces:  Max     0.000218432 RMS     0.000047650
 Search for a local minimum.
 Step number   2 out of a maximum of   53
 All quantities printed in internal units (Hartrees-Bohrs-Radians)
 Mixed Optimization -- En-DIIS/RFO-DIIS
 Swapping is turned off.
 Update second derivatives using D2CorX and points    1    2
 DE= -2.18D-05 DEPred=-2.15D-05 R= 1.01D+00
 TightC=F SS=  1.41D+00  RLast= 9.91D-03 DXNew= 5.0454D-01 2.9732D-02
 Trust test= 1.01D+00 RLast= 9.91D-03 DXMaxT set to 3.00D-01
 ITU=  1  0
     Eigenvalues ---    0.00455   0.00640   0.01011   0.02238   0.03991
     Eigenvalues ---    0.05222   0.05579   0.05641   0.09688   0.12975
     Eigenvalues ---    0.15988   0.16000   0.16000   0.16299   0.21857
     Eigenvalues ---    0.24979   0.25087   0.30031   0.31615   0.34355
     Eigenvalues ---    0.34484   0.34655   0.34777   0.35026   0.52150
     Eigenvalues ---    0.53305   1.00833
 En-DIIS/RFO-DIIS/Sim-DIIS IScMMF=       -3 using points:     2    1
 RFO step:  Lambda=-4.46163847D-07.
 DidBck=F Rises=F RFO-DIIS coefs:    1.00500   -0.00500
 Iteration  1 RMS(Cart)=  0.00039177 RMS(Int)=  0.00000025
 Iteration  2 RMS(Cart)=  0.00000024 RMS(Int)=  0.00000001
 ClnCor:  largest displacement from symmetrization is 6.30D-12 for atom    11.
 Variable       Old X    -DE/DX   Delta X   Delta X   Delta X     New X
                                 (Linear)    (Quad)   (Total)
    R1        2.85052   0.00008  -0.00001   0.00026   0.00025   2.85077
    R2        2.56441  -0.00002  -0.00002  -0.00006  -0.00007   2.56433
    R3        2.27318  -0.00014  -0.00002  -0.00016  -0.00017   2.27301
    R4        2.87734  -0.00000  -0.00001  -0.00002  -0.00002   2.87732
    R5        2.06482   0.00002  -0.00001   0.00004   0.00002   2.06484
    R6        2.06482   0.00002  -0.00001   0.00004   0.00002   2.06484
    R7        2.05909  -0.00002  -0.00001  -0.00007  -0.00008   2.05901
    R8        2.05766   0.00001  -0.00001   0.00000  -0.00001   2.05765
    R9        2.05766   0.00001  -0.00001   0.00000  -0.00001   2.05765
   R10        1.82836  -0.00010  -0.00002  -0.00022  -0.00025   1.82811
    A1        1.94531   0.00002   0.00000   0.00007   0.00007   1.94538
    A2        2.20479  -0.00006   0.00000  -0.00024  -0.00024   2.20455
    A3        2.13308   0.00005  -0.00001   0.00018   0.00017   2.13325
    A4        1.98003   0.00004   0.00000   0.00027   0.00027   1.98030
    A5        1.87229  -0.00002  -0.00000  -0.00005  -0.00005   1.87224
    A6        1.87229  -0.00002  -0.00000  -0.00005  -0.00005   1.87224
    A7        1.94632   0.00000   0.00000   0.00009   0.00009   1.94641
    A8        1.94632   0.00000   0.00000   0.00009   0.00009   1.94641
    A9        1.83887  -0.00002  -0.00000  -0.00040  -0.00041   1.83847
   A10        1.92378   0.00002   0.00000   0.00012   0.00012   1.92390
   A11        1.94015  -0.00001  -0.00000  -0.00004  -0.00004   1.94011
   A12        1.94015  -0.00001  -0.00000  -0.00004  -0.00004   1.94011
   A13        1.89113  -0.00000   0.00000  -0.00001  -0.00001   1.89112
   A14        1.89113  -0.00000   0.00000  -0.00001  -0.00001   1.89112
   A15        1.87572   0.00000   0.00000  -0.00001  -0.00001   1.87570
   A16        1.86733   0.00022  -0.00001   0.00137   0.00136   1.86869
    D1        3.14159   0.00000   0.00000   0.00000   0.00000   3.14159
    D2       -0.98419   0.00002   0.00000   0.00025   0.00026  -0.98394
    D3        0.98419  -0.00002  -0.00000  -0.00025  -0.00026   0.98394
    D4        0.00000   0.00000   0.00000   0.00000   0.00000   0.00000
    D5        2.15740   0.00002   0.00000   0.00025   0.00026   2.15766
    D6       -2.15740  -0.00002  -0.00000  -0.00025  -0.00026  -2.15766
    D7        3.14159  -0.00000   0.00000  -0.00000   0.00000   3.14159
    D8        0.00000  -0.00000   0.00000   0.00000   0.00000   0.00000
    D9        3.14159  -0.00000   0.00000   0.00000   0.00000   3.14159
   D10       -1.04436   0.00000   0.00000   0.00004   0.00004  -1.04432
   D11        1.04436  -0.00000  -0.00000  -0.00004  -0.00004   1.04432
   D12        1.02522  -0.00001  -0.00000  -0.00020  -0.00020   1.02502
   D13        3.12246  -0.00001   0.00000  -0.00016  -0.00016   3.12230
   D14       -1.07201  -0.00001  -0.00000  -0.00023  -0.00023  -1.07225
   D15       -1.02522   0.00001   0.00000   0.00020   0.00020  -1.02502
   D16        1.07201   0.00001   0.00000   0.00023   0.00023   1.07225
   D17       -3.12246   0.00001  -0.00000   0.00016   0.00016  -3.12230
         Item               Value     Threshold  Converged?
 Maximum Force            0.000218     0.000450     YES
 RMS     Force            0.000048     0.000300     YES
 Maximum Displacement     0.001775     0.001800     YES
 RMS     Displacement     0.000392     0.001200     YES
 Predicted change in Energy=-2.230840D-07
 Optimization completed.
    -- Stationary point found.
                           ----------------------------
                           !   Optimized Parameters   !
                           ! (Angstroms and Degrees)  !
 --------------------------                            --------------------------
 ! Name  Definition              Value          Derivative Info.                !
 --------------------------------------------------------------------------------
 ! R1    R(1,2)                  1.5084         -DE/DX =    0.0001              !
 ! R2    R(1,4)                  1.357          -DE/DX =    0.0                 !
 ! R3    R(1,5)                  1.2029         -DE/DX =   -0.0001              !
 ! R4    R(2,3)                  1.5226         -DE/DX =    0.0                 !
 ! R5    R(2,6)                  1.0927         -DE/DX =    0.0                 !
 ! R6    R(2,7)                  1.0927         -DE/DX =    0.0                 !
 ! R7    R(3,8)                  1.0896         -DE/DX =    0.0                 !
 ! R8    R(3,9)                  1.0889         -DE/DX =    0.0                 !
 ! R9    R(3,10)                 1.0889         -DE/DX =    0.0                 !
 ! R10   R(4,11)                 0.9675         -DE/DX =   -0.0001              !
 ! A1    A(2,1,4)              111.4583         -DE/DX =    0.0                 !
 ! A2    A(2,1,5)              126.3252         -DE/DX =   -0.0001              !
 ! A3    A(4,1,5)              122.2165         -DE/DX =    0.0                 !
 ! A4    A(1,2,3)              113.4475         -DE/DX =    0.0                 !
 ! A5    A(1,2,6)              107.2744         -DE/DX =    0.0                 !
 ! A6    A(1,2,7)              107.2744         -DE/DX =    0.0                 !
 ! A7    A(3,2,6)              111.516          -DE/DX =    0.0                 !
 ! A8    A(3,2,7)              111.516          -DE/DX =    0.0                 !
 ! A9    A(6,2,7)              105.3597         -DE/DX =    0.0                 !
 ! A10   A(2,3,8)              110.2244         -DE/DX =    0.0                 !
 ! A11   A(2,3,9)              111.1626         -DE/DX =    0.0                 !
 ! A12   A(2,3,10)             111.1626         -DE/DX =    0.0                 !
 ! A13   A(8,3,9)              108.3536         -DE/DX =    0.0                 !
 ! A14   A(8,3,10)             108.3536         -DE/DX =    0.0                 !
 ! A15   A(9,3,10)             107.4707         -DE/DX =    0.0                 !
 ! A16   A(1,4,11)             106.9903         -DE/DX =    0.0002              !
 ! D1    D(4,1,2,3)            180.0            -DE/DX =    0.0                 !
 ! D2    D(4,1,2,6)            -56.3902         -DE/DX =    0.0                 !
 ! D3    D(4,1,2,7)             56.3902         -DE/DX =    0.0                 !
 ! D4    D(5,1,2,3)              0.0            -DE/DX =    0.0                 !
 ! D5    D(5,1,2,6)            123.6098         -DE/DX =    0.0                 !
 ! D6    D(5,1,2,7)           -123.6098         -DE/DX =    0.0                 !
 ! D7    D(2,1,4,11)           180.0            -DE/DX =    0.0                 !
 ! D8    D(5,1,4,11)             0.0            -DE/DX =    0.0                 !
 ! D9    D(1,2,3,8)            180.0            -DE/DX =    0.0                 !
 ! D10   D(1,2,3,9)            -59.8373         -DE/DX =    0.0                 !
 ! D11   D(1,2,3,10)            59.8373         -DE/DX =    0.0                 !
 ! D12   D(6,2,3,8)             58.7409         -DE/DX =    0.0                 !
 ! D13   D(6,2,3,9)            178.9036         -DE/DX =    0.0                 !
 ! D14   D(6,2,3,10)           -61.4219         -DE/DX =    0.0                 !
 ! D15   D(7,2,3,8)            -58.7409         -DE/DX =    0.0                 !
 ! D16   D(7,2,3,9)             61.4219         -DE/DX =    0.0                 !
 ! D17   D(7,2,3,10)          -178.9036         -DE/DX =    0.0                 !
 --------------------------------------------------------------------------------
 GradGradGradGradGradGradGradGradGradGradGradGradGradGradGradGradGradGrad

                          Input orientation:                          
 ---------------------------------------------------------------------
 Center     Atomic      Atomic             Coordinates (Angstroms)
 Number     Number       Type             X           Y           Z
 ---------------------------------------------------------------------
      1          6           0       -0.000484    0.572264    0.000000
      2          6           0       -0.589327   -0.816487    0.000000
      3          6           0        0.460223   -1.919585    0.000000
      4          8           0       -0.969450    1.522330    0.000000
      5          8           0        1.169937    0.849971    0.000000
      6          1           0       -1.247706   -0.889754    0.868946
      7          1           0       -1.247706   -0.889754   -0.868946
      8          1           0       -0.020862   -2.897254    0.000000
      9          1           0        1.100820   -1.852681   -0.877945
     10          1           0        1.100820   -1.852681    0.877945
     11          1           0       -0.523515    2.380960    0.000000
 ---------------------------------------------------------------------
                    Distance matrix (angstroms):
                    1          2          3          4          5
     1  C    0.000000
     2  C    1.508432   0.000000
     3  C    2.534080   1.522622   0.000000
     4  O    1.357026   2.369506   3.727028   0.000000
     5  O    1.202916   2.423241   2.859044   2.242553   0.000000
     6  H    2.109058   1.092656   2.175463   2.578884   3.102694
     7  H    2.109058   1.092656   2.175463   2.578884   3.102694
     8  H    3.469578   2.157021   1.089623   4.520237   3.931882
     9  H    2.804286   2.168198   1.088866   4.055553   2.842516
    10  H    2.804286   2.168198   1.088866   4.055553   2.842516
    11  H    1.882802   3.198125   4.411624   0.967524   2.282917
                    6          7          8          9         10
     6  H    0.000000
     7  H    1.737892   0.000000
     8  H    2.508041   2.508041   0.000000
     9  H    3.081304   2.538284   1.766377   0.000000
    10  H    2.538284   3.081304   1.766377   1.755890   0.000000
    11  H    3.460793   3.460793   5.302094   4.618763   4.618763
                   11
    11  H    0.000000
 Stoichiometry    C3H6O2
 Framework group  CS[SG(C3H2O2),X(H4)]
 Deg. of freedom    17
 Full point group                 CS      NOp   2
 Largest Abelian subgroup         CS      NOp   2
 Largest concise Abelian subgroup CS      NOp   2
                         Standard orientation:                         
 ---------------------------------------------------------------------
 Center     Atomic      Atomic             Coordinates (Angstroms)
 Number     Number       Type             X           Y           Z
 ---------------------------------------------------------------------
      1          6           0       -0.000000    0.572404    0.000000
      2          6           0       -0.589303   -0.816153    0.000000
      3          6           0        0.459883   -1.919597    0.000000
      4          8           0       -0.968652    1.522790    0.000000
      5          8           0        1.170513    0.849724    0.000000
      6          1           0       -1.247705   -0.889201    0.868946
      7          1           0       -1.247705   -0.889201   -0.868946
      8          1           0       -0.021524   -2.897107    0.000000
      9          1           0        1.100502   -1.852905   -0.877945
     10          1           0        1.100502   -1.852905    0.877945
     11          1           0       -0.522434    2.381273    0.000000
 ---------------------------------------------------------------------
 Rotational constants (GHZ):          10.2070338           3.7968492           2.8638810

 **********************************************************************

            Population analysis using the SCF Density.

 **********************************************************************

 Orbital symmetries:
       Occupied  (A') (A') (A') (A') (A') (A') (A') (A') (A') (A')
                 (A') (A') (A") (A") (A') (A') (A') (A") (A") (A')
       Virtual   (A") (A') (A') (A') (A") (A') (A") (A') (A') (A')
                 (A') (A") (A') (A") (A') (A") (A') (A') (A') (A")
                 (A') (A') (A') (A') (A") (A') (A") (A') (A') (A')
                 (A") (A') (A') (A') (A') (A") (A') (A') (A") (A")
                 (A') (A') (A') (A") (A") (A") (A') (A") (A') (A')
                 (A") (A") (A') (A') (A") (A') (A') (A') (A") (A')
                 (A') (A") (A') (A") (A') (A') (A') (A") (A') (A')
                 (A") (A') (A") (A') (A") (A') (A") (A') (A') (A')
                 (A") (A') (A') (A") (A') (A') (A') (A") (A') (A')
                 (A') (A") (A') (A") (A') (A") (A') (A') (A") (A')
                 (A') (A') (A") (A') (A") (A') (A") (A") (A') (A')
                 (A") (A') (A') (A") (A') (A') (A") (A") (A') (A")
                 (A") (A') (A') (A") (A') (A") (A") (A') (A") (A")
                 (A') (A") (A') (A') (A') (A") (A') (A") (A') (A')
                 (A") (A') (A') (A") (A') (A") (A') (A') (A") (A')
                 (A") (A') (A") (A') (A") (A') (A") (A') (A') (A')
                 (A") (A") (A') (A') (A') (A") (A") (A') (A') (A')
                 (A') (A") (A') (A') (A") (A') (A") (A') (A") (A')
                 (A') (A") (A') (A') (A") (A") (A') (A") (A') (A")
                 (A') (A') (A") (A') (A") (A') (A") (A') (A") (A')
                 (A') (A") (A") (A') (A') (A") (A') (A") (A') (A')
                 (A') (A') (A') (A')
 The electronic state is 1-A'.
 Alpha  occ. eigenvalues --  -19.17641 -19.12005 -10.31215 -10.19452 -10.17024
 Alpha  occ. eigenvalues --   -1.11622  -1.02747  -0.79661  -0.68357  -0.59445
 Alpha  occ. eigenvalues --   -0.50879  -0.49133  -0.49064  -0.42819  -0.42112
 Alpha  occ. eigenvalues --   -0.39122  -0.37726  -0.36197  -0.33599  -0.29084
 Alpha virt. eigenvalues --   -0.00554   0.00670   0.02173   0.05332   0.06112
 Alpha virt. eigenvalues --    0.07317   0.10346   0.14074   0.14589   0.15891
 Alpha virt. eigenvalues --    0.17155   0.17689   0.18851   0.20365   0.22920
 Alpha virt. eigenvalues --    0.26082   0.26997   0.30738   0.31040   0.32178
 Alpha virt. eigenvalues --    0.34006   0.35006   0.35553   0.35893   0.36953
 Alpha virt. eigenvalues --    0.39153   0.40660   0.41818   0.43269   0.48354
 Alpha virt. eigenvalues --    0.50091   0.50158   0.52479   0.57573   0.61352
 Alpha virt. eigenvalues --    0.64653   0.72502   0.78109   0.80423   0.81404
 Alpha virt. eigenvalues --    0.83196   0.84553   0.90260   0.91425   0.94574
 Alpha virt. eigenvalues --    0.96741   0.97604   0.99265   1.01300   1.04391
 Alpha virt. eigenvalues --    1.05897   1.09720   1.09869   1.12688   1.14743
 Alpha virt. eigenvalues --    1.16398   1.19384   1.21851   1.23790   1.26486
 Alpha virt. eigenvalues --    1.29390   1.31669   1.37119   1.37940   1.43074
 Alpha virt. eigenvalues --    1.44047   1.48331   1.49437   1.56444   1.57754
 Alpha virt. eigenvalues --    1.64309   1.66403   1.70395   1.72864   1.78348
 Alpha virt. eigenvalues --    1.79022   1.81898   1.82788   1.87051   1.89514
 Alpha virt. eigenvalues --    1.90609   1.92079   1.94128   1.99707   1.99853
 Alpha virt. eigenvalues --    2.03656   2.06052   2.09700   2.18535   2.25939
 Alpha virt. eigenvalues --    2.30127   2.36300   2.38960   2.45605   2.48003
 Alpha virt. eigenvalues --    2.53581   2.61186   2.70442   2.73471   2.89659
 Alpha virt. eigenvalues --    2.96973   3.05756   3.07812   3.12232   3.16097
 Alpha virt. eigenvalues --    3.17281   3.28074   3.29592   3.30850   3.33905
 Alpha virt. eigenvalues --    3.37267   3.40280   3.41747   3.49159   3.50637
 Alpha virt. eigenvalues --    3.52850   3.54567   3.63043   3.65202   3.66639
 Alpha virt. eigenvalues --    3.73694   3.73712   3.74811   3.78619   3.81962
 Alpha virt. eigenvalues --    3.83600   3.85231   3.88704   3.93398   3.96552
 Alpha virt. eigenvalues --    3.97267   4.01000   4.01363   4.06746   4.08223
 Alpha virt. eigenvalues --    4.11053   4.16863   4.18658   4.20450   4.24243
 Alpha virt. eigenvalues --    4.24523   4.25747   4.29638   4.30183   4.38337
 Alpha virt. eigenvalues --    4.42147   4.42601   4.43328   4.43689   4.48785
 Alpha virt. eigenvalues --    4.49582   4.50287   4.55843   4.56482   4.59375
 Alpha virt. eigenvalues --    4.60162   4.63592   4.64552   4.66585   4.69777
 Alpha virt. eigenvalues --    4.70658   4.73744   4.77461   4.80900   4.83937
 Alpha virt. eigenvalues --    4.85013   4.88062   4.92707   4.96009   4.99308
 Alpha virt. eigenvalues --    5.02701   5.05474   5.07150   5.19588   5.20430
 Alpha virt. eigenvalues --    5.22669   5.34946   5.35578   5.40119   5.43046
 Alpha virt. eigenvalues --    5.45391   5.51491   5.53516   5.59519   5.70307
 Alpha virt. eigenvalues --    5.71040   5.71254   5.76740   5.83566   5.87186
 Alpha virt. eigenvalues --    5.90028   5.90624   6.01329   6.01891   6.05372
 Alpha virt. eigenvalues --    6.06462   6.06472   6.08867   6.13537   6.19975
 Alpha virt. eigenvalues --    6.21831   6.21945   6.25038   6.26948   6.42100
 Alpha virt. eigenvalues --    6.46342   6.52670   6.54590   6.68053   6.86699
 Alpha virt. eigenvalues --    7.00481   7.05294   7.27226   7.55952
          Condensed to atoms (all electrons):
               1          2          3          4          5          6
     1  C    4.448345   0.311744  -0.051772   0.313292   0.591914  -0.024757
     2  C    0.311744   4.791849   0.316854  -0.097716  -0.077207   0.421963
     3  C   -0.051772   0.316854   4.564125   0.009202   0.013699  -0.036269
     4  O    0.313292  -0.097716   0.009202   7.919125  -0.108466   0.002050
     5  O    0.591914  -0.077207   0.013699  -0.108466   7.991366   0.000256
     6  H   -0.024757   0.421963  -0.036269   0.002050   0.000256   0.620986
     7  H   -0.024757   0.421963  -0.036269   0.002050   0.000256  -0.021957
     8  H    0.013233  -0.041200   0.424616  -0.000227   0.000520  -0.005537
     9  H   -0.010338  -0.023127   0.421590   0.000202   0.002091   0.008464
    10  H   -0.010338  -0.023127   0.421590   0.000202   0.002091  -0.006096
    11  H   -0.012009   0.013440  -0.001829   0.316681   0.010831  -0.000542
               7          8          9         10         11
     1  C   -0.024757   0.013233  -0.010338  -0.010338  -0.012009
     2  C    0.421963  -0.041200  -0.023127  -0.023127   0.013440
     3  C   -0.036269   0.424616   0.421590   0.421590  -0.001829
     4  O    0.002050  -0.000227   0.000202   0.000202   0.316681
     5  O    0.000256   0.000520   0.002091   0.002091   0.010831
     6  H   -0.021957  -0.005537   0.008464  -0.006096  -0.000542
     7  H    0.620986  -0.005537  -0.006096   0.008464  -0.000542
     8  H   -0.005537   0.639867  -0.028063  -0.028063   0.000075
     9  H   -0.006096  -0.028063   0.621391  -0.018909  -0.000052
    10  H    0.008464  -0.028063  -0.018909   0.621391  -0.000052
    11  H   -0.000542   0.000075  -0.000052  -0.000052   0.463611
 Mulliken charges:
               1
     1  C    0.455444
     2  C   -0.015436
     3  C   -0.045537
     4  O   -0.356396
     5  O   -0.427350
     6  H    0.041438
     7  H    0.041438
     8  H    0.030318
     9  H    0.032846
    10  H    0.032846
    11  H    0.210389
 Sum of Mulliken charges =  -0.00000
 Mulliken charges with hydrogens summed into heavy atoms:
               1
     1  C    0.455444
     2  C    0.067440
     3  C    0.050473
     4  O   -0.146008
     5  O   -0.427350
 Electronic spatial extent (au):  <R**2>=            444.8106
 Charge=             -0.0000 electrons
 Dipole moment (field-independent basis, Debye):
    X=             -1.5815    Y=             -0.4833    Z=             -0.0000  Tot=              1.6537
 Quadrupole moment (field-independent basis, Debye-Ang):
   XX=            -35.4752   YY=            -25.8517   ZZ=            -29.7828
   XY=             -0.6666   XZ=              0.0000   YZ=             -0.0000
 Traceless Quadrupole moment (field-independent basis, Debye-Ang):
   XX=             -5.1053   YY=              4.5182   ZZ=              0.5871
   XY=             -0.6666   XZ=              0.0000   YZ=             -0.0000
 Octapole moment (field-independent basis, Debye-Ang**2):
  XXX=             -2.2973  YYY=             25.0212  ZZZ=              0.0000  XYY=             -2.8911
  XXY=             -3.5179  XXZ=             -0.0000  XZZ=             -0.1011  YZZ=              2.5595
  YYZ=              0.0000  XYZ=             -0.0000
 Hexadecapole moment (field-independent basis, Debye-Ang**3):
 XXXX=           -162.2793 YYYY=           -319.7353 ZZZZ=            -42.2730 XXXY=             21.6837
 XXXZ=              0.0000 YYYX=             15.1073 YYYZ=             -0.0000 ZZZX=              0.0000
 ZZZY=             -0.0000 XXYY=            -93.8988 XXZZ=            -30.9474 YYZZ=            -70.3766
 XXYZ=             -0.0000 YYXZ=              0.0000 ZZXY=              7.1332
 N-N= 1.783055573774D+02 E-N=-9.858840629513D+02  KE= 2.675908921563D+02
 Symmetry A'   KE= 2.551511008155D+02
 Symmetry A"   KE= 1.243979134086D+01
 1\1\GINC-GAMBA\FOpt\RB3LYP\Gen\C3H6O2\IRIKURA\18-Jun-2022\0\\# b3lyp/g
 en opt freq\\propanoic acid, B3LYP/pcseg-2\\0,1\C,-0.0004835367,0.5722
 642745,0.\C,-0.5893274924,-0.8164874596,0.\C,0.4602225921,-1.919584672
 5,0.\O,-0.9694496889,1.5223300924,0.\O,1.1699374553,0.8499711244,0.\H,
 -1.2477055811,-0.8897535775,0.8689460651\H,-1.2477055811,-0.8897535775
[...]
 Berny optimization.
 Internal  Forces:  Max     0.000218409 RMS     0.000047661
 Search for a local minimum.
 Step number   1 out of a maximum of    2
 All quantities printed in internal units (Hartrees-Bohrs-Radians)
 Second derivative matrix not updated -- analytic derivatives used.
 ITU=  0
     Eigenvalues ---    0.00067   0.00184   0.01970   0.03400   0.04091
     Eigenvalues ---    0.04446   0.04493   0.05034   0.07712   0.10900
     Eigenvalues ---    0.12304   0.14438   0.14982   0.16196   0.18681
     Eigenvalues ---    0.21468   0.24549   0.30372   0.32786   0.33312
     Eigenvalues ---    0.33644   0.33773   0.34412   0.34713   0.38807
     Eigenvalues ---    0.51090   0.87059
 Angle between quadratic step and forces=  33.81 degrees.
 Linear search not attempted -- first point.
 Iteration  1 RMS(Cart)=  0.00042533 RMS(Int)=  0.00000033
 Iteration  2 RMS(Cart)=  0.00000032 RMS(Int)=  0.00000001
 ClnCor:  largest displacement from symmetrization is 1.64D-09 for atom     5.
 Variable       Old X    -DE/DX   Delta X   Delta X   Delta X     New X
                                 (Linear)    (Quad)   (Total)
    R1        2.85052   0.00008   0.00000   0.00035   0.00035   2.85087
    R2        2.56441  -0.00002   0.00000  -0.00022  -0.00022   2.56419
    R3        2.27318  -0.00014   0.00000  -0.00019  -0.00019   2.27300
    R4        2.87734  -0.00000   0.00000  -0.00011  -0.00011   2.87723
    R5        2.06482   0.00002   0.00000   0.00007   0.00007   2.06489
    R6        2.06482   0.00002   0.00000   0.00007   0.00007   2.06489
    R7        2.05909  -0.00002   0.00000  -0.00006  -0.00006   2.05903
    R8        2.05766   0.00001   0.00000   0.00002   0.00002   2.05768
    R9        2.05766   0.00001   0.00000   0.00002   0.00002   2.05768
   R10        1.82836  -0.00010   0.00000  -0.00027  -0.00027   1.82809
    A1        1.94531   0.00002   0.00000  -0.00008  -0.00008   1.94523
    A2        2.20479  -0.00006   0.00000  -0.00030  -0.00030   2.20449
    A3        2.13308   0.00005   0.00000   0.00038   0.00038   2.13346
    A4        1.98003   0.00004   0.00000   0.00023   0.00023   1.98026
    A5        1.87229  -0.00002   0.00000  -0.00005  -0.00005   1.87224
    A6        1.87229  -0.00002   0.00000  -0.00005  -0.00005   1.87224
    A7        1.94632   0.00000   0.00000   0.00015   0.00015   1.94648
    A8        1.94632   0.00000   0.00000   0.00015   0.00015   1.94648
    A9        1.83887  -0.00002   0.00000  -0.00051  -0.00051   1.83837
   A10        1.92378   0.00002   0.00000   0.00011   0.00011   1.92389
   A11        1.94015  -0.00001   0.00000  -0.00003  -0.00003   1.94013
   A12        1.94015  -0.00001   0.00000  -0.00003  -0.00003   1.94013
   A13        1.89113  -0.00000   0.00000  -0.00001  -0.00001   1.89112
   A14        1.89113  -0.00000   0.00000  -0.00001  -0.00001   1.89112
   A15        1.87572   0.00000   0.00000  -0.00003  -0.00003   1.87568
   A16        1.86733   0.00022   0.00000   0.00144   0.00144   1.86878
    D1        3.14159   0.00000   0.00000  -0.00000   0.00000   3.14159
    D2       -0.98419   0.00002   0.00000   0.00031   0.00031  -0.98388
    D3        0.98419  -0.00002   0.00000  -0.00031  -0.00031   0.98388
    D4        0.00000   0.00000   0.00000  -0.00000   0.00000   0.00000
    D5        2.15740   0.00002   0.00000   0.00031   0.00031   2.15771
    D6       -2.15740  -0.00002   0.00000  -0.00031  -0.00031  -2.15771
    D7        3.14159   0.00000   0.00000  -0.00000   0.00000   3.14159
    D8        0.00000   0.00000   0.00000  -0.00000   0.00000   0.00000
    D9        3.14159  -0.00000   0.00000  -0.00000   0.00000   3.14159
   D10       -1.04436   0.00000   0.00000   0.00004   0.00004  -1.04432
   D11        1.04436  -0.00000   0.00000  -0.00004  -0.00004   1.04432
   D12        1.02522  -0.00001   0.00000  -0.00022  -0.00022   1.02500
   D13        3.12246  -0.00001   0.00000  -0.00018  -0.00018   3.12228
   D14       -1.07201  -0.00001   0.00000  -0.00026  -0.00026  -1.07227
   D15       -1.02522   0.00001   0.00000   0.00022   0.00022  -1.02500
   D16        1.07201   0.00001   0.00000   0.00026   0.00026   1.07227
   D17       -3.12246   0.00001   0.00000   0.00018   0.00018  -3.12228
         Item               Value     Threshold  Converged?
 Maximum Force            0.000218     0.000450     YES
 RMS     Force            0.000048     0.000300     YES
 Maximum Displacement     0.002033     0.001800     NO 
 RMS     Displacement     0.000425     0.001200     YES
 Predicted change in Energy=-2.494913D-07
                           ----------------------------
                           ! Non-Optimized Parameters !
                           ! (Angstroms and Degrees)  !
 --------------------------                            --------------------------
 ! Name  Definition              Value          Derivative Info.                !
 --------------------------------------------------------------------------------
 ! R1    R(1,2)                  1.5086         -DE/DX =    0.0001              !
 ! R2    R(1,4)                  1.3569         -DE/DX =    0.0                 !
 ! R3    R(1,5)                  1.2028         -DE/DX =   -0.0001              !
 ! R4    R(2,3)                  1.5226         -DE/DX =    0.0                 !
 ! R5    R(2,6)                  1.0927         -DE/DX =    0.0                 !
 ! R6    R(2,7)                  1.0927         -DE/DX =    0.0                 !
 ! R7    R(3,8)                  1.0896         -DE/DX =    0.0                 !
 ! R8    R(3,9)                  1.0889         -DE/DX =    0.0                 !
 ! R9    R(3,10)                 1.0889         -DE/DX =    0.0                 !
 ! R10   R(4,11)                 0.9674         -DE/DX =   -0.0001              !
 ! A1    A(2,1,4)              111.4537         -DE/DX =    0.0                 !
 ! A2    A(2,1,5)              126.308          -DE/DX =   -0.0001              !
 ! A3    A(4,1,5)              122.2383         -DE/DX =    0.0                 !
 ! A4    A(1,2,3)              113.4605         -DE/DX =    0.0                 !
 ! A5    A(1,2,6)              107.2717         -DE/DX =    0.0                 !
 ! A6    A(1,2,7)              107.2717         -DE/DX =    0.0                 !
 ! A7    A(3,2,6)              111.5249         -DE/DX =    0.0                 !
 ! A8    A(3,2,7)              111.5249         -DE/DX =    0.0                 !
 ! A9    A(6,2,7)              105.3306         -DE/DX =    0.0                 !
 ! A10   A(2,3,8)              110.2305         -DE/DX =    0.0                 !
 ! A11   A(2,3,9)              111.161          -DE/DX =    0.0                 !
 ! A12   A(2,3,10)             111.161          -DE/DX =    0.0                 !
 ! A13   A(8,3,9)              108.3529         -DE/DX =    0.0                 !
 ! A14   A(8,3,10)             108.3529         -DE/DX =    0.0                 !
 ! A15   A(9,3,10)             107.4688         -DE/DX =    0.0                 !
 ! A16   A(1,4,11)             107.0731         -DE/DX =    0.0002              !
 ! D1    D(4,1,2,3)            180.0            -DE/DX =    0.0                 !
 ! D2    D(4,1,2,6)            -56.3722         -DE/DX =    0.0                 !
 ! D3    D(4,1,2,7)             56.3722         -DE/DX =    0.0                 !
 ! D4    D(5,1,2,3)              0.0            -DE/DX =    0.0                 !
 ! D5    D(5,1,2,6)            123.6278         -DE/DX =    0.0                 !
 ! D6    D(5,1,2,7)           -123.6278         -DE/DX =    0.0                 !
 ! D7    D(2,1,4,11)           180.0            -DE/DX =    0.0                 !
 ! D8    D(5,1,4,11)             0.0            -DE/DX =    0.0                 !
 ! D9    D(1,2,3,8)            180.0            -DE/DX =    0.0                 !
 ! D10   D(1,2,3,9)            -59.8351         -DE/DX =    0.0                 !
 ! D11   D(1,2,3,10)            59.8351         -DE/DX =    0.0                 !
 ! D12   D(6,2,3,8)             58.7283         -DE/DX =    0.0                 !
 ! D13   D(6,2,3,9)            178.8933         -DE/DX =    0.0                 !
 ! D14   D(6,2,3,10)           -61.4366         -DE/DX =    0.0                 !
 ! D15   D(7,2,3,8)            -58.7283         -DE/DX =    0.0                 !
 ! D16   D(7,2,3,9)             61.4366         -DE/DX =    0.0                 !
 ! D17   D(7,2,3,10)          -178.8933         -DE/DX =    0.0                 !
 --------------------------------------------------------------------------------
 GradGradGradGradGradGradGradGradGradGradGradGradGradGradGradGradGradGrad


 ----------------------------------------------------------------------

 Electric dipole moment (input orientation):
 (Debye = 10**-18 statcoulomb cm , SI units = C m)
                  (au)            (Debye)         (10**-30 SI)
   Tot        0.650602D+00      0.165366D+01      0.551603D+01
   x         -0.622129D+00     -0.158129D+01     -0.527463D+01
   y         -0.190364D+00     -0.483856D+00     -0.161397D+01
   z          0.000000D+00      0.000000D+00      0.000000D+00

 Dipole polarizability, Alpha (input orientation).
 (esu units = cm**3 , SI units = C**2 m**2 J**-1)
 Alpha(0;0):
               (au)            (10**-24 esu)      (10**-40 SI)
   iso        0.439657D+02      0.651504D+01      0.724896D+01
   aniso      0.145659D+02      0.215845D+01      0.240160D+01
   xx         0.466496D+02      0.691276D+01      0.769148D+01
   yx        -0.120477D+01     -0.178529D+00     -0.198641D+00
   yy         0.506155D+02      0.750044D+01      0.834537D+01
   zx         0.000000D+00      0.000000D+00      0.000000D+00
   zy         0.000000D+00      0.000000D+00      0.000000D+00
   zz         0.346320D+02      0.513193D+01      0.571004D+01

 ----------------------------------------------------------------------

 Dipole orientation:
     6         -0.30265072          0.98909501         -0.31554652
     6          0.33635631         -1.09924849          1.51638693
     6          1.08939613         -3.56026340          0.22975653
     8         -0.96174125          3.14307354          0.91008192
     8         -0.26012648          0.85012122         -2.58407724
     1          1.83878556         -0.39728113          2.74660292
     1         -1.30162770         -1.35820837          2.74660292
     1          1.52848582         -4.99525558          1.63966668
     1         -0.42880710         -4.26880001         -0.96481159
     1          2.74412925         -3.29792112         -0.96481159
     1         -1.34357824          4.39095779         -0.37049237

 Electric dipole moment (dipole orientation):
 (Debye = 10**-18 statcoulomb cm , SI units = C m)
                  (au)            (Debye)         (10**-30 SI)
   Tot        0.650602D+00      0.165366D+01      0.551603D+01
   x          0.000000D+00      0.000000D+00      0.000000D+00
   y          0.000000D+00      0.000000D+00      0.000000D+00
   z          0.650602D+00      0.165366D+01      0.551603D+01

 Dipole polarizability, Alpha (dipole orientation).
 (esu units = cm**3 , SI units = C**2 m**2 J**-1)
 Alpha(0;0):
               (au)            (10**-24 esu)      (10**-40 SI)
   iso        0.439657D+02      0.651504D+01      0.724896D+01
   aniso      0.145659D+02      0.215845D+01      0.240160D+01
   xx         0.360290D+02      0.533895D+01      0.594038D+01
   yx        -0.456568D+01     -0.676564D+00     -0.752778D+00
   yy         0.495531D+02      0.734301D+01      0.817020D+01
   zx         0.325180D-01      0.481868D-02      0.536150D-02
   zy        -0.106272D+00     -0.157479D-01     -0.175219D-01
   zz         0.463150D+02      0.686317D+01      0.763631D+01

 ----------------------------------------------------------------------
 1\1\GINC-GAMBA\Freq\RB3LYP\Gen\C3H6O2\IRIKURA\18-Jun-2022\0\\#N Geom=A
 llCheck Guess=TCheck SCRF=Check GenChk RB3LYP/ChkBas Freq\\propanoic a
 cid, B3LYP/pcseg-2\\0,1\C,-0.0004835367,0.5722642745,0.\C,-0.589327492
 4,-0.8164874596,0.\C,0.4602225921,-1.9195846725,0.\O,-0.9694496889,1.5
 223300924,0.\O,1.1699374553,0.8499711244,0.\H,-1.2477055811,-0.8897535
 775,0.8689460651\H,-1.2477055811,-0.8897535775,-0.8689460651\H,-0.0208
 615372,-2.89725368,0.\H,1.1008202125,-1.8526813081,-0.8779451383\H,1.1
 008202125,-1.8526813081,0.8779451383\H,-0.523515055,2.380960092,0.\\Ve
 rsion=ES64L-G16RevB.01\State=1-A'\HF=-268.5200889\RMSD=2.846e-09\RMSF=
 6.769e-05\ZeroPoint=0.090162\Thermal=0.0959206\Dipole=-0.6221289,-0.19
 03637,0.\DipoleDeriv=1.6643439,-0.2293647,0.,-0.211492,1.4669314,0.,0.
 ,0.,0.2534368,-0.0165381,-0.2029027,0.,-0.1115128,-0.1002231,0.,0.,0.,
 0.123634,0.0599575,0.0032258,0.,0.0370835,0.0746266,0.,0.,0.,0.0793256
 ,-0.7953515,0.4253488,0.,0.5968609,-0.9938888,0.,0.,0.,-0.3714258,-1.1
 589799,0.0175947,0.,-0.2288792,-0.7177813,0.,0.,0.,-0.3484607,0.012509
 2,0.0345512,0.0677414,0.0111009,0.0079188,-0.0137468,0.0984088,0.00194
 ,-0.0163615,0.0125092,0.0345512,-0.0677414,0.0111009,0.0079188,0.01374
 68,-0.0984088,-0.00194,-0.0163615,0.0137864,-0.0794364,0.,-0.0487482,-
 0.1344124,0.,0.,0.,0.0789654,-0.0059069,0.0421802,0.0727424,-0.000203,
 0.0519009,0.0323959,0.0857721,0.0001573,-0.0555888,-0.0059069,0.042180
 2,-0.0727424,-0.000203,0.0519009,-0.0323959,-0.0857721,-0.0001573,-0.0
 555888,0.219577,-0.0879283,0.,-0.055108,0.2851081,0.,0.,0.,0.3284252\P
 olar=46.6496028,-1.2047747,50.6155005,0.,0.,34.6319778\Quadrupole=-3.7
 953223,3.3588248,0.4364975,-0.4979678,0.,0.\PG=CS [SG(C3H2O2),X(H4)]\N
 Imag=0\\0.92753909,0.12920313,0.60781531,0.,0.,0.23329723,-0.08575866,
 -0.03123459,0.,0.53480344,-0.02642882,-0.16883295,0.,-0.01406519,0.467
 53237,0.,0.,-0.09338333,0.,0.,0.54938072,0.01394932,-0.00211749,0.,-0.
 13909102,0.05785830,0.,0.52687938,0.01935886,-0.03102308,0.,0.05514518
 ,-0.13505070,0.,0.05233004,0.52067520,0.,0.,-0.00133505,0.,0.,-0.08024
 141,0.,0.,0.57109067,-0.16519648,0.04281732,0.,0.00976855,-0.00382520,
 0.,-0.00066026,-0.00154042,0.,0.40452493,0.06824069,-0.19955219,0.,0.0
 2616120,-0.04085673,0.,-0.00614972,-0.00520844,0.,0.07769614,0.6042550
 7,0.,0.,-0.06460560,0.,0.,0.01080394,0.,0.,0.00138535,0.,0.,0.03781537
 ,-0.68028267,-0.16603317,0.,-0.03113487,-0.01711838,0.,-0.00123567,0.0
 0413382,0.,-0.09869075,0.03904657,0.,0.81103477,-0.14903463,-0.1633227
 6,0.,-0.03818892,-0.00306376,0.,-0.00222316,0.00226531,0.,0.04815922,0
 .02617952,0.,0.15329982,0.13949386,0.,0.,-0.07902770,0.,0.,0.02642468,
 0.,0.,-0.00146303,0.,0.,0.02944535,0.,0.,0.03101459,-0.01273018,-0.002
 98979,0.01306484,-0.13368743,-0.01099054,0.12475901,-0.01355829,-0.001
 04990,0.01749637,0.00065539,0.00178708,-0.00083482,0.00004774,-0.00301
 178,-0.00181574,0.14858535,-0.01852509,0.00027655,0.03002089,-0.011873
 29,-0.04966824,0.01830465,0.01554477,0.00151958,-0.02101659,0.00116730
 ,-0.00136527,-0.00232211,-0.00244169,-0.00465608,-0.00434740,0.0116643
 2,0.05483925,0.00080555,-0.00090781,0.00003484,0.12366404,0.01735116,-
 0.20928919,-0.00128219,-0.00098323,0.00189678,-0.00067914,0.00008927,0
 .00060522,-0.00157528,-0.00027564,-0.00069749,-0.13572195,-0.01784490,
 0.22747078,-0.01273018,-0.00298978,-0.01306484,-0.13368743,-0.01099054
 ,-0.12475901,-0.01355829,-0.00104990,-0.01749637,0.00065539,0.00178708
 ,0.00083482,0.00004774,-0.00301178,0.00181574,0.01164584,0.00232648,0.
 01533939,0.14858535,-0.01852509,0.00027655,-0.03002089,-0.01187329,-0.
 04966824,-0.01830465,0.01554477,0.00151958,0.02101659,0.00116730,-0.00
 136527,0.00232211,-0.00244169,-0.00465608,0.00434740,0.00232648,0.0004
 2123,0.00306733,0.01166432,0.05483925,-0.00080555,0.00090781,0.0000348
 4,-0.12366404,-0.01735116,-0.20928919,0.00128219,0.00098323,0.00189678
 ,0.00067914,-0.00008927,0.00060522,0.00157528,0.00027564,-0.00069749,-
 0.01533939,-0.00306733,-0.02254949,0.13572195,0.01784490,0.22747078,-0
 .00596771,0.00193142,0.,0.01088442,0.02392516,0.,-0.10115141,-0.107862
 01,0.,0.00082698,0.00182459,0.,0.00159969,-0.00078043,0.,0.00105962,-0
 .00085066,0.00018278,0.00105962,-0.00085066,-0.00018278,0.10892263,0.0
 0396400,-0.00010301,0.,-0.01111308,-0.02097271,0.,-0.10540000,-0.25668
 916,0.,-0.00017626,-0.00223270,0.,0.00016760,-0.00008663,0.,-0.0002173
 7,0.00073478,-0.00058507,-0.00021737,0.00073478,0.00058507,0.11418815,
 0.28100496,0.,0.,0.00053004,0.,0.,-0.00123222,0.,0.,-0.04798832,0.,0.,
 0.00006061,0.,0.,0.00034514,-0.00031690,-0.00022937,0.00009849,0.00031
 690,0.00022937,0.00009849,0.,0.,0.04600623,-0.00079604,-0.00145106,0.0
 0004625,-0.01459983,-0.00068790,0.01883585,-0.13610489,-0.01028179,0.1
 2443375,0.00013953,0.00019968,-0.00010744,0.00109918,0.00013900,-0.000
 17857,-0.00219621,0.00370150,-0.00069859,0.00033099,-0.00074535,-0.000
 06777,-0.00847731,-0.00071498,0.01104500,0.14843634,0.00220062,0.00119
 977,-0.00129448,0.01512192,0.00071325,-0.02152295,-0.01200273,-0.04860
 686,0.01722718,-0.00058601,0.00025158,0.00021700,-0.00121103,-0.000117
 71,0.00045744,0.00342549,-0.00372298,0.00014715,-0.00072268,0.00102566
 ,0.00028903,-0.01602133,-0.00109358,0.02451505,0.00828745,0.05101400,0
 .00212288,0.00078211,0.00016905,-0.00147749,-0.00098568,0.00160281,0.1
 2520689,0.01480568,-0.22301887,-0.00058914,-0.00015517,-0.00012175,-0.
 00132029,0.00036654,0.00035852,-0.00051262,0.00050001,0.00144427,0.000
 19430,-0.00052887,0.00075565,-0.00154831,0.00055421,0.00103368,-0.1376
 9559,-0.01768622,0.23891306,-0.00079604,-0.00145106,-0.00004625,-0.014
 59983,-0.00068790,-0.01883585,-0.13610489,-0.01028179,-0.12443375,0.00
 013953,0.00019968,0.00010744,0.00109918,0.00013900,0.00017857,0.000330
 99,-0.00074535,0.00006777,-0.00219621,0.00370150,0.00069859,-0.0084773
 1,-0.00071498,-0.01104500,0.01212036,0.00153022,0.01555633,0.14843634,
 0.00220062,0.00119977,0.00129448,0.01512192,0.00071325,0.02152295,-0.0
 1200273,-0.04860686,-0.01722718,-0.00058601,0.00025158,-0.00021700,-0.
 00121103,-0.00011771,-0.00045744,-0.00072268,0.00102566,-0.00028903,0.
 00342549,-0.00372298,-0.00014715,-0.01602133,-0.00109358,-0.02451505,0
 .00153022,-0.00057344,0.00243853,0.00828745,0.05101400,-0.00212288,-0.
 00078211,0.00016905,0.00147749,0.00098568,0.00160281,-0.12520689,-0.01
 480568,-0.22301887,0.00058915,0.00015517,-0.00012175,0.00132029,-0.000
 36654,0.00035852,-0.00019430,0.00052887,0.00075565,0.00051262,-0.00050
 001,0.00144427,0.00154831,-0.00055421,0.00103368,-0.01555633,-0.002438
 53,-0.02112936,0.13769559,0.01768622,0.23891306,0.02276955,0.03431507,
 0.,-0.00289734,0.00301102,0.,0.00063602,0.00109790,0.,-0.15216281,-0.2
 1079300,0.,-0.00358436,-0.00548632,0.,-0.00015281,0.00003170,-0.000102
 37,-0.00015281,0.00003170,0.00010237,-0.00027921,0.00023432,0.,0.00004
 788,-0.00002191,0.00006306,0.00004788,-0.00002191,-0.00006306,0.135728
 02,-0.01265428,-0.04793395,0.,0.00679814,-0.00084554,0.,-0.00138205,-0
 .00079457,0.,-0.16429338,-0.38035715,0.,-0.00619082,0.00808204,0.,-0.0
 0022131,0.00059553,0.00023077,-0.00022131,0.00059553,-0.00023076,0.000
 51711,-0.00020315,0.,0.00002323,-0.00008969,-0.00009114,0.00002323,-0.
 00008969,0.00009114,0.17760144,0.42104064,0.,0.,0.00411662,0.,0.,0.003
 62039,0.,0.,0.00079596,0.,0.,-0.01587196,0.,0.,-0.00606109,-0.00058451
 ,-0.00052672,0.00023015,0.00058451,0.00052672,0.00023015,0.,0.,0.00001
 419,-0.00005656,0.00008934,-0.00000706,0.00005656,-0.00008934,-0.00000
 706,0.,0.,0.01293970\\-0.00004376,-0.00013898,0.,-0.00011412,0.0000890
 0,0.,0.00004251,0.00003399,0.,-0.00022199,-0.00007494,0.,0.00012714,0.
 00007810,0.,0.00003877,-0.00000416,0.00000818,0.00003877,-0.00000416,-
 0.00000818,-0.00001693,-0.00001228,0.,-0.00000233,-0.00000226,0.000004
 85,-0.00000233,-0.00000226,-0.00000485,0.00015428,0.00003793,0.\\\@


 THE WORLD IS NOT A HAMBURGER - YOU CAN'T HAVE IT YOUR WAY.
 Job cpu time:       0 days  0 hours 19 minutes  7.1 seconds.
 Elapsed time:       0 days  0 hours  1 minutes 35.8 seconds.
 File lengths (MBytes):  RWF=     49 Int=      0 D2E=      0 Chk=      6 Scr=      1
 Normal termination of Gaussian 16 at Sat Jun 18 12:21:42 2022.
