 Entering Gaussian System, Link 0=g16
 AtFile(1): pcseg2.gbs
            -H     0
            S   4   1.00
                  0.754732D+02           0.427821D-02
                  0.113575D+02           0.328672D-01
                  0.260081D+01           0.159578D+00
                  0.735503D+00           0.500000D+00
            S   1   1.00
                  0.231761D+00           1.0000000
            S   1   1.00
                  0.741675D-01           1.0000000
            P   1   1.00
                  0.160000D+01           1.0000000
            P   1   1.00
                  0.450000D+00           1.0000000
            D   1   1.00
                  0.125000D+01           1.0000000
            ****
            -C     0
            S   7   1.00
                  0.731999D+04           0.695369D-03
                  0.109818D+04           0.537138D-02
                  0.250014D+03           0.274734D-01
                  0.707586D+02           0.105078D+00
                  0.228595D+02           0.291262D+00
                  0.803936D+01           0.500000D+00
                  0.289309D+01           0.362224D+00
            S   2   1.00
                  0.521640D+01          -0.957844D-01
                  0.556124D+00           0.500000D+00
            S   1   1.00
                  0.228813D+00           1.0000000
            S   1   1.00
                  0.936338D-01           1.0000000
            P   4   1.00
                  0.339855D+02           0.818395D-02
                  0.772957D+01           0.586921D-01
                  0.224954D+01           0.222514D+00
                  0.767681D+00           0.500000D+00
            P   1   1.00
                  0.263283D+00           1.0000000
            P   1   1.00
                  0.848744D-01           1.0000000
            D   1   1.00
                  0.140000D+01           1.0000000
            D   1   1.00
                  0.450000D+00           1.0000000
            F   1   1.00
                  0.950000D+00           1.0000000
            ****
            -O     0
            S   7   1.00
                  0.135887D+05           0.665492D-03
                  0.203847D+04           0.514222D-02
                  0.464041D+03           0.263472D-01
                  0.131339D+03           0.101500D+00
                  0.425340D+02           0.285877D+00
                  0.150429D+02           0.500000D+00
                  0.546616D+01           0.368211D+00
            S   2   1.00
                  0.100915D+02          -0.100084D+00
                  0.110429D+01           0.500000D+00
            S   1   1.00
                  0.448082D+00           1.0000000
            S   1   1.00
                  0.175325D+00           1.0000000
            P   4   1.00
                  0.608220D+02           0.908253D-02
                  0.140332D+02           0.645878D-01
                  0.418244D+01           0.241502D+00
                  0.142490D+01           0.500000D+00
            P   1   1.00
                  0.478741D+00           1.0000000
            P   1   1.00
                  0.146257D+00           1.0000000
            D   1   1.00
                  0.220000D+01           1.0000000
            D   1   1.00
                  0.650000D+00           1.0000000
            F   1   1.00
                  0.110000D+01           1.0000000
            ****
            -N     0
            S   7   1.00
                  0.101643D+05           0.682757D-03
                  0.152481D+04           0.527488D-02
                  0.347119D+03           0.270037D-01
                  0.982389D+02           0.103673D+00
                  0.317799D+02           0.289575D+00
                  0.112240D+02           0.500000D+00
                  0.406611D+01           0.364621D+00
            S   2   1.00
                  0.747898D+01          -0.975681D-01
                  0.805040D+00           0.500000D+00
            S   1   1.00
                  0.324626D+00           1.0000000
            S   1   1.00
                  0.128132D+00           1.0000000
            P   4   1.00
                  0.482704D+02           0.829547D-02
                  0.110815D+02           0.596223D-01
                  0.326643D+01           0.227889D+00
                  0.111680D+01           0.500000D+00
            P   1   1.00
                  0.382049D+00           1.0000000
            P   1   1.00
                  0.121222D+00           1.0000000
            D   1   1.00
                  0.180000D+01           1.0000000
            D   1   1.00
                  0.550000D+00           1.0000000
            F   1   1.00
                  0.102000D+01           1.0000000
            ****
            -F     0
            S   7   1.00
                  0.174507D+05           0.655972D-03
                  0.261768D+04           0.506944D-02
                  0.595857D+03           0.259899D-01
                  0.168651D+03           0.100353D+00
                  0.546654D+02           0.284095D+00
                  0.193717D+02           0.500000D+00
                  0.706202D+01           0.370721D+00
            S   2   1.00
                  0.131197D+02          -0.101997D+00
                  0.145046D+01           0.500000D+00
            S   1   1.00
                  0.588255D+00           1.0000000
            S   1   1.00
                  0.227960D+00           1.0000000
            P   4   1.00
                  0.779407D+02           0.931135D-02
                  0.180425D+02           0.663964D-01
                  0.542342D+01           0.246386D+00
                  0.184876D+01           0.500000D+00
            P   1   1.00
                  0.617455D+00           1.0000000
            P   1   1.00
                  0.185496D+00           1.0000000
            D   1   1.00
                  0.280000D+01           1.0000000
            D   1   1.00
                  0.800000D+00           1.0000000
            F   1   1.00
                  0.120000D+01           1.0000000
            ****
            -Cl     0
            S   8   1.00
                  0.154272D+06           0.222473D-03
                  0.231232D+05           0.172590D-02
                  0.526257D+04           0.899286D-02
                  0.148995D+04           0.367724D-01
                  0.485417D+03           0.121446D+00
                  0.174634D+03           0.304148D+00
                  0.672393D+02           0.500000D+00
                  0.265780D+02           0.360252D+00
            S   3   1.00
                  0.131826D+03          -0.531330D-01
                  0.400703D+02          -0.233346D+00
                  0.789448D+01           0.500000D+00
            S   2   1.00
                  0.427711D+01           0.500000D+00
                  0.196233D+01           0.370517D+00
            S   1   1.00
                  0.520793D+00           1.0000000
            S   1   1.00
                  0.181633D+00           1.0000000
            P   7   1.00
                  0.124440D+04           0.988206D-03
                  0.295109D+03           0.829674D-02
                  0.947224D+02           0.430906D-01
                  0.352588D+02           0.148443D+00
                  0.144211D+02           0.344744D+00
                  0.610371D+01           0.500000D+00
                  0.258886D+01           0.348278D+00
            P   2   1.00
                  0.109447D+02          -0.196768D-01
                  0.104413D+01           0.500000D+00
            P   1   1.00
                  0.376184D+00           1.0000000
            P   1   1.00
                  0.120613D+00           1.0000000
            D   1   1.00
                  0.231000D+01           1.0000000
            D   1   1.00
                  0.520000D+00           1.0000000
            F   1   1.00
                  0.720000D+00           1.0000000
            ****
            -S     0
            S   8   1.00
                  0.134700D+06           0.226231D-03
                  0.201904D+05           0.175488D-02
                  0.459528D+04           0.914190D-02
                  0.130109D+04           0.373551D-01
                  0.423902D+03           0.123121D+00
                  0.152485D+03           0.306801D+00
                  0.586925D+02           0.500000D+00
                  0.231461D+02           0.354358D+00
            S   3   1.00
                  0.116327D+03          -0.491772D-01
                  0.352841D+02          -0.215962D+00
                  0.677831D+01           0.500000D+00
            S   2   1.00
                  0.360404D+01           0.500000D+00
                  0.164871D+01           0.366278D+00
            S   1   1.00
                  0.421821D+00           1.0000000
            S   1   1.00
                  0.147554D+00           1.0000000
            P   7   1.00
                  0.104863D+04           0.105273D-02
                  0.248717D+03           0.879338D-02
                  0.797887D+02           0.453358D-01
                  0.296023D+02           0.154476D+00
                  0.120627D+02           0.352366D+00
                  0.507628D+01           0.500000D+00
                  0.213375D+01           0.346429D+00
            P   2   1.00
                  0.928958D+01          -0.185932D-01
                  0.837819D+00           0.500000D+00
            P   1   1.00
                  0.301495D+00           1.0000000
            P   1   1.00
                  0.974740D-01           1.0000000
            D   1   1.00
                  0.210000D+01           1.0000000
            D   1   1.00
                  0.480000D+00           1.0000000
            F   1   1.00
                  0.660000D+00           1.0000000
            ****
            -Br     0
            S    10   1.00
                  0.233625D+07           0.532336D-04
                  0.349961D+06           0.413715D-03
                  0.796444D+05           0.217123D-02
                  0.225555D+05           0.910109D-02
                  0.735546D+04           0.323789D-01
                  0.265352D+04           0.988755D-01
                  0.103517D+04           0.248138D+00
                  0.422205D+03           0.474328D+00
                  0.180035D+03           0.500000D+00
                  0.793308D+02           0.187769D+00
            S    4   1.00
                  0.620834D+03          -0.226511D-01
                  0.190829D+03          -0.109497D+00
                  0.312505D+02           0.500000D+00
                  0.135270D+02           0.492812D+00
            S    2   1.00
                  0.216097D+02          -0.165418D+00
                  0.372566D+01           0.500000D+00
            S    1   1.00
                  0.169770D+01           1.0000000
            S    1   1.00
                  0.489332D+00           1.0000000
            S    1   1.00
                  0.175712D+00           1.0000000
            P    8   1.00
                  0.960829D+04           0.478974D-03
                  0.227618D+04           0.417853D-02
                  0.736723D+03           0.229315D-01
                  0.281579D+03           0.892653D-01
                  0.118395D+03           0.255288D+00
                  0.527481D+02           0.479074D+00
                  0.245098D+02           0.500000D+00
                  0.112009D+02           0.200944D+00
            P    4   1.00
                  0.587849D+02          -0.189674D-01
                  0.918962D+01           0.264104D+00
                  0.413895D+01           0.500000D+00
                  0.184225D+01           0.319316D+00
            P    1   1.00
                  0.713862D+00           1.0000000
            P    1   1.00
                  0.274232D+00           1.0000000
            P    1   1.00
                  0.944411D-01           1.0000000
            D    7   1.00
                  0.398470D+03           0.204066D-02
                  0.118967D+03           0.175171D-01
                  0.450197D+02           0.829708D-01
                  0.190320D+02           0.236284D+00
                  0.855686D+01           0.428468D+00
                  0.382950D+01           0.500000D+00
                  0.166291D+01           0.349360D+00
            D    1   1.00
                  0.672953D+00           1.0000000
            D    1   1.00
                  0.252000D+00           1.0000000
            F    1   1.00
                  0.530000D+00           1.0000000
            ****
            -Si     0
            S    8   1.00
                  0.996133D+05           0.235546D-03
                  0.149311D+05           0.182707D-02
                  0.339820D+04           0.951425D-02
                  0.962140D+03           0.388172D-01
                  0.313430D+03           0.127328D+00
                  0.112683D+03           0.313522D+00
                  0.433372D+02           0.500000D+00
                  0.170029D+02           0.340347D+00
            S    3   1.00
                  0.884208D+02          -0.404451D-01
                  0.266756D+02          -0.178059D+00
                  0.479640D+01           0.500000D+00
            S    2   1.00
                  0.239385D+01           0.500000D+00
                  0.108333D+01           0.338016D+00
            S    1   1.00
                  0.252420D+00           1.0000000
            S    1   1.00
                  0.891210D-01           1.0000000
            P    7   1.00
                  0.709901D+03           0.123028D-02
                  0.168426D+03           0.101366D-01
                  0.539946D+02           0.511840D-01
                  0.198646D+02           0.169967D+00
                  0.801369D+01           0.370717D+00
                  0.331870D+01           0.500000D+00
                  0.136112D+01           0.344128D+00
            P    2   1.00
                  0.622158D+01          -0.166609D-01
                  0.503049D+00           0.500000D+00
            P    1   1.00
                  0.179848D+00           1.0000000
            P    1   1.00
                  0.591912D-01           1.0000000
            D    1   1.00
                  0.168000D+01           1.0000000
            D    1   1.00
                  0.380000D+00           1.0000000
            F    1   1.00
                  0.540000D+00           1.0000000
            ****
            -P     0
            S    8   1.00
                  0.116416D+06           0.230715D-03
                  0.174500D+05           0.178960D-02
                  0.397149D+04           0.932116D-02
                  0.112447D+04           0.380591D-01
                  0.366347D+03           0.125148D+00
                  0.131757D+03           0.310022D+00
                  0.506988D+02           0.500000D+00
                  0.199436D+02           0.347528D+00
            S    3   1.00
                  0.101878D+03          -0.446755D-01
                  0.308249D+02          -0.196376D+00
                  0.573688D+01           0.500000D+00
            S    2   1.00
                  0.296868D+01           0.500000D+00
                  0.135315D+01           0.355098D+00
            S    1   1.00
                  0.332196D+00           1.0000000
            S    1   1.00
                  0.116229D+00           1.0000000
            P    7   1.00
                  0.873928D+03           0.112375D-02
                  0.207298D+03           0.933330D-02
                  0.664628D+02           0.477213D-01
                  0.245665D+02           0.160733D+00
                  0.996820D+01           0.359760D+00
                  0.416536D+01           0.500000D+00
                  0.173022D+01           0.346593D+00
            P    2   1.00
                  0.772530D+01          -0.175718D-01
                  0.657252D+00           0.500000D+00
            P    1   1.00
                  0.239903D+00           1.0000000
            P    1   1.00
                  0.800988D-01           1.0000000
            D    1   1.00
                  0.189000D+01           1.0000000
            D    1   1.00
                  0.430000D+00           1.0000000
            F    1   1.00
                  0.600000D+00           1.0000000
            ****
            
 Initial command:
 /usr/local/apps/g16_b01_avx/g16/l1.exe "/wrk/irikura/Gau-347630.inp" -scrdir="/wrk/irikura/"
 Entering Link 1 = /usr/local/apps/g16_b01_avx/g16/l1.exe PID=    347632.
  
 Copyright (c) 1988-2017, Gaussian, Inc.  All Rights Reserved.
  
 This is part of the Gaussian(R) 16 program.  It is based on
 the Gaussian(R) 09 system (copyright 2009, Gaussian, Inc.),
 the Gaussian(R) 03 system (copyright 2003, Gaussian, Inc.),
 the Gaussian(R) 98 system (copyright 1998, Gaussian, Inc.),
 the Gaussian(R) 94 system (copyright 1995, Gaussian, Inc.),
 the Gaussian 92(TM) system (copyright 1992, Gaussian, Inc.),
 the Gaussian 90(TM) system (copyright 1990, Gaussian, Inc.),
 the Gaussian 88(TM) system (copyright 1988, Gaussian, Inc.),
 the Gaussian 86(TM) system (copyright 1986, Carnegie Mellon
 University), and the Gaussian 82(TM) system (copyright 1983,
 Carnegie Mellon University). Gaussian is a federally registered
 trademark of Gaussian, Inc.
  
 This software contains proprietary and confidential information,
 including trade secrets, belonging to Gaussian, Inc.
  
 This software is provided under written license and may be
 used, copied, transmitted, or stored only in accord with that
 written license.
  
 The following legend is applicable only to US Government
 contracts under FAR:
  
                    RESTRICTED RIGHTS LEGEND
  
 Use, reproduction and disclosure by the US Government is
 subject to restrictions as set forth in subparagraphs (a)
 and (c) of the Commercial Computer Software - Restricted
 Rights clause in FAR 52.227-19.
  
 Gaussian, Inc.
 340 Quinnipiac St., Bldg. 40, Wallingford CT 06492
  
  
 ---------------------------------------------------------------
 Warning -- This program may not be used in any manner that
 competes with the business of Gaussian, Inc. or will provide
 assistance to any competitor of Gaussian, Inc.  The licensee
 of this program is prohibited from giving any competitor of
 Gaussian, Inc. access to this program.  By using this program,
 the user acknowledges that Gaussian, Inc. is engaged in the
 business of creating and licensing software in the field of
 computational chemistry and represents and warrants to the
 licensee that it is not a competitor of Gaussian, Inc. and that
 it will not use this program in any manner prohibited above.
 ---------------------------------------------------------------
  

 Cite this work as:
 Gaussian 16, Revision B.01,
 M. J. Frisch, G. W. Trucks, H. B. Schlegel, G. E. Scuseria, 
 M. A. Robb, J. R. Cheeseman, G. Scalmani, V. Barone, 
 G. A. Petersson, H. Nakatsuji, X. Li, M. Caricato, A. V. Marenich, 
 J. Bloino, B. G. Janesko, R. Gomperts, B. Mennucci, H. P. Hratchian, 
 J. V. Ortiz, A. F. Izmaylov, J. L. Sonnenberg, D. Williams-Young, 
 F. Ding, F. Lipparini, F. Egidi, J. Goings, B. Peng, A. Petrone, 
 T. Henderson, D. Ranasinghe, V. G. Zakrzewski, J. Gao, N. Rega, 
 G. Zheng, W. Liang, M. Hada, M. Ehara, K. Toyota, R. Fukuda, 
 J. Hasegawa, M. Ishida, T. Nakajima, Y. Honda, O. Kitao, H. Nakai, 
 T. Vreven, K. Throssell, J. A. Montgomery, Jr., J. E. Peralta, 
 F. Ogliaro, M. J. Bearpark, J. J. Heyd, E. N. Brothers, K. N. Kudin, 
 V. N. Staroverov, T. A. Keith, R. Kobayashi, J. Normand, 
 K. Raghavachari, A. P. Rendell, J. C. Burant, S. S. Iyengar, 
 J. Tomasi, M. Cossi, J. M. Millam, M. Klene, C. Adamo, R. Cammi, 
 J. W. Ochterski, R. L. Martin, K. Morokuma, O. Farkas, 
 J. B. Foresman, and D. J. Fox, Gaussian, Inc., Wallingford CT, 2016.
 
 ******************************************
 Gaussian 16:  ES64L-G16RevB.01 20-Dec-2017
                29-Sep-2023 
 ******************************************
 %chk=c2h5o.chk
 %mem=500mw
 %nprocs=4
 Will use up to    4 processors via shared memory.
 ---------------------------------------
 # b3lyp/gen opt freq CPHF(Grid=OneStep)
 ---------------------------------------
 1/18=20,19=15,26=3,38=1/1,3;
 2/9=110,12=2,17=6,18=5,40=1/2;
 3/5=7,11=2,25=1,30=1,71=1,74=-5/1,2,3;
 4//1;
 5/5=2,38=5/2;
 6/7=2,8=2,9=2,10=2,28=1/1;
 7//1,2,3,16;
 1/18=20,19=15,26=3/3(2);
 2/9=110/2;
 99//99;
 2/9=110/2;
 3/5=7,6=1,11=2,25=1,30=1,71=1,74=-5,82=7/1,2,3;
 4/5=5,16=3,69=1/1;
 5/5=2,38=5/2;
 7//1,2,3,16;
 1/18=20,19=15,26=3/3(-5);
 2/9=110/2;
 6/7=2,8=2,9=2,10=2,19=2,28=1/1;
 99/9=1/99;
 ----------------------
 ethoxyl, B3LYP/pcseg-2
 ----------------------
 Symbolic Z-matrix:
 Charge =  0 Multiplicity = 2
 C                    -1.1879   -0.19437   0.00004 
 C                     0.17976   0.47459  -0.00038 
 O                     1.25511  -0.36298  -0.00037 
 H                    -1.98357   0.55275   0.00277 
 H                    -1.30688  -0.81992  -0.8845 
 H                    -1.3041   -0.82448   0.88159 
 H                     0.30008   1.16044  -0.86027 
 H                     0.30244   1.15374   0.86541 
 

 GradGradGradGradGradGradGradGradGradGradGradGradGradGradGradGradGradGrad
 Berny optimization.
 Initialization pass.
                           ----------------------------
                           !    Initial Parameters    !
                           ! (Angstroms and Degrees)  !
 --------------------------                            --------------------------
 ! Name  Definition              Value          Derivative Info.                !
 --------------------------------------------------------------------------------
 ! R1    R(1,2)                  1.5225         estimate D2E/DX2                !
 ! R2    R(1,4)                  1.0915         estimate D2E/DX2                !
 ! R3    R(1,5)                  1.0899         estimate D2E/DX2                !
 ! R4    R(1,6)                  1.0898         estimate D2E/DX2                !
 ! R5    R(2,3)                  1.3631         estimate D2E/DX2                !
 ! R6    R(2,7)                  1.1065         estimate D2E/DX2                !
 ! R7    R(2,8)                  1.1072         estimate D2E/DX2                !
 ! A1    A(2,1,4)              110.7382         estimate D2E/DX2                !
 ! A2    A(2,1,5)              110.4886         estimate D2E/DX2                !
 ! A3    A(2,1,6)              110.4901         estimate D2E/DX2                !
 ! A4    A(4,1,5)              108.381          estimate D2E/DX2                !
 ! A5    A(4,1,6)              108.4227         estimate D2E/DX2                !
 ! A6    A(5,1,6)              108.2399         estimate D2E/DX2                !
 ! A7    A(1,2,3)              116.0217         estimate D2E/DX2                !
 ! A8    A(1,2,7)              111.7311         estimate D2E/DX2                !
 ! A9    A(1,2,8)              111.6437         estimate D2E/DX2                !
 ! A10   A(3,2,7)              107.1638         estimate D2E/DX2                !
 ! A11   A(3,2,8)              106.8275         estimate D2E/DX2                !
 ! A12   A(7,2,8)              102.4411         estimate D2E/DX2                !
 ! D1    D(4,1,2,3)            179.8441         estimate D2E/DX2                !
 ! D2    D(4,1,2,7)            -56.9189         estimate D2E/DX2                !
 ! D3    D(4,1,2,8)             57.1396         estimate D2E/DX2                !
 ! D4    D(5,1,2,3)            -60.0614         estimate D2E/DX2                !
 ! D5    D(5,1,2,7)             63.1757         estimate D2E/DX2                !
 ! D6    D(5,1,2,8)            177.2341         estimate D2E/DX2                !
 ! D7    D(6,1,2,3)             59.6963         estimate D2E/DX2                !
 ! D8    D(6,1,2,7)           -177.0667         estimate D2E/DX2                !
 ! D9    D(6,1,2,8)            -63.0082         estimate D2E/DX2                !
 --------------------------------------------------------------------------------
 Trust Radius=3.00D-01 FncErr=1.00D-07 GrdErr=1.00D-06 EigMax=2.50D+02 EigMin=1.00D-04
 Number of steps in this run=     38 maximum allowed number of steps=    100.
 GradGradGradGradGradGradGradGradGradGradGradGradGradGradGradGradGradGrad

                          Input orientation:                          
 ---------------------------------------------------------------------
 Center     Atomic      Atomic             Coordinates (Angstroms)
 Number     Number       Type             X           Y           Z
 ---------------------------------------------------------------------
      1          6           0       -1.187900   -0.194366    0.000037
      2          6           0        0.179755    0.474585   -0.000382
      3          8           0        1.255112   -0.362980   -0.000366
      4          1           0       -1.983573    0.552754    0.002771
      5          1           0       -1.306876   -0.819920   -0.884502
      6          1           0       -1.304097   -0.824480    0.881587
      7          1           0        0.300077    1.160436   -0.860270
      8          1           0        0.302438    1.153736    0.865411
 ---------------------------------------------------------------------
                    Distance matrix (angstroms):
                    1          2          3          4          5
     1  C    0.000000
     2  C    1.522490   0.000000
     3  O    2.448824   1.363051   0.000000
     4  H    1.091463   2.164742   3.365659   0.000000
     5  H    1.089900   2.160436   2.748504   1.769013   0.000000
     6  H    1.089805   2.160383   2.745974   1.769401   1.766097
     7  H    2.188537   1.106470   1.993069   2.515785   2.550430
     8  H    2.188003   1.107201   1.989368   2.516182   3.089888
                    6          7          8
     6  H    0.000000
     7  H    3.089876   0.000000
     8  H    2.548442   1.725696   0.000000
 Stoichiometry    C2H5O(2)
 Framework group  C1[X(C2H5O)]
 Deg. of freedom    18
 Full point group                 C1      NOp   1
 Largest Abelian subgroup         C1      NOp   1
 Largest concise Abelian subgroup C1      NOp   1
                         Standard orientation:                         
 ---------------------------------------------------------------------
 Center     Atomic      Atomic             Coordinates (Angstroms)
 Number     Number       Type             X           Y           Z
 ---------------------------------------------------------------------
      1          6           0       -1.187900   -0.194366    0.000037
      2          6           0        0.179755    0.474585   -0.000382
      3          8           0        1.255112   -0.362980   -0.000366
      4          1           0       -1.983573    0.552754    0.002771
      5          1           0       -1.306876   -0.819920   -0.884502
      6          1           0       -1.304097   -0.824480    0.881587
      7          1           0        0.300077    1.160436   -0.860270
      8          1           0        0.302438    1.153736    0.865411
 ---------------------------------------------------------------------
 Rotational constants (GHZ):          40.0875082           9.5548697           8.5146034
 General basis read from cards:  (5D, 7F)
 There are   180 symmetry adapted cartesian basis functions of A   symmetry.
 There are   160 symmetry adapted basis functions of A   symmetry.
   160 basis functions,   243 primitive gaussians,   180 cartesian basis functions
    13 alpha electrons       12 beta electrons
       nuclear repulsion energy        74.2755792905 Hartrees.
 NAtoms=    8 NActive=    8 NUniq=    8 SFac= 1.00D+00 NAtFMM=   60 NAOKFM=F Big=F
 Integral buffers will be    131072 words long.
 Raffenetti 2 integral format.
 Two-electron integral symmetry is turned on.
 One-electron integrals computed using PRISM.
 NBasis=   160 RedAO= T EigKep=  7.00D-04  NBF=   160
 NBsUse=   160 1.00D-06 EigRej= -1.00D+00 NBFU=   160
 ExpMin= 7.42D-02 ExpMax= 1.36D+04 ExpMxC= 4.64D+02 IAcc=3 IRadAn=         5 AccDes= 0.00D+00
 Harris functional with IExCor=  402 and IRadAn=       5 diagonalized for initial guess.
 HarFok:  IExCor=  402 AccDes= 0.00D+00 IRadAn=         5 IDoV= 1 UseB2=F ITyADJ=14
 ICtDFT=  3500011 ScaDFX=  1.000000  1.000000  1.000000  1.000000
 FoFCou: FMM=F IPFlag=           0 FMFlag=      100000 FMFlg1=           0
         NFxFlg=           0 DoJE=T BraDBF=F KetDBF=T FulRan=T
         wScrn=  0.000000 ICntrl=       500 IOpCl=  0 I1Cent=   200000004 NGrid=           0
         NMat0=    1 NMatS0=      1 NMatT0=    0 NMatD0=    1 NMtDS0=    0 NMtDT0=    0
 Petite list used in FoFCou.
 Initial guess <Sx>= 0.0000 <Sy>= 0.0000 <Sz>= 0.5000 <S**2>= 0.7500 S= 0.5000
 Keep R1 and R2 ints in memory in canonical form, NReq=169946220.
 Requested convergence on RMS density matrix=1.00D-08 within 128 cycles.
 Requested convergence on MAX density matrix=1.00D-06.
 Requested convergence on             energy=1.00D-06.
 No special actions if energy rises.
 Integral accuracy reduced to 1.0D-05 until final iterations.
 Initial convergence to 1.0D-05 achieved.  Increase integral accuracy.
 SCF Done:  E(UB3LYP) =  -154.439686575     A.U. after   18 cycles
            NFock= 18  Conv=0.23D-08     -V/T= 2.0037
 <Sx>= 0.0000 <Sy>= 0.0000 <Sz>= 0.5000 <S**2>= 0.7539 S= 0.5020
 <L.S>=  0.00000000000    
 Annihilation of the first spin contaminant:
 S**2 before annihilation     0.7539,   after     0.7500

 **********************************************************************

            Population analysis using the SCF Density.

 **********************************************************************

 Orbital symmetries:
 Alpha Orbitals:
       Occupied  (A) (A) (A) (A) (A) (A) (A) (A) (A) (A) (A) (A)
                 (A)
       Virtual   (A) (A) (A) (A) (A) (A) (A) (A) (A) (A) (A) (A)
                 (A) (A) (A) (A) (A) (A) (A) (A) (A) (A) (A) (A)
                 (A) (A) (A) (A) (A) (A) (A) (A) (A) (A) (A) (A)
                 (A) (A) (A) (A) (A) (A) (A) (A) (A) (A) (A) (A)
                 (A) (A) (A) (A) (A) (A) (A) (A) (A) (A) (A) (A)
                 (A) (A) (A) (A) (A) (A) (A) (A) (A) (A) (A) (A)
                 (A) (A) (A) (A) (A) (A) (A) (A) (A) (A) (A) (A)
                 (A) (A) (A) (A) (A) (A) (A) (A) (A) (A) (A) (A)
                 (A) (A) (A) (A) (A) (A) (A) (A) (A) (A) (A) (A)
                 (A) (A) (A) (A) (A) (A) (A) (A) (A) (A) (A) (A)
                 (A) (A) (A) (A) (A) (A) (A) (A) (A) (A) (A) (A)
                 (A) (A) (A) (A) (A) (A) (A) (A) (A) (A) (A) (A)
                 (A) (A) (A)
 Beta  Orbitals:
       Occupied  (A) (A) (A) (A) (A) (A) (A) (A) (A) (A) (A) (A)
       Virtual   (A) (A) (A) (A) (A) (A) (A) (A) (A) (A) (A) (A)
                 (A) (A) (A) (A) (A) (A) (A) (A) (A) (A) (A) (A)
                 (A) (A) (A) (A) (A) (A) (A) (A) (A) (A) (A) (A)
                 (A) (A) (A) (A) (A) (A) (A) (A) (A) (A) (A) (A)
                 (A) (A) (A) (A) (A) (A) (A) (A) (A) (A) (A) (A)
                 (A) (A) (A) (A) (A) (A) (A) (A) (A) (A) (A) (A)
                 (A) (A) (A) (A) (A) (A) (A) (A) (A) (A) (A) (A)
                 (A) (A) (A) (A) (A) (A) (A) (A) (A) (A) (A) (A)
                 (A) (A) (A) (A) (A) (A) (A) (A) (A) (A) (A) (A)
                 (A) (A) (A) (A) (A) (A) (A) (A) (A) (A) (A) (A)
                 (A) (A) (A) (A) (A) (A) (A) (A) (A) (A) (A) (A)
                 (A) (A) (A) (A) (A) (A) (A) (A) (A) (A) (A) (A)
                 (A) (A) (A) (A)
 The electronic state is 2-A.
 Alpha  occ. eigenvalues --  -19.16869 -10.23659 -10.17076  -1.03390  -0.75310
 Alpha  occ. eigenvalues --   -0.62392  -0.50425  -0.46848  -0.43140  -0.40075
 Alpha  occ. eigenvalues --   -0.39210  -0.32642  -0.29272
 Alpha virt. eigenvalues --    0.01251   0.04215   0.05340   0.07103   0.09477
 Alpha virt. eigenvalues --    0.10524   0.14515   0.15199   0.17642   0.22180
 Alpha virt. eigenvalues --    0.22540   0.28872   0.30891   0.32050   0.32386
 Alpha virt. eigenvalues --    0.34385   0.35871   0.35934   0.36699   0.43707
 Alpha virt. eigenvalues --    0.45961   0.46577   0.48262   0.66966   0.67565
 Alpha virt. eigenvalues --    0.74985   0.78928   0.83279   0.91622   0.92108
 Alpha virt. eigenvalues --    0.94496   0.96804   0.97220   1.03893   1.05080
 Alpha virt. eigenvalues --    1.06961   1.08035   1.12413   1.14165   1.18908
 Alpha virt. eigenvalues --    1.21069   1.25971   1.32630   1.36301   1.37213
 Alpha virt. eigenvalues --    1.45038   1.53322   1.56449   1.61254   1.67954
 Alpha virt. eigenvalues --    1.70732   1.73108   1.76052   1.76287   1.89018
 Alpha virt. eigenvalues --    1.90404   1.91227   1.95335   1.97104   2.06615
 Alpha virt. eigenvalues --    2.09574   2.24704   2.27887   2.31804   2.51270
 Alpha virt. eigenvalues --    2.55774   2.58457   2.67008   2.93133   3.05678
 Alpha virt. eigenvalues --    3.12892   3.16307   3.22291   3.27620   3.28497
 Alpha virt. eigenvalues --    3.30814   3.36767   3.38832   3.46599   3.51226
 Alpha virt. eigenvalues --    3.63246   3.67448   3.76574   3.76771   3.78976
 Alpha virt. eigenvalues --    3.80305   3.84096   3.90067   3.93924   3.94232
 Alpha virt. eigenvalues --    3.95201   3.99030   4.01516   4.03798   4.09000
 Alpha virt. eigenvalues --    4.22326   4.24350   4.28664   4.34736   4.34807
 Alpha virt. eigenvalues --    4.36557   4.44672   4.45121   4.50319   4.53435
 Alpha virt. eigenvalues --    4.54251   4.60225   4.61860   4.62564   4.64805
 Alpha virt. eigenvalues --    4.66800   4.68827   4.79149   4.81815   4.86389
 Alpha virt. eigenvalues --    4.97354   4.98680   5.04916   5.09657   5.13529
 Alpha virt. eigenvalues --    5.17812   5.27663   5.32737   5.39470   5.49349
 Alpha virt. eigenvalues --    5.50606   5.59816   5.60118   5.63572   5.66744
 Alpha virt. eigenvalues --    5.73236   5.73557   5.76786   5.85850   5.90789
 Alpha virt. eigenvalues --    5.96251   5.97444   5.98636   6.00037   6.14007
 Alpha virt. eigenvalues --    6.15734   6.16718   6.25463   6.29661   6.61594
 Alpha virt. eigenvalues --    6.66684   6.72875
  Beta  occ. eigenvalues --  -19.14493 -10.23710 -10.17086  -0.98424  -0.74512
  Beta  occ. eigenvalues --   -0.61129  -0.47390  -0.45776  -0.42250  -0.38581
  Beta  occ. eigenvalues --   -0.37731  -0.27339
  Beta virt. eigenvalues --   -0.14741   0.01349   0.04304   0.05516   0.07135
  Beta virt. eigenvalues --    0.09800   0.11028   0.14525   0.15299   0.17823
  Beta virt. eigenvalues --    0.22731   0.23254   0.29356   0.31237   0.32232
  Beta virt. eigenvalues --    0.32799   0.34536   0.36008   0.36099   0.36943
  Beta virt. eigenvalues --    0.46644   0.47040   0.47140   0.48429   0.67095
  Beta virt. eigenvalues --    0.68163   0.76085   0.79412   0.83568   0.91884
  Beta virt. eigenvalues --    0.92284   0.95260   0.96917   0.97267   1.04269
  Beta virt. eigenvalues --    1.05609   1.07093   1.08643   1.13300   1.14919
  Beta virt. eigenvalues --    1.19099   1.21677   1.26766   1.33120   1.36687
  Beta virt. eigenvalues --    1.39073   1.45152   1.55529   1.58411   1.61358
  Beta virt. eigenvalues --    1.68091   1.71551   1.73336   1.77400   1.77830
  Beta virt. eigenvalues --    1.89232   1.90991   1.92085   1.96316   2.00695
  Beta virt. eigenvalues --    2.07222   2.10333   2.24747   2.32220   2.32555
  Beta virt. eigenvalues --    2.52157   2.58916   2.59481   2.68200   2.95146
  Beta virt. eigenvalues --    3.06015   3.13307   3.16415   3.23101   3.27680
  Beta virt. eigenvalues --    3.29028   3.31017   3.38271   3.39244   3.47290
  Beta virt. eigenvalues --    3.51591   3.63764   3.67659   3.77335   3.77397
  Beta virt. eigenvalues --    3.79591   3.81797   3.84114   3.91645   3.95125
  Beta virt. eigenvalues --    3.97524   3.99680   4.01096   4.02704   4.05573
  Beta virt. eigenvalues --    4.09695   4.23099   4.25196   4.29308   4.35326
  Beta virt. eigenvalues --    4.35831   4.37309   4.44912   4.45821   4.51079
  Beta virt. eigenvalues --    4.53963   4.55029   4.60739   4.62234   4.62931
  Beta virt. eigenvalues --    4.65367   4.67606   4.69754   4.79729   4.82662
  Beta virt. eigenvalues --    4.86731   4.98342   4.99154   5.05248   5.10544
  Beta virt. eigenvalues --    5.14568   5.18340   5.28456   5.34123   5.40001
  Beta virt. eigenvalues --    5.50661   5.50938   5.60438   5.61058   5.64144
  Beta virt. eigenvalues --    5.67545   5.74450   5.74641   5.77231   5.86226
  Beta virt. eigenvalues --    5.90907   5.96822   5.99575   6.01268   6.01425
  Beta virt. eigenvalues --    6.16848   6.18585   6.20158   6.28015   6.29927
  Beta virt. eigenvalues --    6.67846   6.68108   6.75677
          Condensed to atoms (all electrons):
               1          2          3          4          5          6
     1  C    4.695342   0.313822  -0.058803   0.385904   0.416528   0.416051
     2  C    0.313822   4.457735   0.269999  -0.020523  -0.029848  -0.029750
     3  O   -0.058803   0.269999   8.182856   0.007001   0.000214   0.000520
     4  H    0.385904  -0.020523   0.007001   0.664082  -0.025861  -0.025623
     5  H    0.416528  -0.029848   0.000214  -0.025861   0.629831  -0.021804
     6  H    0.416051  -0.029750   0.000520  -0.025623  -0.021804   0.629575
     7  H   -0.065188   0.418796  -0.042157   0.000643  -0.009258   0.010735
     8  H   -0.063512   0.417402  -0.041113   0.000291   0.010679  -0.009233
               7          8
     1  C   -0.065188  -0.063512
     2  C    0.418796   0.417402
     3  O   -0.042157  -0.041113
     4  H    0.000643   0.000291
     5  H   -0.009258   0.010679
     6  H    0.010735  -0.009233
     7  H    0.672236  -0.026890
     8  H   -0.026890   0.670302
          Atomic-Atomic Spin Densities.
               1          2          3          4          5          6
     1  C   -0.024259   0.021683  -0.005792   0.004076  -0.002179  -0.001848
     2  C    0.021683  -0.065433  -0.035007  -0.000964  -0.000991  -0.000922
     3  O   -0.005792  -0.035007   0.955058  -0.000420   0.002865   0.002671
     4  H    0.004076  -0.000964  -0.000420  -0.003953   0.000132  -0.000038
     5  H   -0.002179  -0.000991   0.002865   0.000132   0.011427  -0.005328
     6  H   -0.001848  -0.000922   0.002671  -0.000038  -0.005328   0.011292
     7  H    0.006286   0.012499  -0.021690  -0.000629  -0.005890   0.003091
     8  H    0.005329   0.013516  -0.022979  -0.000454   0.003166  -0.005960
               7          8
     1  C    0.006286   0.005329
     2  C    0.012499   0.013516
     3  O   -0.021690  -0.022979
     4  H   -0.000629  -0.000454
     5  H   -0.005890   0.003166
     6  H    0.003091  -0.005960
     7  H    0.124981  -0.033426
     8  H   -0.033426   0.129298
 Mulliken charges and spin densities:
               1          2
     1  C   -0.040144   0.003294
     2  C    0.202367  -0.055621
     3  O   -0.318518   0.874706
     4  H    0.014087  -0.002250
     5  H    0.029519   0.003202
     6  H    0.029531   0.002957
     7  H    0.041084   0.085222
     8  H    0.042075   0.088489
 Sum of Mulliken charges =  -0.00000   1.00000
 Mulliken charges and spin densities with hydrogens summed into heavy atoms:
               1          2
     1  C    0.032993   0.007204
     2  C    0.285525   0.118090
     3  O   -0.318518   0.874706
 Electronic spatial extent (au):  <R**2>=            183.1188
 Charge=             -0.0000 electrons
 Dipole moment (field-independent basis, Debye):
    X=             -1.6949    Y=              1.3716    Z=              0.0060  Tot=              2.1803
 Quadrupole moment (field-independent basis, Debye-Ang):
   XX=            -22.4037   YY=            -19.2607   ZZ=            -18.2551
   XY=              1.1291   XZ=              0.0090   YZ=              0.0185
 Traceless Quadrupole moment (field-independent basis, Debye-Ang):
   XX=             -2.4306   YY=              0.7125   ZZ=              1.7181
   XY=              1.1291   XZ=              0.0090   YZ=              0.0185
 Octapole moment (field-independent basis, Debye-Ang**2):
  XXX=             -0.1007  YYY=              0.7008  ZZZ=              0.0091  XYY=              0.8489
  XXY=              1.0501  XXZ=              0.0175  XZZ=              2.1913  YZZ=             -0.1454
  YYZ=              0.0022  XYZ=              0.0112
 Hexadecapole moment (field-independent basis, Debye-Ang**3):
 XXXX=           -162.9605 YYYY=            -53.4798 ZZZZ=            -31.8556 XXXY=             -2.6132
 XXXZ=              0.0362 YYYX=             -0.6038 YYYZ=              0.0158 ZZZX=              0.0144
 ZZZY=              0.0328 XXYY=            -34.4441 XXZZ=            -30.7481 YYZZ=            -12.4030
 XXYZ=              0.0221 YYXZ=             -0.0118 ZZXY=              0.6554
 N-N= 7.427557929055D+01 E-N=-5.098436591193D+02  KE= 1.538753070513D+02
                          Isotropic Fermi Contact Couplings
        Atom                 a.u.       MegaHertz       Gauss      10(-4) cm-1
     1  C(13)             -0.00535      -6.00940      -2.14430      -2.00452
     2  C(13)             -0.03409     -38.32132     -13.67400     -12.78261
     3  O(17)              0.20461    -124.03412     -44.25846     -41.37333
     4  H(1)              -0.00056      -2.49719      -0.89106      -0.83297
     5  H(1)               0.00066       2.95807       1.05551       0.98671
     6  H(1)               0.00064       2.85644       1.01925       0.95281
     7  H(1)               0.04308     192.56628      68.71244      64.23320
     8  H(1)               0.04483     200.38413      71.50204      66.84095
 --------------------------------------------------------
       Center         ----  Spin Dipole Couplings  ----
                      3XX-RR        3YY-RR        3ZZ-RR
 --------------------------------------------------------
     1   Atom        0.013616     -0.005654     -0.007962
     2   Atom       -0.006060     -0.030402      0.036462
     3   Atom       -1.793730     -1.801344      3.595075
     4   Atom        0.007589     -0.003869     -0.003721
     5   Atom        0.009654     -0.004785     -0.004869
     6   Atom        0.009622     -0.004748     -0.004874
     7   Atom       -0.005472      0.011645     -0.006173
     8   Atom       -0.005505      0.011285     -0.005780
 --------------------------------------------------------
                        XY            XZ            YZ
 --------------------------------------------------------
     1   Atom       -0.000201      0.000073      0.000020
     2   Atom       -0.035645      0.000708      0.000788
     3   Atom       -0.001007      0.036636      0.060678
     4   Atom       -0.001084      0.000011      0.000020
     5   Atom        0.003823      0.004674      0.000922
     6   Atom        0.003913     -0.004710     -0.000917
     7   Atom       -0.007796      0.003733     -0.018985
     8   Atom       -0.007838     -0.003604      0.019258
 --------------------------------------------------------


 ---------------------------------------------------------------------------------
              Anisotropic Spin Dipole Couplings in Principal Axis System
 ---------------------------------------------------------------------------------

       Atom             a.u.   MegaHertz   Gauss  10(-4) cm-1        Axes

              Baa    -0.0080    -1.068    -0.381    -0.356 -0.0035 -0.0090  1.0000
     1 C(13)  Bbb    -0.0057    -0.759    -0.271    -0.253  0.0104  0.9999  0.0090
              Bcc     0.0136     1.827     0.652     0.610  0.9999 -0.0104  0.0034
 
              Baa    -0.0559    -7.502    -2.677    -2.503  0.5817  0.8133 -0.0114
     2 C(13)  Bbb     0.0194     2.608     0.931     0.870  0.8133 -0.5818 -0.0069
              Bcc     0.0365     4.895     1.747     1.633  0.0122  0.0053  0.9999
 
              Baa    -1.8023   130.411    46.534    43.500  0.1687  0.9856 -0.0122
     3 O(17)  Bbb    -1.7937   129.793    46.314    43.294  0.9856 -0.1688 -0.0048
              Bcc     3.5960  -260.204   -92.847   -86.795  0.0068  0.0112  0.9999
 
              Baa    -0.0040    -2.119    -0.756    -0.707  0.0931  0.9922 -0.0833
     4 H(1)   Bbb    -0.0037    -1.984    -0.708    -0.662  0.0070  0.0830  0.9965
              Bcc     0.0077     4.104     1.464     1.369  0.9956 -0.0933  0.0008
 
              Baa    -0.0063    -3.363    -1.200    -1.122 -0.3329  0.2940  0.8960
     5 H(1)   Bbb    -0.0056    -3.013    -1.075    -1.005 -0.1247  0.9281 -0.3509
              Bcc     0.0120     6.376     2.275     2.127  0.9347  0.2285  0.2723
 
              Baa    -0.0064    -3.388    -1.209    -1.130  0.3398 -0.3243  0.8828
     6 H(1)   Bbb    -0.0056    -3.004    -1.072    -1.002 -0.1173  0.9168  0.3818
              Bcc     0.0120     6.392     2.281     2.132  0.9332  0.2333 -0.2735
 
              Baa    -0.0183    -9.780    -3.490    -3.262  0.0923  0.5498  0.8302
     7 H(1)   Bbb    -0.0077    -4.116    -1.469    -1.373  0.9604  0.1710 -0.2200
              Bcc     0.0260    13.897     4.959     4.635 -0.2629  0.8176 -0.5122
 
              Baa    -0.0185    -9.845    -3.513    -3.284 -0.1110 -0.5607  0.8206
     8 H(1)   Bbb    -0.0077    -4.093    -1.460    -1.365  0.9590  0.1562  0.2365
              Bcc     0.0261    13.937     4.973     4.649 -0.2608  0.8132  0.5203
 

 ---------------------------------------------------------------------------------

 Calling FoFJK, ICntrl=      2127 FMM=F ISym2X=0 I1Cent= 0 IOpClX= 1 NMat=1 NMatS=1 NMatT=0.
 ***** Axes restored to original set *****
 -------------------------------------------------------------------
 Center     Atomic                   Forces (Hartrees/Bohr)
 Number     Number              X              Y              Z
 -------------------------------------------------------------------
      1        6           0.000030137    0.000010312   -0.000017387
      2        6          -0.000111848    0.000146697    0.000126588
      3        8           0.000103030   -0.000070733    0.000001968
      4        1          -0.000009799   -0.000004821    0.000013272
      5        1           0.000012949    0.000011621    0.000021671
      6        1          -0.000026579   -0.000011938    0.000009789
      7        1           0.000020744    0.000025573    0.000039964
      8        1          -0.000018634   -0.000106711   -0.000195865
 -------------------------------------------------------------------
 Cartesian Forces:  Max     0.000195865 RMS     0.000071235

 GradGradGradGradGradGradGradGradGradGradGradGradGradGradGradGradGradGrad
 Berny optimization.
 FormGI is forming the generalized inverse of G from B-inverse, IUseBI=4.
 Internal  Forces:  Max     0.000220642 RMS     0.000051156
 Search for a local minimum.
 Step number   1 out of a maximum of   38
 All quantities printed in internal units (Hartrees-Bohrs-Radians)
 Mixed Optimization -- En-DIIS/RFO-DIIS
 Second derivative matrix not updated -- first step.
 ITU=  0
     Eigenvalues ---    0.00468   0.04820   0.05652   0.05688   0.05818
     Eigenvalues ---    0.16000   0.16000   0.16000   0.16000   0.16000
     Eigenvalues ---    0.22014   0.30128   0.32898   0.32977   0.34644
     Eigenvalues ---    0.34824   0.34835   0.52336
 RFO step:  Lambda=-2.45073407D-07 EMin= 4.68447877D-03
 Linear search not attempted -- first point.
 Iteration  1 RMS(Cart)=  0.00021847 RMS(Int)=  0.00000003
 Iteration  2 RMS(Cart)=  0.00000002 RMS(Int)=  0.00000001
 Variable       Old X    -DE/DX   Delta X   Delta X   Delta X     New X
                                 (Linear)    (Quad)   (Total)
    R1        2.87709  -0.00001   0.00000  -0.00003  -0.00003   2.87706
    R2        2.06257   0.00000   0.00000   0.00001   0.00001   2.06258
    R3        2.05961  -0.00003   0.00000  -0.00007  -0.00007   2.05954
    R4        2.05943   0.00002   0.00000   0.00005   0.00005   2.05948
    R5        2.57579   0.00012   0.00000   0.00024   0.00024   2.57603
    R6        2.09093  -0.00001   0.00000  -0.00004  -0.00004   2.09089
    R7        2.09231  -0.00022   0.00000  -0.00067  -0.00067   2.09164
    A1        1.93275   0.00001   0.00000   0.00008   0.00008   1.93282
    A2        1.92839  -0.00002   0.00000  -0.00012  -0.00012   1.92827
    A3        1.92842   0.00003   0.00000   0.00020   0.00020   1.92862
    A4        1.89160   0.00001   0.00000   0.00004   0.00004   1.89165
    A5        1.89233  -0.00002   0.00000  -0.00015  -0.00015   1.89218
    A6        1.88914  -0.00001   0.00000  -0.00006  -0.00006   1.88908
    A7        2.02496   0.00001   0.00000   0.00009   0.00009   2.02505
    A8        1.95007   0.00004   0.00000   0.00027   0.00027   1.95034
    A9        1.94855   0.00001   0.00000   0.00002   0.00002   1.94857
   A10        1.87036  -0.00002   0.00000   0.00002   0.00002   1.87038
   A11        1.86449  -0.00001   0.00000  -0.00000  -0.00000   1.86449
   A12        1.78793  -0.00005   0.00000  -0.00047  -0.00047   1.78747
    D1        3.13887  -0.00000   0.00000  -0.00013  -0.00013   3.13874
    D2       -0.99342   0.00001   0.00000   0.00019   0.00019  -0.99323
    D3        0.99727  -0.00001   0.00000  -0.00021  -0.00021   0.99706
    D4       -1.04827  -0.00000   0.00000  -0.00011  -0.00011  -1.04838
    D5        1.10262   0.00001   0.00000   0.00022   0.00022   1.10284
    D6        3.09332  -0.00001   0.00000  -0.00018  -0.00018   3.09313
    D7        1.04190  -0.00000   0.00000  -0.00013  -0.00013   1.04177
    D8       -3.09040   0.00001   0.00000   0.00020   0.00020  -3.09020
    D9       -1.09970  -0.00001   0.00000  -0.00021  -0.00021  -1.09991
         Item               Value     Threshold  Converged?
 Maximum Force            0.000221     0.000450     YES
 RMS     Force            0.000051     0.000300     YES
 Maximum Displacement     0.000819     0.001800     YES
 RMS     Displacement     0.000218     0.001200     YES
 Predicted change in Energy=-1.225392D-07
 Optimization completed.
    -- Stationary point found.
                           ----------------------------
                           !   Optimized Parameters   !
                           ! (Angstroms and Degrees)  !
 --------------------------                            --------------------------
 ! Name  Definition              Value          Derivative Info.                !
 --------------------------------------------------------------------------------
 ! R1    R(1,2)                  1.5225         -DE/DX =    0.0                 !
 ! R2    R(1,4)                  1.0915         -DE/DX =    0.0                 !
 ! R3    R(1,5)                  1.0899         -DE/DX =    0.0                 !
 ! R4    R(1,6)                  1.0898         -DE/DX =    0.0                 !
 ! R5    R(2,3)                  1.3631         -DE/DX =    0.0001              !
 ! R6    R(2,7)                  1.1065         -DE/DX =    0.0                 !
 ! R7    R(2,8)                  1.1072         -DE/DX =   -0.0002              !
 ! A1    A(2,1,4)              110.7382         -DE/DX =    0.0                 !
 ! A2    A(2,1,5)              110.4886         -DE/DX =    0.0                 !
 ! A3    A(2,1,6)              110.4901         -DE/DX =    0.0                 !
 ! A4    A(4,1,5)              108.381          -DE/DX =    0.0                 !
 ! A5    A(4,1,6)              108.4227         -DE/DX =    0.0                 !
 ! A6    A(5,1,6)              108.2399         -DE/DX =    0.0                 !
 ! A7    A(1,2,3)              116.0217         -DE/DX =    0.0                 !
 ! A8    A(1,2,7)              111.7311         -DE/DX =    0.0                 !
 ! A9    A(1,2,8)              111.6437         -DE/DX =    0.0                 !
 ! A10   A(3,2,7)              107.1638         -DE/DX =    0.0                 !
 ! A11   A(3,2,8)              106.8275         -DE/DX =    0.0                 !
 ! A12   A(7,2,8)              102.4411         -DE/DX =    0.0                 !
 ! D1    D(4,1,2,3)            179.8441         -DE/DX =    0.0                 !
 ! D2    D(4,1,2,7)            -56.9189         -DE/DX =    0.0                 !
 ! D3    D(4,1,2,8)             57.1396         -DE/DX =    0.0                 !
 ! D4    D(5,1,2,3)            -60.0614         -DE/DX =    0.0                 !
 ! D5    D(5,1,2,7)             63.1757         -DE/DX =    0.0                 !
 ! D6    D(5,1,2,8)            177.2341         -DE/DX =    0.0                 !
 ! D7    D(6,1,2,3)             59.6963         -DE/DX =    0.0                 !
 ! D8    D(6,1,2,7)           -177.0667         -DE/DX =    0.0                 !
 ! D9    D(6,1,2,8)            -63.0082         -DE/DX =    0.0                 !
 --------------------------------------------------------------------------------
 GradGradGradGradGradGradGradGradGradGradGradGradGradGradGradGradGradGrad

                          Input orientation:                          
 ---------------------------------------------------------------------
 Center     Atomic      Atomic             Coordinates (Angstroms)
 Number     Number       Type             X           Y           Z
 ---------------------------------------------------------------------
      1          6           0       -1.187900   -0.194366    0.000037
      2          6           0        0.179755    0.474585   -0.000382
      3          8           0        1.255112   -0.362980   -0.000366
      4          1           0       -1.983573    0.552754    0.002771
      5          1           0       -1.306876   -0.819920   -0.884502
      6          1           0       -1.304097   -0.824480    0.881587
      7          1           0        0.300077    1.160436   -0.860270
      8          1           0        0.302438    1.153736    0.865411
 ---------------------------------------------------------------------
                    Distance matrix (angstroms):
                    1          2          3          4          5
     1  C    0.000000
     2  C    1.522490   0.000000
     3  O    2.448824   1.363051   0.000000
     4  H    1.091463   2.164742   3.365659   0.000000
     5  H    1.089900   2.160436   2.748504   1.769013   0.000000
     6  H    1.089805   2.160383   2.745974   1.769401   1.766097
     7  H    2.188537   1.106470   1.993069   2.515785   2.550430
     8  H    2.188003   1.107201   1.989368   2.516182   3.089888
                    6          7          8
     6  H    0.000000
     7  H    3.089876   0.000000
     8  H    2.548442   1.725696   0.000000
 Stoichiometry    C2H5O(2)
 Framework group  C1[X(C2H5O)]
 Deg. of freedom    18
 Full point group                 C1      NOp   1
 Largest Abelian subgroup         C1      NOp   1
 Largest concise Abelian subgroup C1      NOp   1
                         Standard orientation:                         
 ---------------------------------------------------------------------
 Center     Atomic      Atomic             Coordinates (Angstroms)
 Number     Number       Type             X           Y           Z
 ---------------------------------------------------------------------
      1          6           0       -1.187900   -0.194366    0.000037
      2          6           0        0.179755    0.474585   -0.000382
      3          8           0        1.255112   -0.362980   -0.000366
      4          1           0       -1.983573    0.552754    0.002771
      5          1           0       -1.306876   -0.819920   -0.884502
      6          1           0       -1.304097   -0.824480    0.881587
      7          1           0        0.300077    1.160436   -0.860270
      8          1           0        0.302438    1.153736    0.865411
 ---------------------------------------------------------------------
 Rotational constants (GHZ):          40.0875082           9.5548697           8.5146034
 1\1\GINC-GAMBA\FOpt\UB3LYP\Gen\C2H5O1(2)\IRIKURA\29-Sep-2023\0\\# b3ly
 p/gen opt freq CPHF(Grid=OneStep)\\ethoxyl, B3LYP/pcseg-2\\0,2\C,-1.18
 79,-0.194366,0.000037\C,0.179755,0.474585,-0.000382\O,1.255112,-0.3629
 8,-0.000366\H,-1.983573,0.552754,0.002771\H,-1.306876,-0.81992,-0.8845
 02\H,-1.304097,-0.82448,0.881587\H,0.300077,1.160436,-0.86027\H,0.3024
 38,1.153736,0.865411\\Version=ES64L-G16RevB.01\State=2-A\HF=-154.43968
 66\S2=0.753925\S2-1=0.\S2A=0.750012\RMSD=2.282e-09\RMSF=7.123e-05\Dipo
 le=-0.6668091,0.5396355,0.0023726\Quadrupole=-1.8070588,0.5296938,1.27
 7365,0.8394892,0.0066569,0.0137285\PG=C01 [X(C2H5O1)]\\@


 FLOATING POINT NUMBERS ARE LIKE SANDPILES:
 EVERY TIME THAT YOU MOVE ONE, YOU LOSE A LITTLE SAND 
 AND YOU PICK UP A LITTLE DIRT.
 Job cpu time:       0 days  0 hours  2 minutes 32.0 seconds.
 Elapsed time:       0 days  0 hours  0 minutes 41.9 seconds.
 File lengths (MBytes):  RWF=     22 Int=      0 D2E=      0 Chk=      3 Scr=      1
 Normal termination of Gaussian 16 at Fri Sep 29 04:42:10 2023.
 Link1:  Proceeding to internal job step number  2.
 ------------------------------------------------------------------
 #N Geom=AllCheck Guess=TCheck SCRF=Check GenChk UB3LYP/ChkBas Freq
 ------------------------------------------------------------------
 1/10=4,29=7,30=1,38=1,40=1/1,3;
 2/12=2,40=1/2;
 3/5=7,6=2,11=2,14=-4,25=1,30=1,67=1,70=2,71=2,74=-5,82=7,116=2,140=1/1,2,3;
 4/5=101/1;
 5/5=2,38=6,98=1/2;
 8/6=4,10=90,11=11/1;
 11/6=1,8=1,9=11,15=111,16=1/1,2,10;
 10/6=1,60=-420/2;
 6/7=2,8=2,9=2,10=2,28=1/1;
 7/8=1,10=1,25=1/1,2,3,16;
 1/10=4,30=1/3;
 99//99;
 Structure from the checkpoint file:  "c2h5o.chk"
 ----------------------
 ethoxyl, B3LYP/pcseg-2
 ----------------------
 Charge =  0 Multiplicity = 2
 Redundant internal coordinates found in file.  (old form).
 C,0,-1.1879,-0.194366,0.000037
 C,0,0.179755,0.474585,-0.000382
 O,0,1.255112,-0.36298,-0.000366
 H,0,-1.983573,0.552754,0.002771
 H,0,-1.306876,-0.81992,-0.884502
 H,0,-1.304097,-0.82448,0.881587
 H,0,0.300077,1.160436,-0.86027
 H,0,0.302438,1.153736,0.865411
 Recover connectivity data from disk.

 GradGradGradGradGradGradGradGradGradGradGradGradGradGradGradGradGradGrad
 Berny optimization.
 Initialization pass.
                           ----------------------------
                           !    Initial Parameters    !
                           ! (Angstroms and Degrees)  !
 --------------------------                            --------------------------
 ! Name  Definition              Value          Derivative Info.                !
 --------------------------------------------------------------------------------
 ! R1    R(1,2)                  1.5225         calculate D2E/DX2 analytically  !
 ! R2    R(1,4)                  1.0915         calculate D2E/DX2 analytically  !
 ! R3    R(1,5)                  1.0899         calculate D2E/DX2 analytically  !
 ! R4    R(1,6)                  1.0898         calculate D2E/DX2 analytically  !
 ! R5    R(2,3)                  1.3631         calculate D2E/DX2 analytically  !
 ! R6    R(2,7)                  1.1065         calculate D2E/DX2 analytically  !
 ! R7    R(2,8)                  1.1072         calculate D2E/DX2 analytically  !
 ! A1    A(2,1,4)              110.7382         calculate D2E/DX2 analytically  !
 ! A2    A(2,1,5)              110.4886         calculate D2E/DX2 analytically  !
 ! A3    A(2,1,6)              110.4901         calculate D2E/DX2 analytically  !
 ! A4    A(4,1,5)              108.381          calculate D2E/DX2 analytically  !
 ! A5    A(4,1,6)              108.4227         calculate D2E/DX2 analytically  !
 ! A6    A(5,1,6)              108.2399         calculate D2E/DX2 analytically  !
 ! A7    A(1,2,3)              116.0217         calculate D2E/DX2 analytically  !
 ! A8    A(1,2,7)              111.7311         calculate D2E/DX2 analytically  !
 ! A9    A(1,2,8)              111.6437         calculate D2E/DX2 analytically  !
 ! A10   A(3,2,7)              107.1638         calculate D2E/DX2 analytically  !
 ! A11   A(3,2,8)              106.8275         calculate D2E/DX2 analytically  !
 ! A12   A(7,2,8)              102.4411         calculate D2E/DX2 analytically  !
 ! D1    D(4,1,2,3)            179.8441         calculate D2E/DX2 analytically  !
 ! D2    D(4,1,2,7)            -56.9189         calculate D2E/DX2 analytically  !
 ! D3    D(4,1,2,8)             57.1396         calculate D2E/DX2 analytically  !
 ! D4    D(5,1,2,3)            -60.0614         calculate D2E/DX2 analytically  !
 ! D5    D(5,1,2,7)             63.1757         calculate D2E/DX2 analytically  !
 ! D6    D(5,1,2,8)            177.2341         calculate D2E/DX2 analytically  !
 ! D7    D(6,1,2,3)             59.6963         calculate D2E/DX2 analytically  !
 ! D8    D(6,1,2,7)           -177.0667         calculate D2E/DX2 analytically  !
 ! D9    D(6,1,2,8)            -63.0082         calculate D2E/DX2 analytically  !
 --------------------------------------------------------------------------------
 Trust Radius=3.00D-01 FncErr=1.00D-07 GrdErr=1.00D-07 EigMax=2.50D+02 EigMin=1.00D-04
 Number of steps in this run=      2 maximum allowed number of steps=      2.
 GradGradGradGradGradGradGradGradGradGradGradGradGradGradGradGradGradGrad

                          Input orientation:                          
 ---------------------------------------------------------------------
 Center     Atomic      Atomic             Coordinates (Angstroms)
 Number     Number       Type             X           Y           Z
 ---------------------------------------------------------------------
      1          6           0       -1.187900   -0.194366    0.000037
      2          6           0        0.179755    0.474585   -0.000382
      3          8           0        1.255112   -0.362980   -0.000366
      4          1           0       -1.983573    0.552754    0.002771
      5          1           0       -1.306876   -0.819920   -0.884502
      6          1           0       -1.304097   -0.824480    0.881587
      7          1           0        0.300077    1.160436   -0.860270
      8          1           0        0.302438    1.153736    0.865411
 ---------------------------------------------------------------------
                    Distance matrix (angstroms):
                    1          2          3          4          5
     1  C    0.000000
     2  C    1.522490   0.000000
     3  O    2.448824   1.363051   0.000000
     4  H    1.091463   2.164742   3.365659   0.000000
     5  H    1.089900   2.160436   2.748504   1.769013   0.000000
     6  H    1.089805   2.160383   2.745974   1.769401   1.766097
     7  H    2.188537   1.106470   1.993069   2.515785   2.550430
     8  H    2.188003   1.107201   1.989368   2.516182   3.089888
                    6          7          8
     6  H    0.000000
     7  H    3.089876   0.000000
     8  H    2.548442   1.725696   0.000000
 Stoichiometry    C2H5O(2)
 Framework group  C1[X(C2H5O)]
 Deg. of freedom    18
 Full point group                 C1      NOp   1
 Largest Abelian subgroup         C1      NOp   1
 Largest concise Abelian subgroup C1      NOp   1
                         Standard orientation:                         
 ---------------------------------------------------------------------
 Center     Atomic      Atomic             Coordinates (Angstroms)
 Number     Number       Type             X           Y           Z
 ---------------------------------------------------------------------
      1          6           0       -1.187900   -0.194366    0.000037
      2          6           0        0.179755    0.474585   -0.000382
      3          8           0        1.255112   -0.362980   -0.000366
      4          1           0       -1.983573    0.552754    0.002771
      5          1           0       -1.306876   -0.819920   -0.884502
      6          1           0       -1.304097   -0.824480    0.881587
      7          1           0        0.300077    1.160436   -0.860270
      8          1           0        0.302438    1.153736    0.865411
 ---------------------------------------------------------------------
 Rotational constants (GHZ):          40.0875082           9.5548697           8.5146034
 Basis read from chk: "c2h5o.chk" (5D, 7F)
 There are   180 symmetry adapted cartesian basis functions of A   symmetry.
 There are   160 symmetry adapted basis functions of A   symmetry.
   160 basis functions,   243 primitive gaussians,   180 cartesian basis functions
    13 alpha electrons       12 beta electrons
       nuclear repulsion energy        74.2755792905 Hartrees.
 NAtoms=    8 NActive=    8 NUniq=    8 SFac= 1.00D+00 NAtFMM=   60 NAOKFM=F Big=F
 Integral buffers will be    131072 words long.
 Raffenetti 2 integral format.
 Two-electron integral symmetry is turned on.
 One-electron integrals computed using PRISM.
 NBasis=   160 RedAO= T EigKep=  7.00D-04  NBF=   160
 NBsUse=   160 1.00D-06 EigRej= -1.00D+00 NBFU=   160
 Initial guess from the checkpoint file:  "c2h5o.chk"
 B after Tr=     0.000000    0.000000    0.000000
         Rot=    1.000000   -0.000000   -0.000000   -0.000000 Ang=   0.00 deg.
 Initial guess <Sx>= 0.0000 <Sy>= 0.0000 <Sz>= 0.5000 <S**2>= 0.7539 S= 0.5020
 Keep R1 and R2 ints in memory in canonical form, NReq=169946220.
 Requested convergence on RMS density matrix=1.00D-08 within 128 cycles.
 Requested convergence on MAX density matrix=1.00D-06.
 Requested convergence on             energy=1.00D-06.
 No special actions if energy rises.
 SCF Done:  E(UB3LYP) =  -154.439686575     A.U. after    1 cycles
            NFock=  1  Conv=0.30D-09     -V/T= 2.0037
 <Sx>= 0.0000 <Sy>= 0.0000 <Sz>= 0.5000 <S**2>= 0.7539 S= 0.5020
 <L.S>=  0.00000000000    
 Annihilation of the first spin contaminant:
 S**2 before annihilation     0.7539,   after     0.7500
 DoSCS=F DFT=T ScalE2(SS,OS)=  1.000000  1.000000
 Range of M.O.s used for correlation:     1   160
 NBasis=   160 NAE=    13 NBE=    12 NFC=     0 NFV=     0
 NROrb=    160 NOA=    13 NOB=    12 NVA=   147 NVB=   148

 **** Warning!!: The largest alpha MO coefficient is  0.12949974D+02


 **** Warning!!: The largest beta MO coefficient is  0.12951288D+02

 Symmetrizing basis deriv contribution to polar:
 IMax=3 JMax=2 DiffMx= 0.00D+00
 G2DrvN: will do     9 centers at a time, making    1 passes.
 Calling FoFCou, ICntrl=  3107 FMM=F I1Cent=   0 AccDes= 0.00D+00.
 End of G2Drv F.D. properties file   721 does not exist.
 End of G2Drv F.D. properties file   722 does not exist.
 End of G2Drv F.D. properties file   788 does not exist.
          IDoAtm=11111111
          Differentiating once with respect to electric field.
                with respect to dipole field.
          Differentiating once with respect to nuclear coordinates.
 Keep R1 and R2 ints in memory in canonical form, NReq=169945584.
          There are    27 degrees of freedom in the 1st order CPHF.  IDoFFX=6 NUNeed=     3.
     24 vectors produced by pass  0 Test12= 1.37D-14 3.70D-09 XBig12= 4.10D+01 2.25D+00.
 AX will form    24 AO Fock derivatives at one time.
     24 vectors produced by pass  1 Test12= 1.37D-14 3.70D-09 XBig12= 5.25D+00 5.65D-01.
     24 vectors produced by pass  2 Test12= 1.37D-14 3.70D-09 XBig12= 1.51D-01 1.44D-01.
     24 vectors produced by pass  3 Test12= 1.37D-14 3.70D-09 XBig12= 7.93D-04 7.06D-03.
     24 vectors produced by pass  4 Test12= 1.37D-14 3.70D-09 XBig12= 7.91D-06 5.31D-04.
     24 vectors produced by pass  5 Test12= 1.37D-14 3.70D-09 XBig12= 4.19D-08 3.99D-05.
     12 vectors produced by pass  6 Test12= 1.37D-14 3.70D-09 XBig12= 1.62D-10 1.96D-06.
      3 vectors produced by pass  7 Test12= 1.37D-14 3.70D-09 XBig12= 4.95D-13 1.14D-07.
      1 vectors produced by pass  8 Test12= 1.37D-14 3.70D-09 XBig12= 1.32D-15 4.65D-09.
 InvSVY:  IOpt=1 It=  1 EMax= 3.55D-15
 Solved reduced A of dimension   160 with    27 vectors.
 Isotropic polarizability for W=    0.000000       31.14 Bohr**3.
 End of Minotr F.D. properties file   721 does not exist.
 End of Minotr F.D. properties file   722 does not exist.
 End of Minotr F.D. properties file   788 does not exist.

 **********************************************************************

            Population analysis using the SCF Density.

 **********************************************************************

 Orbital symmetries:
 Alpha Orbitals:
       Occupied  (A) (A) (A) (A) (A) (A) (A) (A) (A) (A) (A) (A)
                 (A)
       Virtual   (A) (A) (A) (A) (A) (A) (A) (A) (A) (A) (A) (A)
                 (A) (A) (A) (A) (A) (A) (A) (A) (A) (A) (A) (A)
                 (A) (A) (A) (A) (A) (A) (A) (A) (A) (A) (A) (A)
                 (A) (A) (A) (A) (A) (A) (A) (A) (A) (A) (A) (A)
                 (A) (A) (A) (A) (A) (A) (A) (A) (A) (A) (A) (A)
                 (A) (A) (A) (A) (A) (A) (A) (A) (A) (A) (A) (A)
                 (A) (A) (A) (A) (A) (A) (A) (A) (A) (A) (A) (A)
                 (A) (A) (A) (A) (A) (A) (A) (A) (A) (A) (A) (A)
                 (A) (A) (A) (A) (A) (A) (A) (A) (A) (A) (A) (A)
                 (A) (A) (A) (A) (A) (A) (A) (A) (A) (A) (A) (A)
                 (A) (A) (A) (A) (A) (A) (A) (A) (A) (A) (A) (A)
                 (A) (A) (A) (A) (A) (A) (A) (A) (A) (A) (A) (A)
                 (A) (A) (A)
 Beta  Orbitals:
       Occupied  (A) (A) (A) (A) (A) (A) (A) (A) (A) (A) (A) (A)
       Virtual   (A) (A) (A) (A) (A) (A) (A) (A) (A) (A) (A) (A)
                 (A) (A) (A) (A) (A) (A) (A) (A) (A) (A) (A) (A)
                 (A) (A) (A) (A) (A) (A) (A) (A) (A) (A) (A) (A)
                 (A) (A) (A) (A) (A) (A) (A) (A) (A) (A) (A) (A)
                 (A) (A) (A) (A) (A) (A) (A) (A) (A) (A) (A) (A)
                 (A) (A) (A) (A) (A) (A) (A) (A) (A) (A) (A) (A)
                 (A) (A) (A) (A) (A) (A) (A) (A) (A) (A) (A) (A)
                 (A) (A) (A) (A) (A) (A) (A) (A) (A) (A) (A) (A)
                 (A) (A) (A) (A) (A) (A) (A) (A) (A) (A) (A) (A)
                 (A) (A) (A) (A) (A) (A) (A) (A) (A) (A) (A) (A)
                 (A) (A) (A) (A) (A) (A) (A) (A) (A) (A) (A) (A)
                 (A) (A) (A) (A) (A) (A) (A) (A) (A) (A) (A) (A)
                 (A) (A) (A) (A)
 The electronic state is 2-A.
 Alpha  occ. eigenvalues --  -19.16869 -10.23659 -10.17076  -1.03390  -0.75310
 Alpha  occ. eigenvalues --   -0.62392  -0.50425  -0.46848  -0.43140  -0.40075
 Alpha  occ. eigenvalues --   -0.39210  -0.32642  -0.29272
 Alpha virt. eigenvalues --    0.01251   0.04215   0.05340   0.07103   0.09477
 Alpha virt. eigenvalues --    0.10524   0.14515   0.15199   0.17642   0.22180
 Alpha virt. eigenvalues --    0.22540   0.28872   0.30891   0.32050   0.32386
 Alpha virt. eigenvalues --    0.34385   0.35871   0.35934   0.36699   0.43707
 Alpha virt. eigenvalues --    0.45961   0.46577   0.48262   0.66966   0.67565
 Alpha virt. eigenvalues --    0.74985   0.78928   0.83279   0.91622   0.92108
 Alpha virt. eigenvalues --    0.94496   0.96804   0.97220   1.03893   1.05080
 Alpha virt. eigenvalues --    1.06961   1.08035   1.12413   1.14165   1.18908
 Alpha virt. eigenvalues --    1.21069   1.25971   1.32630   1.36301   1.37213
 Alpha virt. eigenvalues --    1.45038   1.53322   1.56449   1.61254   1.67954
 Alpha virt. eigenvalues --    1.70732   1.73108   1.76052   1.76287   1.89018
 Alpha virt. eigenvalues --    1.90404   1.91227   1.95335   1.97104   2.06615
 Alpha virt. eigenvalues --    2.09574   2.24704   2.27887   2.31804   2.51270
 Alpha virt. eigenvalues --    2.55774   2.58457   2.67008   2.93133   3.05678
 Alpha virt. eigenvalues --    3.12892   3.16307   3.22291   3.27620   3.28497
 Alpha virt. eigenvalues --    3.30814   3.36767   3.38832   3.46599   3.51226
 Alpha virt. eigenvalues --    3.63246   3.67448   3.76574   3.76771   3.78976
 Alpha virt. eigenvalues --    3.80305   3.84096   3.90067   3.93924   3.94232
 Alpha virt. eigenvalues --    3.95201   3.99030   4.01516   4.03798   4.09000
 Alpha virt. eigenvalues --    4.22326   4.24350   4.28664   4.34736   4.34807
 Alpha virt. eigenvalues --    4.36557   4.44672   4.45121   4.50319   4.53435
 Alpha virt. eigenvalues --    4.54251   4.60225   4.61860   4.62564   4.64805
 Alpha virt. eigenvalues --    4.66800   4.68827   4.79149   4.81815   4.86389
 Alpha virt. eigenvalues --    4.97354   4.98680   5.04916   5.09657   5.13529
 Alpha virt. eigenvalues --    5.17812   5.27663   5.32737   5.39470   5.49349
 Alpha virt. eigenvalues --    5.50606   5.59816   5.60118   5.63572   5.66744
 Alpha virt. eigenvalues --    5.73236   5.73557   5.76786   5.85850   5.90789
 Alpha virt. eigenvalues --    5.96251   5.97444   5.98636   6.00037   6.14007
 Alpha virt. eigenvalues --    6.15734   6.16718   6.25463   6.29661   6.61594
 Alpha virt. eigenvalues --    6.66684   6.72875
  Beta  occ. eigenvalues --  -19.14493 -10.23710 -10.17086  -0.98424  -0.74512
  Beta  occ. eigenvalues --   -0.61129  -0.47390  -0.45776  -0.42250  -0.38581
  Beta  occ. eigenvalues --   -0.37731  -0.27339
  Beta virt. eigenvalues --   -0.14741   0.01349   0.04304   0.05516   0.07135
  Beta virt. eigenvalues --    0.09800   0.11028   0.14525   0.15299   0.17823
  Beta virt. eigenvalues --    0.22731   0.23254   0.29356   0.31237   0.32232
  Beta virt. eigenvalues --    0.32799   0.34536   0.36008   0.36099   0.36943
  Beta virt. eigenvalues --    0.46644   0.47040   0.47140   0.48429   0.67095
  Beta virt. eigenvalues --    0.68163   0.76085   0.79412   0.83568   0.91884
  Beta virt. eigenvalues --    0.92284   0.95260   0.96917   0.97267   1.04269
  Beta virt. eigenvalues --    1.05609   1.07093   1.08643   1.13300   1.14919
  Beta virt. eigenvalues --    1.19099   1.21677   1.26766   1.33120   1.36687
  Beta virt. eigenvalues --    1.39073   1.45152   1.55529   1.58411   1.61358
  Beta virt. eigenvalues --    1.68091   1.71551   1.73336   1.77400   1.77830
  Beta virt. eigenvalues --    1.89232   1.90991   1.92085   1.96316   2.00695
  Beta virt. eigenvalues --    2.07222   2.10333   2.24747   2.32220   2.32555
  Beta virt. eigenvalues --    2.52157   2.58916   2.59481   2.68200   2.95146
  Beta virt. eigenvalues --    3.06015   3.13307   3.16415   3.23101   3.27680
  Beta virt. eigenvalues --    3.29028   3.31017   3.38271   3.39244   3.47290
  Beta virt. eigenvalues --    3.51591   3.63764   3.67659   3.77335   3.77397
  Beta virt. eigenvalues --    3.79591   3.81797   3.84114   3.91645   3.95125
  Beta virt. eigenvalues --    3.97524   3.99680   4.01096   4.02704   4.05573
  Beta virt. eigenvalues --    4.09695   4.23099   4.25196   4.29308   4.35326
  Beta virt. eigenvalues --    4.35831   4.37309   4.44912   4.45821   4.51079
  Beta virt. eigenvalues --    4.53963   4.55029   4.60739   4.62234   4.62931
  Beta virt. eigenvalues --    4.65367   4.67606   4.69754   4.79729   4.82662
  Beta virt. eigenvalues --    4.86731   4.98342   4.99154   5.05248   5.10544
  Beta virt. eigenvalues --    5.14568   5.18340   5.28456   5.34123   5.40001
  Beta virt. eigenvalues --    5.50661   5.50938   5.60438   5.61058   5.64144
  Beta virt. eigenvalues --    5.67545   5.74450   5.74641   5.77231   5.86226
  Beta virt. eigenvalues --    5.90907   5.96822   5.99575   6.01268   6.01425
  Beta virt. eigenvalues --    6.16848   6.18585   6.20158   6.28015   6.29927
  Beta virt. eigenvalues --    6.67846   6.68108   6.75677
          Condensed to atoms (all electrons):
               1          2          3          4          5          6
     1  C    4.695342   0.313822  -0.058803   0.385904   0.416528   0.416051
     2  C    0.313822   4.457735   0.269999  -0.020523  -0.029848  -0.029750
     3  O   -0.058803   0.269999   8.182856   0.007001   0.000214   0.000520
     4  H    0.385904  -0.020523   0.007001   0.664082  -0.025861  -0.025623
     5  H    0.416528  -0.029848   0.000214  -0.025861   0.629831  -0.021804
     6  H    0.416051  -0.029750   0.000520  -0.025623  -0.021804   0.629575
     7  H   -0.065188   0.418796  -0.042157   0.000643  -0.009258   0.010735
     8  H   -0.063512   0.417402  -0.041113   0.000291   0.010679  -0.009233
               7          8
     1  C   -0.065188  -0.063512
     2  C    0.418796   0.417402
     3  O   -0.042157  -0.041113
     4  H    0.000643   0.000291
     5  H   -0.009258   0.010679
     6  H    0.010735  -0.009233
     7  H    0.672236  -0.026890
     8  H   -0.026890   0.670302
          Atomic-Atomic Spin Densities.
               1          2          3          4          5          6
     1  C   -0.024260   0.021683  -0.005792   0.004076  -0.002179  -0.001848
     2  C    0.021683  -0.065433  -0.035007  -0.000964  -0.000991  -0.000922
     3  O   -0.005792  -0.035007   0.955058  -0.000420   0.002865   0.002671
     4  H    0.004076  -0.000964  -0.000420  -0.003953   0.000132  -0.000038
     5  H   -0.002179  -0.000991   0.002865   0.000132   0.011427  -0.005328
     6  H   -0.001848  -0.000922   0.002671  -0.000038  -0.005328   0.011292
     7  H    0.006286   0.012499  -0.021690  -0.000629  -0.005890   0.003091
     8  H    0.005329   0.013516  -0.022979  -0.000454   0.003166  -0.005960
               7          8
     1  C    0.006286   0.005329
     2  C    0.012499   0.013516
     3  O   -0.021690  -0.022979
     4  H   -0.000629  -0.000454
     5  H   -0.005890   0.003166
     6  H    0.003091  -0.005960
     7  H    0.124981  -0.033426
     8  H   -0.033426   0.129298
 Mulliken charges and spin densities:
               1          2
     1  C   -0.040144   0.003294
     2  C    0.202367  -0.055621
     3  O   -0.318518   0.874706
     4  H    0.014087  -0.002250
     5  H    0.029519   0.003202
     6  H    0.029531   0.002957
     7  H    0.041084   0.085222
     8  H    0.042075   0.088489
 Sum of Mulliken charges =  -0.00000   1.00000
 Mulliken charges and spin densities with hydrogens summed into heavy atoms:
               1          2
     1  C    0.032993   0.007204
     2  C    0.285525   0.118090
     3  O   -0.318518   0.874706
 APT charges:
               1
     1  C    0.043871
     2  C    0.193056
     3  O   -0.252302
     4  H   -0.016280
     5  H   -0.007461
     6  H   -0.006697
     7  H    0.020965
     8  H    0.024846
 Sum of APT charges =   0.00000
 APT charges with hydrogens summed into heavy atoms:
               1
     1  C    0.013434
     2  C    0.238868
     3  O   -0.252302
 Electronic spatial extent (au):  <R**2>=            183.1188
 Charge=             -0.0000 electrons
 Dipole moment (field-independent basis, Debye):
    X=             -1.6949    Y=              1.3716    Z=              0.0060  Tot=              2.1803
 Quadrupole moment (field-independent basis, Debye-Ang):
   XX=            -22.4037   YY=            -19.2607   ZZ=            -18.2551
   XY=              1.1291   XZ=              0.0090   YZ=              0.0185
 Traceless Quadrupole moment (field-independent basis, Debye-Ang):
   XX=             -2.4306   YY=              0.7125   ZZ=              1.7181
   XY=              1.1291   XZ=              0.0090   YZ=              0.0185
 Octapole moment (field-independent basis, Debye-Ang**2):
  XXX=             -0.1007  YYY=              0.7008  ZZZ=              0.0091  XYY=              0.8489
  XXY=              1.0501  XXZ=              0.0175  XZZ=              2.1913  YZZ=             -0.1454
  YYZ=              0.0022  XYZ=              0.0112
 Hexadecapole moment (field-independent basis, Debye-Ang**3):
 XXXX=           -162.9605 YYYY=            -53.4798 ZZZZ=            -31.8556 XXXY=             -2.6132
 XXXZ=              0.0362 YYYX=             -0.6038 YYYZ=              0.0158 ZZZX=              0.0144
 ZZZY=              0.0328 XXYY=            -34.4441 XXZZ=            -30.7481 YYZZ=            -12.4030
 XXYZ=              0.0221 YYXZ=             -0.0118 ZZXY=              0.6554
 N-N= 7.427557929055D+01 E-N=-5.098436594459D+02  KE= 1.538753071987D+02
  Exact polarizability:  33.848  -1.232  30.896  -0.043  -0.046  28.691
 Approx polarizability:  42.118  -4.505  42.036  -0.010   0.013  37.277
                          Isotropic Fermi Contact Couplings
[...]
  0.24551607  0.17482125 -0.00257943 -0.24008879 -0.11392283
  0.00978269  0.00845840 -0.60361648  0.03329570  0.47560960
  0.66313293  0.26654166  0.22189115  0.11378356 -0.05769111
 -0.18711802  0.35775883  0.00125020  0.46215435 -0.88892233
 -0.00310134 -0.52927183  1.11266014  0.00389761  0.10133280
 -0.35469258 -0.00107689  0.01211949  0.02595486  0.00139658
 -0.16324035  0.17689598  0.00218157  0.09933216 -0.00021321
 -0.00173447  0.00739356  0.28748937 -0.25099580  0.00047541
  0.00419791 -0.04910172 -0.71089888  0.08241160 -0.00388795
 -0.00688081  0.24429509  0.58145894 -0.00132799  0.04586206
 -0.12251337 -0.00221790 -0.00099829  0.17356892  0.18976213
  0.00263360  0.08516328  0.20046965  0.00635203  0.00198126
 -0.47667738 -0.11646463 -0.01555530 -0.21707129 -0.17150386
  0.42692719 -0.42592579  0.47962585  0.00312701  0.50675044
 -0.70589362 -0.00450095 -0.29724598  0.45701049  0.00351499
  0.00121746 -0.00011115 -0.00113690  0.05284936  0.02399052
 -0.01634784  0.05462579  0.04641259 -0.08685974  0.04664709
  0.12353844  0.05492132 -0.15960042 -0.10611450  0.00488509
  0.09012640 -0.02791278
 BiOrM2:  NumA=     236 NumB=     236.
 Eigenvalues of SAB:
  1.00000000  1.00000000  1.00000000  1.00000000  1.00000000
  1.00000000  1.00000000  1.00000000  1.00000000  1.00000000
  1.00000000  1.00000000  1.00000000  1.00000000  1.00000000
  1.00000000  1.00000000  1.00000000  1.00000000  1.00000000
  1.00000000  1.00000000  1.00000000  1.00000000  1.00000000
  1.00000000  1.00000000  1.00000000  1.00000000  1.00000000
  1.00000000  1.00000000  1.00000000  1.00000000  1.00000000
  1.00000000  1.00000000  1.00000000  1.00000000  1.00000000
  1.00000000  1.00000000  1.00000000  1.00000000  1.00000000
  1.00000000  1.00000000  1.00000000  1.00000000  1.00000000
  1.00000000  1.00000000  1.00000000  1.00000000  1.00000000
  1.00000000  1.00000000  1.00000000  1.00000000  1.00000000
  1.00000000  1.00000000  1.00000000  1.00000000  1.00000000
  1.00000000  1.00000000  1.00000000  1.00000000  1.00000000
  1.00000000  1.00000000  1.00000000  1.00000000  1.00000000
  1.00000000  1.00000000  1.00000000  1.00000000  1.00000000
  1.00000000  1.00000000  1.00000000  1.00000000  1.00000000
  1.00000000  1.00000000  1.00000000  1.00000000  1.00000000
  1.00000000  1.00000000  1.00000000  1.00000000  1.00000000
  1.00000000  1.00000000  1.00000000  1.00000000  1.00000000
  1.00000000  1.00000000  1.00000000  1.00000000  1.00000000
  1.00000000  1.00000000  1.00000000  1.00000000  1.00000000
  1.00000000  1.00000000  1.00000000  1.00000000  1.00000000
  1.00000000  1.00000000  1.00000000  1.00000000  1.00000000
  1.00000000  1.00000000  1.00000000  1.00000000  1.00000000
  1.00000000  1.00000000  1.00000000  1.00000000  1.00000000
  1.00000000  1.00000000  1.00000000  1.00000000  1.00000000
  1.00000000  1.00000000  1.00000000  1.00000000  1.00000000
  1.00000000  1.00000000  1.00000000  1.00000000  1.00000000
  1.00000000  1.00000000  1.00000000  1.00000000  1.00000000
  1.00000000  1.00000000  1.00000000  1.00000000  1.00000000
  1.00000000  1.00000000  1.00000000  1.00000000  1.00000000
  1.00000000  1.00000000  1.00000000  1.00000000  1.00000000
  1.00000000  1.00000000  1.00000000  1.00000000  1.00000000
  1.00000000  1.00000000  1.00000000  1.00000000  1.00000000
  1.00000000  1.00000000  1.00000000  1.00000000  1.00000000
  1.00000000  1.00000000  1.00000000  1.00000000  1.00000000
  1.00000000  1.00000000  1.00000000  1.00000000  1.00000000
  1.00000000  1.00000000  1.00000000  1.00000000  1.00000000
  1.00000000  1.00000000  1.00000000  1.00000000  1.00000000
  1.00000000  1.00000000  1.00000000  1.00000000  1.00000000
  1.00000000  1.00000000  1.00000000  1.00000000  1.00000000
  1.00000000  1.00000000  1.00000000  1.00000000  1.00000000
  1.00000000  1.00000000  1.00000000  1.00000000  1.00000000
  1.00000000  1.00000000  1.00000000  1.00000000  1.00000000
  1.00000000  0.99999996  0.99999972  0.99999942  0.99999822
  0.99999744  0.99991016  0.99979278  0.99977791  0.99943898
  0.99912557
 Requested convergence on RMS density matrix=1.00D-08 within 128 cycles.
 Requested convergence on MAX density matrix=1.00D-06.
 Requested convergence on             energy=1.00D-06.
 No special actions if energy rises.
 Restarting incremental Fock formation.
 SCF Done:  E(ROHF) =  -153.523413797     A.U. after   21 cycles
            NFock= 21  Conv=0.41D-08     -V/T= 2.0005
 <Sx>= 0.0000 <Sy>= 0.0000 <Sz>= 0.5000 <S**2>= 0.7500 S= 0.5000
 <L.S>=  0.00000000000    
 Annihilation of the first spin contaminant:
 S**2 before annihilation     0.7500,   after     0.7500

 **********************************************************************

            Population analysis using the SCF Density.

 **********************************************************************

 Orbital symmetries:
       Occupied  (A) (A) (A) (A) (A) (A) (A) (A) (A) (A) (A) (A)
                 (A)
       Virtual   (A) (A) (A) (A) (A) (A) (A) (A) (A) (A) (A) (A)
                 (A) (A) (A) (A) (A) (A) (A) (A) (A) (A) (A) (A)
                 (A) (A) (A) (A) (A) (A) (A) (A) (A) (A) (A) (A)
                 (A) (A) (A) (A) (A) (A) (A) (A) (A) (A) (A) (A)
                 (A) (A) (A) (A) (A) (A) (A) (A) (A) (A) (A) (A)
                 (A) (A) (A) (A) (A) (A) (A) (A) (A) (A) (A) (A)
                 (A) (A) (A) (A) (A) (A) (A) (A) (A) (A) (A) (A)
                 (A) (A) (A) (A) (A) (A) (A) (A) (A) (A) (A) (A)
                 (A) (A) (A) (A) (A) (A) (A) (A) (A) (A) (A) (A)
                 (A) (A) (A) (A) (A) (A) (A) (A) (A) (A) (A) (A)
                 (A) (A) (A) (A) (A) (A) (A) (A) (A) (A) (A) (A)
                 (A) (A) (A) (A) (A) (A) (A) (A) (A) (A) (A) (A)
                 (A) (A) (A) (A) (A) (A) (A) (A) (A) (A) (A) (A)
                 (A) (A) (A) (A) (A) (A) (A) (A) (A) (A) (A) (A)
                 (A) (A) (A) (A) (A) (A) (A) (A) (A) (A) (A) (A)
                 (A) (A) (A) (A) (A) (A) (A) (A) (A) (A) (A) (A)
                 (A) (A) (A) (A) (A) (A) (A) (A) (A) (A) (A) (A)
                 (A) (A) (A) (A) (A) (A) (A) (A) (A) (A) (A) (A)
                 (A) (A) (A) (A) (A) (A) (A) (A) (A) (A) (A) (A)
                 (A) (A) (A) (A) (A) (A) (A) (A)
 The electronic state is 2-A.
 Alpha  occ. eigenvalues --  -20.59068 -11.28423 -11.22137  -1.32233  -1.00403
 Alpha  occ. eigenvalues --   -0.83305  -0.63857  -0.62934  -0.59528  -0.53767
 Alpha  occ. eigenvalues --   -0.51494  -0.45027  -0.14190
 Alpha virt. eigenvalues --    0.05023   0.05525   0.06790   0.07376   0.09496
 Alpha virt. eigenvalues --    0.09721   0.10026   0.16106   0.17134   0.17838
 Alpha virt. eigenvalues --    0.21645   0.22394   0.23080   0.24362   0.25288
 Alpha virt. eigenvalues --    0.26455   0.29081   0.33010   0.33750   0.35996
 Alpha virt. eigenvalues --    0.36148   0.39074   0.41686   0.45926   0.47488
 Alpha virt. eigenvalues --    0.49536   0.50702   0.52015   0.52441   0.53799
 Alpha virt. eigenvalues --    0.56213   0.59324   0.61415   0.64098   0.64220
 Alpha virt. eigenvalues --    0.66589   0.72348   0.73072   0.74367   0.74454
 Alpha virt. eigenvalues --    0.76713   0.78526   0.80469   0.82803   0.85616
 Alpha virt. eigenvalues --    0.86213   0.88063   0.90530   0.93626   0.98344
 Alpha virt. eigenvalues --    0.99116   1.00661   1.02124   1.06129   1.08883
 Alpha virt. eigenvalues --    1.09669   1.10679   1.14031   1.16739   1.21209
 Alpha virt. eigenvalues --    1.27648   1.33919   1.36069   1.42274   1.45135
 Alpha virt. eigenvalues --    1.45647   1.47359   1.53811   1.56982   1.59172
 Alpha virt. eigenvalues --    1.62205   1.66683   1.68601   1.71168   1.74699
 Alpha virt. eigenvalues --    1.77665   1.78110   1.78792   1.80565   1.81322
 Alpha virt. eigenvalues --    1.83445   1.88064   1.89031   1.90076   1.90302
 Alpha virt. eigenvalues --    1.91579   1.92495   1.97091   1.98301   1.99245
 Alpha virt. eigenvalues --    2.02005   2.02454   2.05259   2.05756   2.11028
 Alpha virt. eigenvalues --    2.12685   2.16049   2.18184   2.19128   2.21983
 Alpha virt. eigenvalues --    2.23602   2.26026   2.29197   2.31208   2.32803
 Alpha virt. eigenvalues --    2.34979   2.36806   2.42418   2.42650   2.43320
 Alpha virt. eigenvalues --    2.45439   2.49097   2.56416   2.57472   2.64729
 Alpha virt. eigenvalues --    2.65007   2.65551   2.66363   2.73516   2.74766
 Alpha virt. eigenvalues --    2.79067   2.80910   2.84503   2.85516   2.91368
 Alpha virt. eigenvalues --    2.91670   2.97226   2.98368   3.09646   3.09829
 Alpha virt. eigenvalues --    3.13164   3.17272   3.20023   3.22008   3.22602
 Alpha virt. eigenvalues --    3.26952   3.30582   3.34928   3.38868   3.48300
 Alpha virt. eigenvalues --    3.52476   3.55724   3.59326   3.59693   3.64388
 Alpha virt. eigenvalues --    3.68480   3.78594   3.85744   3.92808   3.95062
 Alpha virt. eigenvalues --    3.95545   3.98625   4.02541   4.05287   4.14753
 Alpha virt. eigenvalues --    4.19038   4.26321   4.35326   4.71262   4.80235
 Alpha virt. eigenvalues --    4.84276   4.88773   4.95618   4.97989   5.06754
 Alpha virt. eigenvalues --    5.07489   5.18286   5.24076   5.30092   5.50475
 Alpha virt. eigenvalues --    5.56295   5.62039   5.93383   5.94262   5.97743
 Alpha virt. eigenvalues --    6.00532   6.02052   6.09021   6.09485   6.15312
 Alpha virt. eigenvalues --    6.17866   6.21064   6.24758   6.30027   6.34367
 Alpha virt. eigenvalues --    6.35024   6.44400   6.51679   6.77710   6.91569
 Alpha virt. eigenvalues --    6.91831   6.96342   7.01887   7.13598   7.14867
 Alpha virt. eigenvalues --    7.17288   7.18936   7.20100   7.28525   7.31702
 Alpha virt. eigenvalues --    7.92628   8.30683   8.34536   8.45647   8.46268
 Alpha virt. eigenvalues --    8.64658   8.77923   8.81473   8.82063   9.17357
 Alpha virt. eigenvalues --    9.35346   9.53034   9.63041   9.65633   9.70679
 Alpha virt. eigenvalues --    9.76467  10.16704  10.24676  10.67432  11.20993
 Alpha virt. eigenvalues --   11.21430  11.54596  11.61454  12.27306  21.44437
 Alpha virt. eigenvalues --   21.48536  21.61911  21.62193  21.78714  22.05101
 Alpha virt. eigenvalues --   23.00443  23.36891  37.69969  37.78699  38.05838
 Alpha virt. eigenvalues --   42.81169
          Condensed to atoms (all electrons):
               1          2          3          4          5          6
     1  C    4.767966   0.362965  -0.054252   0.424880   0.398484   0.398643
     2  C    0.362965   4.608303   0.144493  -0.036445  -0.023359  -0.023681
     3  O   -0.054252   0.144493   8.304776   0.010671  -0.005526  -0.005396
     4  H    0.424880  -0.036445   0.010671   0.605261  -0.035603  -0.035521
     5  H    0.398484  -0.023359  -0.005526  -0.035603   0.618791  -0.030674
     6  H    0.398643  -0.023681  -0.005396  -0.035521  -0.030674   0.618255
     7  H   -0.051849   0.434036  -0.035735  -0.005473  -0.008989   0.009103
     8  H   -0.051330   0.433833  -0.035426  -0.005689   0.009100  -0.008966
               7          8
     1  C   -0.051849  -0.051330
     2  C    0.434036   0.433833
     3  O   -0.035735  -0.035426
     4  H   -0.005473  -0.005689
     5  H   -0.008989   0.009100
     6  H    0.009103  -0.008966
     7  H    0.597112  -0.030910
     8  H   -0.030910   0.596768
          Atomic-Atomic Spin Densities.
               1          2          3          4          5          6
     1  C    0.000050   0.000116  -0.000358   0.000000  -0.000121  -0.000016
     2  C    0.000116   0.017198  -0.014891   0.000016  -0.000426  -0.000439
     3  O   -0.000358  -0.014891   0.982180  -0.000003   0.000884   0.000818
     4  H    0.000000   0.000016  -0.000003   0.000002   0.000010  -0.000017
     5  H   -0.000121  -0.000426   0.000884   0.000010   0.000875  -0.000396
     6  H   -0.000016  -0.000439   0.000818  -0.000017  -0.000396   0.000828
     7  H    0.000298   0.009762  -0.013785  -0.000017  -0.000868   0.000443
     8  H   -0.000128   0.010829  -0.014653   0.000031   0.000460  -0.000857
               7          8
     1  C    0.000298  -0.000128
     2  C    0.009762   0.010829
     3  O   -0.013785  -0.014653
     4  H   -0.000017   0.000031
     5  H   -0.000868   0.000460
     6  H    0.000443  -0.000857
     7  H    0.033027  -0.010840
     8  H   -0.010840   0.034134
 Mulliken charges and spin densities:
               1          2
     1  C   -0.195507  -0.000158
     2  C    0.099855   0.022166
     3  O   -0.323604   0.940192
     4  H    0.077918   0.000022
     5  H    0.077775   0.000417
     6  H    0.078237   0.000365
     7  H    0.092707   0.018020
     8  H    0.092619   0.018976
 Sum of Mulliken charges =  -0.00000   1.00000
 Mulliken charges and spin densities with hydrogens summed into heavy atoms:
               1          2
     1  C    0.038423   0.000646
     2  C    0.285181   0.059162
     3  O   -0.323604   0.940192
 Electronic spatial extent (au):  <R**2>=            182.7401
 Charge=             -0.0000 electrons
 Dipole moment (field-independent basis, Debye):
    X=             -1.5332    Y=              1.1505    Z=              0.0032  Tot=              1.9169
 Quadrupole moment (field-independent basis, Debye-Ang):
   XX=            -21.9552   YY=            -19.2729   ZZ=            -18.1822
   XY=              0.9846   XZ=              0.0084   YZ=              0.0180
 Traceless Quadrupole moment (field-independent basis, Debye-Ang):
   XX=             -2.1518   YY=              0.5305   ZZ=              1.6213
   XY=              0.9846   XZ=              0.0084   YZ=              0.0180
 Octapole moment (field-independent basis, Debye-Ang**2):
  XXX=              0.3153  YYY=              0.2848  ZZZ=              0.0046  XYY=              0.8398
  XXY=              1.1187  XXZ=              0.0243  XZZ=              2.4222  YZZ=             -0.4365
  YYZ=             -0.0046  XYZ=              0.0143
 Hexadecapole moment (field-independent basis, Debye-Ang**3):
 XXXX=           -158.4182 YYYY=            -51.9950 ZZZZ=            -30.7386 XXXY=             -2.6707
 XXXZ=              0.0451 YYYX=             -0.8273 YYYZ=              0.0098 ZZZX=              0.0107
 ZZZY=              0.0278 XXYY=            -33.5277 XXZZ=            -29.7494 YYZZ=            -12.0563
 XXYZ=              0.0229 YYXZ=             -0.0182 ZZXY=              0.4869
 N-N= 7.427557929055D+01 E-N=-5.091174519523D+02  KE= 1.534516796452D+02
                          Isotropic Fermi Contact Couplings
        Atom                 a.u.       MegaHertz       Gauss      10(-4) cm-1
     1  C(13)              0.00001       0.00791       0.00282       0.00264
     2  C(13)              0.00000       0.00000       0.00000       0.00000
     3  O(17)              0.00000      -0.00017      -0.00006      -0.00006
     4  H(1)               0.00000       0.00073       0.00026       0.00024
     5  H(1)               0.00006       0.27723       0.09892       0.09247
     6  H(1)               0.00006       0.26789       0.09559       0.08936
     7  H(1)               0.01199      53.59481      19.12396      17.87731
     8  H(1)               0.01261      56.38453      20.11940      18.80785
 --------------------------------------------------------
       Center         ----  Spin Dipole Couplings  ----
                      3XX-RR        3YY-RR        3ZZ-RR
 --------------------------------------------------------
     1   Atom        0.017101     -0.008606     -0.008495
     2   Atom        0.015055     -0.007342     -0.007712
     3   Atom       -1.886906     -1.889470      3.776376
     4   Atom        0.007196     -0.003427     -0.003769
     5   Atom        0.010524     -0.005634     -0.004891
     6   Atom        0.010479     -0.005611     -0.004868
     7   Atom       -0.006585      0.013598     -0.007013
     8   Atom       -0.006552      0.013408     -0.006856
 --------------------------------------------------------
                        XY            XZ            YZ
 --------------------------------------------------------
     1   Atom       -0.000263     -0.000069     -0.000001
     2   Atom       -0.059606      0.000414      0.000727
     3   Atom       -0.002931      0.049326      0.078490
     4   Atom       -0.002325     -0.000006      0.000012
     5   Atom        0.003652      0.005278      0.001165
     6   Atom        0.003703     -0.005291     -0.001160
     7   Atom       -0.015461      0.006579     -0.017183
     8   Atom       -0.015608     -0.006598      0.017483
 --------------------------------------------------------


 ---------------------------------------------------------------------------------
              Anisotropic Spin Dipole Couplings in Principal Axis System
 ---------------------------------------------------------------------------------

       Atom             a.u.   MegaHertz   Gauss  10(-4) cm-1        Axes

              Baa    -0.0086    -1.155    -0.412    -0.385  0.0103  0.9998  0.0180
     1 C(13)  Bbb    -0.0085    -1.140    -0.407    -0.380  0.0025 -0.0180  0.9998
              Bcc     0.0171     2.295     0.819     0.766  0.9999 -0.0102 -0.0027
 
              Baa    -0.0568    -7.623    -2.720    -2.543  0.6384  0.7695 -0.0168
     2 C(13)  Bbb    -0.0077    -1.033    -0.369    -0.345  0.0123  0.0116  0.9999
              Bcc     0.0645     8.656     3.089     2.887  0.7696 -0.6385 -0.0020
 
              Baa    -1.8929   136.969    48.874    45.688  0.5444  0.8386 -0.0163
     3 O(17)  Bbb    -1.8850   136.396    48.670    45.497  0.8388 -0.5445  0.0002
              Bcc     3.7779  -273.366   -97.544   -91.185  0.0087  0.0138  0.9999
 
              Baa    -0.0039    -2.088    -0.745    -0.697  0.2042  0.9760 -0.0754
     4 H(1)   Bbb    -0.0038    -2.011    -0.717    -0.671  0.0162  0.0736  0.9972
              Bcc     0.0077     4.099     1.463     1.367  0.9788 -0.2049 -0.0007
 
              Baa    -0.0065    -3.486    -1.244    -1.163 -0.2296 -0.2765  0.9332
     5 H(1)   Bbb    -0.0064    -3.423    -1.221    -1.142 -0.2687  0.9395  0.2122
              Bcc     0.0129     6.909     2.465     2.305  0.9355  0.2020  0.2900
 
              Baa    -0.0065    -3.476    -1.240    -1.160  0.2829  0.0685  0.9567
     6 H(1)   Bbb    -0.0064    -3.427    -1.223    -1.143 -0.2158  0.9764 -0.0060
              Bcc     0.0129     6.903     2.463     2.303  0.9345  0.2048 -0.2910
 
              Baa    -0.0176    -9.389    -3.350    -3.132  0.4053  0.5869  0.7009
     7 H(1)   Bbb    -0.0132    -7.044    -2.513    -2.350  0.8179  0.1097 -0.5648
              Bcc     0.0308    16.433     5.864     5.482 -0.4084  0.8022 -0.4356
 
              Baa    -0.0179    -9.544    -3.406    -3.184 -0.4130 -0.5924  0.6918
     8 H(1)   Bbb    -0.0131    -7.010    -2.501    -2.338  0.8136  0.1013  0.5725
              Bcc     0.0310    16.555     5.907     5.522 -0.4092  0.7993  0.4401
 

 ---------------------------------------------------------------------------------

 1\1\GINC-GAMBA\SP\ROHF\Gen\C2H5O1(2)\IRIKURA\29-Sep-2023\0\\# rohf/gen
  geom=check guess=check\\ethoxyl, ROHF/cc-pVTZ-F12\\0,2\C,0,-1.1879,-0
 .194366,0.000037\C,0,0.179755,0.474585,-0.000382\O,0,1.255112,-0.36298
 ,-0.000366\H,0,-1.983573,0.552754,0.002771\H,0,-1.306876,-0.81992,-0.8
 84502\H,0,-1.304097,-0.82448,0.881587\H,0,0.300077,1.160436,-0.86027\H
 ,0,0.302438,1.153736,0.865411\\Version=ES64L-G16RevB.01\State=2-A\HF=-
 153.5234138\RMSD=4.133e-09\Dipole=-0.6032104,0.4526432,0.0012741\Quadr
 upole=-1.5998088,0.3944339,1.2053749,0.7320363,0.0062785,0.0133806\PG=
 C01 [X(C2H5O1)]\\@


 The impersonal hand of government can
 never replace the helping hand of a neighbor.
                        -- Hubert H. Humphrey
 Job cpu time:       0 days  0 hours  6 minutes  8.0 seconds.
 Elapsed time:       0 days  0 hours  1 minutes 32.1 seconds.
 File lengths (MBytes):  RWF=     48 Int=      0 D2E=      0 Chk=      7 Scr=      1
 Normal termination of Gaussian 16 at Fri Sep 29 04:48:32 2023.
