 Entering Gaussian System, Link 0=g16
 AtFile(1): pcseg2.gbs
            -H     0
            S   4   1.00
                  0.754732D+02           0.427821D-02
                  0.113575D+02           0.328672D-01
                  0.260081D+01           0.159578D+00
                  0.735503D+00           0.500000D+00
            S   1   1.00
                  0.231761D+00           1.0000000
            S   1   1.00
                  0.741675D-01           1.0000000
            P   1   1.00
                  0.160000D+01           1.0000000
            P   1   1.00
                  0.450000D+00           1.0000000
            D   1   1.00
                  0.125000D+01           1.0000000
            ****
            -C     0
            S   7   1.00
                  0.731999D+04           0.695369D-03
                  0.109818D+04           0.537138D-02
                  0.250014D+03           0.274734D-01
                  0.707586D+02           0.105078D+00
                  0.228595D+02           0.291262D+00
                  0.803936D+01           0.500000D+00
                  0.289309D+01           0.362224D+00
            S   2   1.00
                  0.521640D+01          -0.957844D-01
                  0.556124D+00           0.500000D+00
            S   1   1.00
                  0.228813D+00           1.0000000
            S   1   1.00
                  0.936338D-01           1.0000000
            P   4   1.00
                  0.339855D+02           0.818395D-02
                  0.772957D+01           0.586921D-01
                  0.224954D+01           0.222514D+00
                  0.767681D+00           0.500000D+00
            P   1   1.00
                  0.263283D+00           1.0000000
            P   1   1.00
                  0.848744D-01           1.0000000
            D   1   1.00
                  0.140000D+01           1.0000000
            D   1   1.00
                  0.450000D+00           1.0000000
            F   1   1.00
                  0.950000D+00           1.0000000
            ****
            -O     0
            S   7   1.00
                  0.135887D+05           0.665492D-03
                  0.203847D+04           0.514222D-02
                  0.464041D+03           0.263472D-01
                  0.131339D+03           0.101500D+00
                  0.425340D+02           0.285877D+00
                  0.150429D+02           0.500000D+00
                  0.546616D+01           0.368211D+00
            S   2   1.00
                  0.100915D+02          -0.100084D+00
                  0.110429D+01           0.500000D+00
            S   1   1.00
                  0.448082D+00           1.0000000
            S   1   1.00
                  0.175325D+00           1.0000000
            P   4   1.00
                  0.608220D+02           0.908253D-02
                  0.140332D+02           0.645878D-01
                  0.418244D+01           0.241502D+00
                  0.142490D+01           0.500000D+00
            P   1   1.00
                  0.478741D+00           1.0000000
            P   1   1.00
                  0.146257D+00           1.0000000
            D   1   1.00
                  0.220000D+01           1.0000000
            D   1   1.00
                  0.650000D+00           1.0000000
            F   1   1.00
                  0.110000D+01           1.0000000
            ****
            -N     0
            S   7   1.00
                  0.101643D+05           0.682757D-03
                  0.152481D+04           0.527488D-02
                  0.347119D+03           0.270037D-01
                  0.982389D+02           0.103673D+00
                  0.317799D+02           0.289575D+00
                  0.112240D+02           0.500000D+00
                  0.406611D+01           0.364621D+00
            S   2   1.00
                  0.747898D+01          -0.975681D-01
                  0.805040D+00           0.500000D+00
            S   1   1.00
                  0.324626D+00           1.0000000
            S   1   1.00
                  0.128132D+00           1.0000000
            P   4   1.00
                  0.482704D+02           0.829547D-02
                  0.110815D+02           0.596223D-01
                  0.326643D+01           0.227889D+00
                  0.111680D+01           0.500000D+00
            P   1   1.00
                  0.382049D+00           1.0000000
            P   1   1.00
                  0.121222D+00           1.0000000
            D   1   1.00
                  0.180000D+01           1.0000000
            D   1   1.00
                  0.550000D+00           1.0000000
            F   1   1.00
                  0.102000D+01           1.0000000
            ****
            -F     0
            S   7   1.00
                  0.174507D+05           0.655972D-03
                  0.261768D+04           0.506944D-02
                  0.595857D+03           0.259899D-01
                  0.168651D+03           0.100353D+00
                  0.546654D+02           0.284095D+00
                  0.193717D+02           0.500000D+00
                  0.706202D+01           0.370721D+00
            S   2   1.00
                  0.131197D+02          -0.101997D+00
                  0.145046D+01           0.500000D+00
            S   1   1.00
                  0.588255D+00           1.0000000
            S   1   1.00
                  0.227960D+00           1.0000000
            P   4   1.00
                  0.779407D+02           0.931135D-02
                  0.180425D+02           0.663964D-01
                  0.542342D+01           0.246386D+00
                  0.184876D+01           0.500000D+00
            P   1   1.00
                  0.617455D+00           1.0000000
            P   1   1.00
                  0.185496D+00           1.0000000
            D   1   1.00
                  0.280000D+01           1.0000000
            D   1   1.00
                  0.800000D+00           1.0000000
            F   1   1.00
                  0.120000D+01           1.0000000
            ****
            -Cl     0
            S   8   1.00
                  0.154272D+06           0.222473D-03
                  0.231232D+05           0.172590D-02
                  0.526257D+04           0.899286D-02
                  0.148995D+04           0.367724D-01
                  0.485417D+03           0.121446D+00
                  0.174634D+03           0.304148D+00
                  0.672393D+02           0.500000D+00
                  0.265780D+02           0.360252D+00
            S   3   1.00
                  0.131826D+03          -0.531330D-01
                  0.400703D+02          -0.233346D+00
                  0.789448D+01           0.500000D+00
            S   2   1.00
                  0.427711D+01           0.500000D+00
                  0.196233D+01           0.370517D+00
            S   1   1.00
                  0.520793D+00           1.0000000
            S   1   1.00
                  0.181633D+00           1.0000000
            P   7   1.00
                  0.124440D+04           0.988206D-03
                  0.295109D+03           0.829674D-02
                  0.947224D+02           0.430906D-01
                  0.352588D+02           0.148443D+00
                  0.144211D+02           0.344744D+00
                  0.610371D+01           0.500000D+00
                  0.258886D+01           0.348278D+00
            P   2   1.00
                  0.109447D+02          -0.196768D-01
                  0.104413D+01           0.500000D+00
            P   1   1.00
                  0.376184D+00           1.0000000
            P   1   1.00
                  0.120613D+00           1.0000000
            D   1   1.00
                  0.231000D+01           1.0000000
            D   1   1.00
                  0.520000D+00           1.0000000
            F   1   1.00
                  0.720000D+00           1.0000000
            ****
            -S     0
            S   8   1.00
                  0.134700D+06           0.226231D-03
                  0.201904D+05           0.175488D-02
                  0.459528D+04           0.914190D-02
                  0.130109D+04           0.373551D-01
                  0.423902D+03           0.123121D+00
                  0.152485D+03           0.306801D+00
                  0.586925D+02           0.500000D+00
                  0.231461D+02           0.354358D+00
            S   3   1.00
                  0.116327D+03          -0.491772D-01
                  0.352841D+02          -0.215962D+00
                  0.677831D+01           0.500000D+00
            S   2   1.00
                  0.360404D+01           0.500000D+00
                  0.164871D+01           0.366278D+00
            S   1   1.00
                  0.421821D+00           1.0000000
            S   1   1.00
                  0.147554D+00           1.0000000
            P   7   1.00
                  0.104863D+04           0.105273D-02
                  0.248717D+03           0.879338D-02
                  0.797887D+02           0.453358D-01
                  0.296023D+02           0.154476D+00
                  0.120627D+02           0.352366D+00
                  0.507628D+01           0.500000D+00
                  0.213375D+01           0.346429D+00
            P   2   1.00
                  0.928958D+01          -0.185932D-01
                  0.837819D+00           0.500000D+00
            P   1   1.00
                  0.301495D+00           1.0000000
            P   1   1.00
                  0.974740D-01           1.0000000
            D   1   1.00
                  0.210000D+01           1.0000000
            D   1   1.00
                  0.480000D+00           1.0000000
            F   1   1.00
                  0.660000D+00           1.0000000
            ****
            -Br     0
            S    10   1.00
                  0.233625D+07           0.532336D-04
                  0.349961D+06           0.413715D-03
                  0.796444D+05           0.217123D-02
                  0.225555D+05           0.910109D-02
                  0.735546D+04           0.323789D-01
                  0.265352D+04           0.988755D-01
                  0.103517D+04           0.248138D+00
                  0.422205D+03           0.474328D+00
                  0.180035D+03           0.500000D+00
                  0.793308D+02           0.187769D+00
            S    4   1.00
                  0.620834D+03          -0.226511D-01
                  0.190829D+03          -0.109497D+00
                  0.312505D+02           0.500000D+00
                  0.135270D+02           0.492812D+00
            S    2   1.00
                  0.216097D+02          -0.165418D+00
                  0.372566D+01           0.500000D+00
            S    1   1.00
                  0.169770D+01           1.0000000
            S    1   1.00
                  0.489332D+00           1.0000000
            S    1   1.00
                  0.175712D+00           1.0000000
            P    8   1.00
                  0.960829D+04           0.478974D-03
                  0.227618D+04           0.417853D-02
                  0.736723D+03           0.229315D-01
                  0.281579D+03           0.892653D-01
                  0.118395D+03           0.255288D+00
                  0.527481D+02           0.479074D+00
                  0.245098D+02           0.500000D+00
                  0.112009D+02           0.200944D+00
            P    4   1.00
                  0.587849D+02          -0.189674D-01
                  0.918962D+01           0.264104D+00
                  0.413895D+01           0.500000D+00
                  0.184225D+01           0.319316D+00
            P    1   1.00
                  0.713862D+00           1.0000000
            P    1   1.00
                  0.274232D+00           1.0000000
            P    1   1.00
                  0.944411D-01           1.0000000
            D    7   1.00
                  0.398470D+03           0.204066D-02
                  0.118967D+03           0.175171D-01
                  0.450197D+02           0.829708D-01
                  0.190320D+02           0.236284D+00
                  0.855686D+01           0.428468D+00
                  0.382950D+01           0.500000D+00
                  0.166291D+01           0.349360D+00
            D    1   1.00
                  0.672953D+00           1.0000000
            D    1   1.00
                  0.252000D+00           1.0000000
            F    1   1.00
                  0.530000D+00           1.0000000
            ****
            -Si     0
            S    8   1.00
                  0.996133D+05           0.235546D-03
                  0.149311D+05           0.182707D-02
                  0.339820D+04           0.951425D-02
                  0.962140D+03           0.388172D-01
                  0.313430D+03           0.127328D+00
                  0.112683D+03           0.313522D+00
                  0.433372D+02           0.500000D+00
                  0.170029D+02           0.340347D+00
            S    3   1.00
                  0.884208D+02          -0.404451D-01
                  0.266756D+02          -0.178059D+00
                  0.479640D+01           0.500000D+00
            S    2   1.00
                  0.239385D+01           0.500000D+00
                  0.108333D+01           0.338016D+00
            S    1   1.00
                  0.252420D+00           1.0000000
            S    1   1.00
                  0.891210D-01           1.0000000
            P    7   1.00
                  0.709901D+03           0.123028D-02
                  0.168426D+03           0.101366D-01
                  0.539946D+02           0.511840D-01
                  0.198646D+02           0.169967D+00
                  0.801369D+01           0.370717D+00
                  0.331870D+01           0.500000D+00
                  0.136112D+01           0.344128D+00
            P    2   1.00
                  0.622158D+01          -0.166609D-01
                  0.503049D+00           0.500000D+00
            P    1   1.00
                  0.179848D+00           1.0000000
            P    1   1.00
                  0.591912D-01           1.0000000
            D    1   1.00
                  0.168000D+01           1.0000000
            D    1   1.00
                  0.380000D+00           1.0000000
            F    1   1.00
                  0.540000D+00           1.0000000
            ****
            -P     0
            S    8   1.00
                  0.116416D+06           0.230715D-03
                  0.174500D+05           0.178960D-02
                  0.397149D+04           0.932116D-02
                  0.112447D+04           0.380591D-01
                  0.366347D+03           0.125148D+00
                  0.131757D+03           0.310022D+00
                  0.506988D+02           0.500000D+00
                  0.199436D+02           0.347528D+00
            S    3   1.00
                  0.101878D+03          -0.446755D-01
                  0.308249D+02          -0.196376D+00
                  0.573688D+01           0.500000D+00
            S    2   1.00
                  0.296868D+01           0.500000D+00
                  0.135315D+01           0.355098D+00
            S    1   1.00
                  0.332196D+00           1.0000000
            S    1   1.00
                  0.116229D+00           1.0000000
            P    7   1.00
                  0.873928D+03           0.112375D-02
                  0.207298D+03           0.933330D-02
                  0.664628D+02           0.477213D-01
                  0.245665D+02           0.160733D+00
                  0.996820D+01           0.359760D+00
                  0.416536D+01           0.500000D+00
                  0.173022D+01           0.346593D+00
            P    2   1.00
                  0.772530D+01          -0.175718D-01
                  0.657252D+00           0.500000D+00
            P    1   1.00
                  0.239903D+00           1.0000000
            P    1   1.00
                  0.800988D-01           1.0000000
            D    1   1.00
                  0.189000D+01           1.0000000
            D    1   1.00
                  0.430000D+00           1.0000000
            F    1   1.00
                  0.600000D+00           1.0000000
            ****
            
 Initial command:
 /usr/local/apps/g16_b01_avx/g16/l1.exe "/wrk/irikura/Gau-18025.inp" -scrdir="/wrk/irikura/"
 Entering Link 1 = /usr/local/apps/g16_b01_avx/g16/l1.exe PID=     18027.
  
 Copyright (c) 1988-2017, Gaussian, Inc.  All Rights Reserved.
  
 This is part of the Gaussian(R) 16 program.  It is based on
 the Gaussian(R) 09 system (copyright 2009, Gaussian, Inc.),
 the Gaussian(R) 03 system (copyright 2003, Gaussian, Inc.),
 the Gaussian(R) 98 system (copyright 1998, Gaussian, Inc.),
 the Gaussian(R) 94 system (copyright 1995, Gaussian, Inc.),
 the Gaussian 92(TM) system (copyright 1992, Gaussian, Inc.),
 the Gaussian 90(TM) system (copyright 1990, Gaussian, Inc.),
 the Gaussian 88(TM) system (copyright 1988, Gaussian, Inc.),
 the Gaussian 86(TM) system (copyright 1986, Carnegie Mellon
 University), and the Gaussian 82(TM) system (copyright 1983,
 Carnegie Mellon University). Gaussian is a federally registered
 trademark of Gaussian, Inc.
  
 This software contains proprietary and confidential information,
 including trade secrets, belonging to Gaussian, Inc.
  
 This software is provided under written license and may be
 used, copied, transmitted, or stored only in accord with that
 written license.
  
 The following legend is applicable only to US Government
 contracts under FAR:
  
                    RESTRICTED RIGHTS LEGEND
  
 Use, reproduction and disclosure by the US Government is
 subject to restrictions as set forth in subparagraphs (a)
 and (c) of the Commercial Computer Software - Restricted
 Rights clause in FAR 52.227-19.
  
 Gaussian, Inc.
 340 Quinnipiac St., Bldg. 40, Wallingford CT 06492
  
  
 ---------------------------------------------------------------
 Warning -- This program may not be used in any manner that
 competes with the business of Gaussian, Inc. or will provide
 assistance to any competitor of Gaussian, Inc.  The licensee
 of this program is prohibited from giving any competitor of
 Gaussian, Inc. access to this program.  By using this program,
 the user acknowledges that Gaussian, Inc. is engaged in the
 business of creating and licensing software in the field of
 computational chemistry and represents and warrants to the
 licensee that it is not a competitor of Gaussian, Inc. and that
 it will not use this program in any manner prohibited above.
 ---------------------------------------------------------------
  

 Cite this work as:
 Gaussian 16, Revision B.01,
 M. J. Frisch, G. W. Trucks, H. B. Schlegel, G. E. Scuseria, 
 M. A. Robb, J. R. Cheeseman, G. Scalmani, V. Barone, 
 G. A. Petersson, H. Nakatsuji, X. Li, M. Caricato, A. V. Marenich, 
 J. Bloino, B. G. Janesko, R. Gomperts, B. Mennucci, H. P. Hratchian, 
 J. V. Ortiz, A. F. Izmaylov, J. L. Sonnenberg, D. Williams-Young, 
 F. Ding, F. Lipparini, F. Egidi, J. Goings, B. Peng, A. Petrone, 
 T. Henderson, D. Ranasinghe, V. G. Zakrzewski, J. Gao, N. Rega, 
 G. Zheng, W. Liang, M. Hada, M. Ehara, K. Toyota, R. Fukuda, 
 J. Hasegawa, M. Ishida, T. Nakajima, Y. Honda, O. Kitao, H. Nakai, 
 T. Vreven, K. Throssell, J. A. Montgomery, Jr., J. E. Peralta, 
 F. Ogliaro, M. J. Bearpark, J. J. Heyd, E. N. Brothers, K. N. Kudin, 
 V. N. Staroverov, T. A. Keith, R. Kobayashi, J. Normand, 
 K. Raghavachari, A. P. Rendell, J. C. Burant, S. S. Iyengar, 
 J. Tomasi, M. Cossi, J. M. Millam, M. Klene, C. Adamo, R. Cammi, 
 J. W. Ochterski, R. L. Martin, K. Morokuma, O. Farkas, 
 J. B. Foresman, and D. J. Fox, Gaussian, Inc., Wallingford CT, 2016.
 
 ******************************************
 Gaussian 16:  ES64L-G16RevB.01 20-Dec-2017
                17-Jun-2022 
 ******************************************
 %mem=1000mw
 %nprocs=12
 Will use up to   12 processors via shared memory.
 --------------------
 # b3lyp/gen opt freq
 --------------------
 1/18=20,19=15,26=3,38=1/1,3;
 2/9=110,12=2,17=6,18=5,40=1/2;
 3/5=7,11=2,25=1,30=1,71=1,74=-5/1,2,3;
 4//1;
 5/5=2,38=5/2;
 6/7=2,8=2,9=2,10=2,28=1/1;
 7//1,2,3,16;
 1/18=20,19=15,26=3/3(2);
 2/9=110/2;
 99//99;
 2/9=110/2;
 3/5=7,6=1,11=2,25=1,30=1,71=1,74=-5,82=7/1,2,3;
 4/5=5,16=3,69=1/1;
 5/5=2,38=5/2;
 7//1,2,3,16;
 1/18=20,19=15,26=3/3(-5);
 2/9=110/2;
 6/7=2,8=2,9=2,10=2,19=2,28=1/1;
 99/9=1/99;
 --------------------------------
 pentachloroethane, B3LYP/pcseg-2
 --------------------------------
 Symbolic Z-matrix:
 Charge =  0 Multiplicity = 1
 C                     0.0901   -0.60907   0. 
 C                    -0.70451   0.71682   0. 
 H                    -1.75733   0.46896   0. 
 Cl                   -0.37946   1.67815   1.45618 
 Cl                   -0.37946   1.67815  -1.45618 
 Cl                    1.83807  -0.33244   0. 
 Cl                   -0.37946  -1.54473   1.44487 
 Cl                   -0.37946  -1.54473  -1.44487 
 

 GradGradGradGradGradGradGradGradGradGradGradGradGradGradGradGradGradGrad
 Berny optimization.
 Initialization pass.
                           ----------------------------
                           !    Initial Parameters    !
                           ! (Angstroms and Degrees)  !
 --------------------------                            --------------------------
 ! Name  Definition              Value          Derivative Info.                !
 --------------------------------------------------------------------------------
 ! R1    R(1,2)                  1.5458         estimate D2E/DX2                !
 ! R2    R(1,6)                  1.7697         estimate D2E/DX2                !
 ! R3    R(1,7)                  1.7843         estimate D2E/DX2                !
 ! R4    R(1,8)                  1.7843         estimate D2E/DX2                !
 ! R5    R(2,3)                  1.0816         estimate D2E/DX2                !
 ! R6    R(2,4)                  1.7749         estimate D2E/DX2                !
 ! R7    R(2,5)                  1.7749         estimate D2E/DX2                !
 ! A1    A(2,1,6)              111.9414         estimate D2E/DX2                !
 ! A2    A(2,1,7)              108.3321         estimate D2E/DX2                !
 ! A3    A(2,1,8)              108.3321         estimate D2E/DX2                !
 ! A4    A(6,1,7)              109.9928         estimate D2E/DX2                !
 ! A5    A(6,1,8)              109.9928         estimate D2E/DX2                !
 ! A6    A(7,1,8)              108.1497         estimate D2E/DX2                !
 ! A7    A(1,2,3)              107.6866         estimate D2E/DX2                !
 ! A8    A(1,2,4)              111.7428         estimate D2E/DX2                !
 ! A9    A(1,2,5)              111.7428         estimate D2E/DX2                !
 ! A10   A(3,2,4)              107.6007         estimate D2E/DX2                !
 ! A11   A(3,2,5)              107.6007         estimate D2E/DX2                !
 ! A12   A(4,2,5)              110.2556         estimate D2E/DX2                !
 ! D1    D(6,1,2,3)            180.0            estimate D2E/DX2                !
 ! D2    D(6,1,2,4)            -62.0392         estimate D2E/DX2                !
 ! D3    D(6,1,2,5)             62.0392         estimate D2E/DX2                !
 ! D4    D(7,1,2,3)            -58.5481         estimate D2E/DX2                !
 ! D5    D(7,1,2,4)             59.4127         estimate D2E/DX2                !
 ! D6    D(7,1,2,5)           -176.5089         estimate D2E/DX2                !
 ! D7    D(8,1,2,3)             58.5481         estimate D2E/DX2                !
 ! D8    D(8,1,2,4)            176.5089         estimate D2E/DX2                !
 ! D9    D(8,1,2,5)            -59.4127         estimate D2E/DX2                !
 --------------------------------------------------------------------------------
 Trust Radius=3.00D-01 FncErr=1.00D-07 GrdErr=1.00D-06 EigMax=2.50D+02 EigMin=1.00D-04
 Number of steps in this run=     38 maximum allowed number of steps=    100.
 GradGradGradGradGradGradGradGradGradGradGradGradGradGradGradGradGradGrad

                          Input orientation:                          
 ---------------------------------------------------------------------
 Center     Atomic      Atomic             Coordinates (Angstroms)
 Number     Number       Type             X           Y           Z
 ---------------------------------------------------------------------
      1          6           0        0.090097   -0.609070    0.000000
      2          6           0       -0.704509    0.716820    0.000000
      3          1           0       -1.757326    0.468960    0.000000
      4         17           0       -0.379462    1.678147    1.456177
      5         17           0       -0.379462    1.678147   -1.456177
      6         17           0        1.838071   -0.332440    0.000000
      7         17           0       -0.379462   -1.544734    1.444870
      8         17           0       -0.379462   -1.544734   -1.444870
 ---------------------------------------------------------------------
                    Distance matrix (angstroms):
                    1          2          3          4          5
     1  C    0.000000
     2  C    1.545763   0.000000
     3  H    2.138953   1.081600   0.000000
     4  Cl   2.751781   1.774896   2.341174   0.000000
     5  Cl   2.751781   1.774896   2.341174   2.912354   0.000000
     6  Cl   1.769728   2.750574   3.683629   3.328718   3.328718
     7  Cl   1.784265   2.703319   2.835687   3.222901   4.336247
     8  Cl   1.784265   2.703319   2.835687   4.336247   3.222901
                    6          7          8
     6  Cl   0.000000
     7  Cl   2.911144   0.000000
     8  Cl   2.911144   2.889740   0.000000
 Stoichiometry    C2HCl5
 Framework group  CS[SG(C2HCl),X(Cl4)]
 Deg. of freedom    11
 Full point group                 CS      NOp   2
 Largest Abelian subgroup         CS      NOp   2
 Largest concise Abelian subgroup CS      NOp   2
                         Standard orientation:                         
 ---------------------------------------------------------------------
 Center     Atomic      Atomic             Coordinates (Angstroms)
 Number     Number       Type             X           Y           Z
 ---------------------------------------------------------------------
      1          6           0        0.090097   -0.609070    0.000000
      2          6           0       -0.704509    0.716820   -0.000000
      3          1           0       -1.757326    0.468960   -0.000000
      4         17           0       -0.379462    1.678147    1.456177
      5         17           0       -0.379462    1.678147   -1.456177
      6         17           0        1.838071   -0.332440    0.000000
      7         17           0       -0.379462   -1.544734    1.444870
      8         17           0       -0.379462   -1.544734   -1.444870
 ---------------------------------------------------------------------
 Rotational constants (GHZ):           1.1557791           0.9608460           0.7461450
 General basis read from cards:  (5D, 7F)
 There are   164 symmetry adapted cartesian basis functions of A'  symmetry.
 There are   116 symmetry adapted cartesian basis functions of A"  symmetry.
 There are   141 symmetry adapted basis functions of A'  symmetry.
 There are   103 symmetry adapted basis functions of A"  symmetry.
   244 basis functions,   470 primitive gaussians,   280 cartesian basis functions
    49 alpha electrons       49 beta electrons
       nuclear repulsion energy       751.6540061402 Hartrees.
 NAtoms=    8 NActive=    8 NUniq=    6 SFac= 1.78D+00 NAtFMM=   60 NAOKFM=F Big=F
 Integral buffers will be    131072 words long.
 Raffenetti 2 integral format.
 Two-electron integral symmetry is turned on.
 One-electron integrals computed using PRISM.
 NBasis=   244 RedAO= T EigKep=  6.46D-04  NBF=   141   103
 NBsUse=   244 1.00D-06 EigRej= -1.00D+00 NBFU=   141   103
 ExpMin= 7.42D-02 ExpMax= 1.54D+05 ExpMxC= 1.49D+03 IAcc=3 IRadAn=         5 AccDes= 0.00D+00
 Harris functional with IExCor=  402 and IRadAn=       5 diagonalized for initial guess.
 HarFok:  IExCor=  402 AccDes= 0.00D+00 IRadAn=         5 IDoV= 1 UseB2=F ITyADJ=14
 ICtDFT=  3500011 ScaDFX=  1.000000  1.000000  1.000000  1.000000
 FoFCou: FMM=F IPFlag=           0 FMFlag=      100000 FMFlg1=           0
         NFxFlg=           0 DoJE=T BraDBF=F KetDBF=T FulRan=T
         wScrn=  0.000000 ICntrl=       500 IOpCl=  0 I1Cent=   200000004 NGrid=           0
         NMat0=    1 NMatS0=      1 NMatT0=    0 NMatD0=    1 NMtDS0=    0 NMtDT0=    0
 Petite list used in FoFCou.
 Initial guess orbital symmetries:
       Occupied  (A') (A") (A') (A") (A') (A') (A') (A') (A") (A')
                 (A") (A') (A') (A") (A') (A') (A") (A') (A") (A')
                 (A") (A') (A") (A') (A") (A') (A") (A') (A') (A")
                 (A') (A") (A') (A') (A') (A') (A") (A') (A") (A')
                 (A") (A') (A") (A') (A') (A") (A') (A") (A")
       Virtual   (A') (A") (A') (A') (A") (A') (A') (A') (A") (A')
                 (A') (A") (A') (A') (A') (A") (A') (A') (A") (A')
                 (A") (A') (A") (A') (A") (A') (A") (A") (A') (A')
                 (A') (A") (A') (A') (A") (A') (A") (A') (A") (A")
                 (A") (A') (A") (A') (A") (A") (A') (A") (A') (A")
                 (A') (A') (A') (A") (A') (A') (A") (A') (A') (A")
                 (A') (A") (A") (A') (A') (A') (A') (A") (A') (A')
                 (A') (A") (A') (A") (A') (A') (A") (A') (A') (A")
                 (A') (A") (A') (A") (A") (A') (A") (A') (A") (A')
                 (A') (A") (A") (A") (A') (A") (A") (A') (A") (A')
                 (A") (A') (A') (A') (A") (A') (A") (A") (A') (A")
                 (A') (A") (A") (A') (A') (A') (A") (A") (A') (A')
                 (A') (A") (A') (A') (A') (A") (A') (A") (A') (A')
                 (A") (A') (A") (A') (A') (A') (A") (A") (A') (A")
                 (A') (A") (A") (A') (A") (A') (A") (A') (A") (A')
                 (A") (A') (A') (A") (A') (A") (A') (A') (A") (A')
                 (A') (A') (A') (A") (A") (A') (A") (A") (A') (A')
                 (A") (A") (A') (A") (A') (A') (A") (A") (A') (A')
                 (A') (A') (A") (A') (A") (A') (A") (A') (A') (A')
                 (A") (A') (A') (A") (A')
 The electronic state of the initial guess is 1-A'.
 Keep R1 ints in memory in symmetry-blocked form, NReq=670331260.
 Requested convergence on RMS density matrix=1.00D-08 within 128 cycles.
 Requested convergence on MAX density matrix=1.00D-06.
 Requested convergence on             energy=1.00D-06.
 No special actions if energy rises.
 Integral accuracy reduced to 1.0D-05 until final iterations.
 Initial convergence to 1.0D-05 achieved.  Increase integral accuracy.
 SCF Done:  E(RB3LYP) =  -2377.99852765     A.U. after   13 cycles
            NFock= 13  Conv=0.50D-08     -V/T= 2.0009

 **********************************************************************

            Population analysis using the SCF Density.

 **********************************************************************

 Orbital symmetries:
       Occupied  (A") (A') (A') (A') (A") (A') (A') (A") (A') (A')
                 (A") (A') (A") (A') (A') (A") (A') (A") (A') (A")
                 (A') (A') (A") (A") (A') (A") (A') (A') (A') (A")
                 (A') (A") (A') (A') (A') (A") (A') (A') (A") (A')
                 (A") (A') (A") (A') (A') (A") (A') (A") (A")
       Virtual   (A') (A") (A') (A') (A') (A") (A') (A') (A") (A')
                 (A') (A") (A') (A') (A') (A") (A') (A") (A') (A')
                 (A") (A') (A") (A') (A") (A') (A") (A") (A') (A')
                 (A') (A") (A') (A') (A") (A") (A') (A') (A") (A")
                 (A") (A') (A") (A') (A") (A") (A') (A") (A') (A')
                 (A") (A') (A') (A") (A') (A') (A") (A') (A') (A")
                 (A') (A") (A') (A") (A') (A') (A') (A") (A') (A')
                 (A') (A") (A') (A") (A') (A') (A') (A") (A') (A")
                 (A') (A") (A') (A") (A") (A') (A") (A') (A') (A")
                 (A") (A') (A") (A") (A') (A") (A") (A') (A") (A')
                 (A") (A') (A') (A") (A') (A') (A") (A") (A') (A')
                 (A") (A") (A") (A') (A') (A') (A") (A") (A') (A')
                 (A') (A") (A') (A') (A') (A") (A') (A") (A') (A')
                 (A") (A') (A") (A') (A') (A') (A") (A") (A') (A")
                 (A') (A") (A') (A") (A") (A') (A") (A') (A") (A')
                 (A") (A') (A') (A") (A') (A") (A') (A') (A") (A')
                 (A') (A') (A") (A') (A") (A') (A") (A") (A') (A')
                 (A") (A") (A') (A") (A') (A') (A") (A") (A') (A')
                 (A') (A") (A') (A') (A") (A') (A") (A') (A') (A')
                 (A") (A') (A') (A") (A')
 The electronic state is 1-A'.
 Alpha  occ. eigenvalues -- -101.54684-101.54684-101.54528-101.53821-101.53821
 Alpha  occ. eigenvalues --  -10.38714 -10.33513  -9.49229  -9.49229  -9.49071
 Alpha  occ. eigenvalues --   -9.48365  -9.48365  -7.25455  -7.25455  -7.25302
 Alpha  occ. eigenvalues --   -7.24579  -7.24579  -7.24468  -7.24468  -7.24447
 Alpha  occ. eigenvalues --   -7.24447  -7.24299  -7.24298  -7.23610  -7.23609
 Alpha  occ. eigenvalues --   -7.23594  -7.23594  -0.98497  -0.91589  -0.86493
 Alpha  occ. eigenvalues --   -0.85990  -0.84306  -0.72863  -0.61846  -0.53644
 Alpha  occ. eigenvalues --   -0.51418  -0.51415  -0.46984  -0.45550  -0.37895
 Alpha  occ. eigenvalues --   -0.37411  -0.36095  -0.35473  -0.35108  -0.34213
 Alpha  occ. eigenvalues --   -0.34065  -0.32961  -0.32549  -0.31462
 Alpha virt. eigenvalues --   -0.05132  -0.03769  -0.03602  -0.00510   0.03228
 Alpha virt. eigenvalues --    0.03314   0.08154   0.12419   0.14863   0.16048
 Alpha virt. eigenvalues --    0.18910   0.20160   0.21000   0.22413   0.23529
 Alpha virt. eigenvalues --    0.24169   0.25811   0.27432   0.27639   0.29768
 Alpha virt. eigenvalues --    0.30019   0.30282   0.31975   0.33075   0.33298
 Alpha virt. eigenvalues --    0.34494   0.34752   0.35403   0.35695   0.38570
 Alpha virt. eigenvalues --    0.39802   0.41865   0.42155   0.49431   0.49452
 Alpha virt. eigenvalues --    0.53389   0.53497   0.53952   0.54019   0.54788
 Alpha virt. eigenvalues --    0.58414   0.60886   0.62265   0.63648   0.64358
 Alpha virt. eigenvalues --    0.65022   0.65342   0.66974   0.67446   0.70499
 Alpha virt. eigenvalues --    0.70584   0.73158   0.75223   0.76057   0.79566
 Alpha virt. eigenvalues --    0.81975   0.88546   0.90554   1.01665   1.01788
 Alpha virt. eigenvalues --    1.03270   1.04568   1.09215   1.09406   1.14538
 Alpha virt. eigenvalues --    1.14623   1.17190   1.19683   1.21457   1.25428
 Alpha virt. eigenvalues --    1.30202   1.39667   1.50631   1.51610   1.66578
 Alpha virt. eigenvalues --    1.75838   1.78359   1.78847   1.81051   1.84628
 Alpha virt. eigenvalues --    1.87226   1.98963   2.02386   2.04300   2.05443
 Alpha virt. eigenvalues --    2.06258   2.07379   2.07939   2.08361   2.08384
 Alpha virt. eigenvalues --    2.08551   2.08674   2.09186   2.09262   2.09409
 Alpha virt. eigenvalues --    2.09518   2.09909   2.09922   2.10271   2.11377
 Alpha virt. eigenvalues --    2.11490   2.11771   2.13017   2.13545   2.14187
 Alpha virt. eigenvalues --    2.14783   2.15891   2.17717   2.17950   2.18770
 Alpha virt. eigenvalues --    2.19011   2.20215   2.21313   2.21445   2.24582
 Alpha virt. eigenvalues --    2.26822   2.27308   2.30329   2.31115   2.33225
 Alpha virt. eigenvalues --    2.35483   2.43494   2.45780   2.48400   2.52735
 Alpha virt. eigenvalues --    2.55187   2.55226   2.56113   2.59592   2.68529
 Alpha virt. eigenvalues --    2.72403   2.76251   3.13739   3.16916   3.18399
 Alpha virt. eigenvalues --    3.21255   3.23219   3.30312   3.32440   3.36766
 Alpha virt. eigenvalues --    3.42974   3.45389   3.48187   3.48726   3.49350
 Alpha virt. eigenvalues --    3.49762   3.49935   3.50623   3.52317   3.52641
 Alpha virt. eigenvalues --    3.53267   3.58190   3.61185   3.62749   3.63920
 Alpha virt. eigenvalues --    3.73630   3.75276   3.77444   3.84303   3.84874
 Alpha virt. eigenvalues --    3.93817   3.96805   4.04456   4.04834   4.08291
 Alpha virt. eigenvalues --    4.16023   4.25935   4.27976   4.28266   4.34781
 Alpha virt. eigenvalues --    4.35318   4.41289   4.48952   4.49442   4.58829
 Alpha virt. eigenvalues --    4.63339   4.65133   4.79850   4.81878   4.91109
 Alpha virt. eigenvalues --    5.01496   5.18504   5.18933   5.23232   5.25494
 Alpha virt. eigenvalues --    5.50110   5.52657   5.57861   5.75293   6.19028
 Alpha virt. eigenvalues --   32.84555  32.97567  33.10034  33.23034  33.25016
          Condensed to atoms (all electrons):
               1          2          3          4          5          6
     1  C    4.737475   0.263071  -0.055047  -0.035150  -0.035150   0.346463
     2  C    0.263071   4.806354   0.430992   0.312000   0.312000  -0.050304
     3  H   -0.055047   0.430992   0.581585  -0.050260  -0.050260   0.006841
     4  Cl  -0.035150   0.312000  -0.050260  16.945294  -0.075809  -0.011550
     5  Cl  -0.035150   0.312000  -0.050260  -0.075809  16.945294  -0.011550
     6  Cl   0.346463  -0.050304   0.006841  -0.011550  -0.011550  16.919458
     7  Cl   0.323037  -0.038506  -0.001086  -0.021129   0.004808  -0.081237
     8  Cl   0.323037  -0.038506  -0.001086   0.004808  -0.021129  -0.081237
               7          8
     1  C    0.323037   0.323037
     2  C   -0.038506  -0.038506
     3  H   -0.001086  -0.001086
     4  Cl  -0.021129   0.004808
     5  Cl   0.004808  -0.021129
     6  Cl  -0.081237  -0.081237
     7  Cl  16.949392  -0.085180
     8  Cl  -0.085180  16.949392
 Mulliken charges:
               1
     1  C    0.132265
     2  C    0.002900
     3  H    0.138324
     4  Cl  -0.068203
     5  Cl  -0.068203
     6  Cl  -0.036885
     7  Cl  -0.050099
     8  Cl  -0.050099
 Sum of Mulliken charges =  -0.00000
 Mulliken charges with hydrogens summed into heavy atoms:
               1
     1  C    0.132265
     2  C    0.141224
     4  Cl  -0.068203
     5  Cl  -0.068203
     6  Cl  -0.036885
     7  Cl  -0.050099
     8  Cl  -0.050099
 Electronic spatial extent (au):  <R**2>=           1597.4271
 Charge=              0.0000 electrons
 Dipole moment (field-independent basis, Debye):
    X=             -0.9028    Y=             -0.2476    Z=             -0.0000  Tot=              0.9362
 Quadrupole moment (field-independent basis, Debye-Ang):
   XX=            -72.4748   YY=            -76.6694   ZZ=            -74.7832
   XY=              0.3644   XZ=             -0.0000   YZ=             -0.0000
 Traceless Quadrupole moment (field-independent basis, Debye-Ang):
   XX=              2.1677   YY=             -2.0269   ZZ=             -0.1408
   XY=              0.3644   XZ=             -0.0000   YZ=             -0.0000
 Octapole moment (field-independent basis, Debye-Ang**2):
  XXX=              3.0479  YYY=             -2.1821  ZZZ=              0.0000  XYY=              1.0219
  XXY=              0.7232  XXZ=              0.0000  XZZ=              0.2387  YZZ=             -1.2843
  YYZ=             -0.0000  XYZ=             -0.0000
 Hexadecapole moment (field-independent basis, Debye-Ang**3):
 XXXX=           -378.9944 YYYY=           -909.3516 ZZZZ=           -687.5266 XXXY=             37.2434
 XXXZ=             -0.0000 YYYX=             44.2297 YYYZ=              0.0000 ZZZX=             -0.0000
 ZZZY=              0.0000 XXYY=           -223.9296 XXZZ=           -191.5087 YYZZ=           -245.6766
 XXYZ=              0.0000 YYXZ=             -0.0000 ZZXY=             20.5505
 N-N= 7.516540061402D+02 E-N=-7.155017807507D+03  KE= 2.375742643924D+03
 Symmetry A'   KE= 1.405865774545D+03
 Symmetry A"   KE= 9.698768693793D+02
 Calling FoFJK, ICntrl=      2127 FMM=F ISym2X=1 I1Cent= 0 IOpClX= 0 NMat=1 NMatS=1 NMatT=0.
 ***** Axes restored to original set *****
 -------------------------------------------------------------------
 Center     Atomic                   Forces (Hartrees/Bohr)
 Number     Number              X              Y              Z
 -------------------------------------------------------------------
      1        6           0.000279706   -0.000406314    0.000000000
      2        6          -0.000049300    0.000548269   -0.000000000
      3        1          -0.001621312    0.000019106   -0.000000000
      4       17          -0.000369223    0.002652341    0.002849056
      5       17          -0.000369223    0.002652341   -0.002849056
      6       17           0.003914923   -0.000154628   -0.000000000
      7       17          -0.000892785   -0.002655557    0.003003631
      8       17          -0.000892785   -0.002655557   -0.003003631
 -------------------------------------------------------------------
 Cartesian Forces:  Max     0.003914923 RMS     0.001857915

 GradGradGradGradGradGradGradGradGradGradGradGradGradGradGradGradGradGrad
 Berny optimization.
 FormGI is forming the generalized inverse of G from B-inverse, IUseBI=4.
 Internal  Forces:  Max     0.006275012 RMS     0.002265047
 Search for a local minimum.
 Step number   1 out of a maximum of   38
 All quantities printed in internal units (Hartrees-Bohrs-Radians)
 Mixed Optimization -- RFO/linear search
 Second derivative matrix not updated -- first step.
 ITU=  0
     Eigenvalues ---    0.00230   0.06162   0.06723   0.08430   0.09187
     Eigenvalues ---    0.16000   0.23621   0.24328   0.25000   0.25000
     Eigenvalues ---    0.25000   0.27396   0.27396   0.28014   0.28198
     Eigenvalues ---    0.28198   0.28654   0.35802
 RFO step:  Lambda=-5.63485457D-04 EMin= 2.30000000D-03
 Linear search not attempted -- first point.
 Iteration  1 RMS(Cart)=  0.01802385 RMS(Int)=  0.00009136
 Iteration  2 RMS(Cart)=  0.00006879 RMS(Int)=  0.00005314
 Iteration  3 RMS(Cart)=  0.00000001 RMS(Int)=  0.00005314
 ClnCor:  largest displacement from symmetrization is 6.64D-11 for atom     5.
 Variable       Old X    -DE/DX   Delta X   Delta X   Delta X     New X
                                 (Linear)    (Quad)   (Total)
    R1        2.92107   0.00628   0.00000   0.02235   0.02235   2.94342
    R2        3.34430   0.00384   0.00000   0.01338   0.01338   3.35768
    R3        3.37177   0.00406   0.00000   0.01479   0.01479   3.38656
    R4        3.37177   0.00406   0.00000   0.01479   0.01479   3.38656
    R5        2.04393   0.00157   0.00000   0.00439   0.00439   2.04832
    R6        3.35407   0.00371   0.00000   0.01312   0.01312   3.36719
    R7        3.35407   0.00371   0.00000   0.01312   0.01312   3.36719
    A1        1.95375   0.00151   0.00000   0.00699   0.00698   1.96072
    A2        1.89075   0.00084   0.00000   0.00289   0.00288   1.89363
    A3        1.89075   0.00084   0.00000   0.00289   0.00288   1.89363
    A4        1.91974  -0.00104   0.00000  -0.00318  -0.00320   1.91654
    A5        1.91974  -0.00104   0.00000  -0.00318  -0.00320   1.91654
    A6        1.88757  -0.00114   0.00000  -0.00671  -0.00671   1.88086
    A7        1.87949  -0.00050   0.00000  -0.00539  -0.00535   1.87413
    A8        1.95028   0.00230   0.00000   0.01226   0.01216   1.96244
    A9        1.95028   0.00230   0.00000   0.01226   0.01216   1.96244
   A10        1.87799  -0.00127   0.00000  -0.01018  -0.01015   1.86784
   A11        1.87799  -0.00127   0.00000  -0.01018  -0.01015   1.86784
   A12        1.92432  -0.00182   0.00000  -0.00071  -0.00090   1.92342
    D1        3.14159  -0.00000   0.00000   0.00000   0.00000   3.14159
    D2       -1.08279  -0.00054   0.00000  -0.00874  -0.00880  -1.09158
    D3        1.08279   0.00054   0.00000   0.00874   0.00880   1.09158
    D4       -1.02186   0.00022   0.00000   0.00241   0.00242  -1.01944
    D5        1.03695  -0.00032   0.00000  -0.00633  -0.00638   1.03057
    D6       -3.08066   0.00076   0.00000   0.01115   0.01121  -3.06945
    D7        1.02186  -0.00022   0.00000  -0.00241  -0.00242   1.01944
    D8        3.08066  -0.00076   0.00000  -0.01115  -0.01121   3.06945
    D9       -1.03695   0.00032   0.00000   0.00633   0.00638  -1.03057
         Item               Value     Threshold  Converged?
 Maximum Force            0.006275     0.000450     NO 
 RMS     Force            0.002265     0.000300     NO 
 Maximum Displacement     0.041124     0.001800     NO 
 RMS     Displacement     0.018048     0.001200     NO 
 Predicted change in Energy=-2.831707D-04
 GradGradGradGradGradGradGradGradGradGradGradGradGradGradGradGradGradGrad

                          Input orientation:                          
 ---------------------------------------------------------------------
 Center     Atomic      Atomic             Coordinates (Angstroms)
 Number     Number       Type             X           Y           Z
 ---------------------------------------------------------------------
      1          6           0        0.096173   -0.613844   -0.000000
      2          6           0       -0.700065    0.724849    0.000000
      3          1           0       -1.754637    0.474317    0.000000
      4         17           0       -0.395107    1.697589    1.461411
      5         17           0       -0.395107    1.697589   -1.461411
      6         17           0        1.853910   -0.354202   -0.000000
      7         17           0       -0.378342   -1.557601    1.447670
      8         17           0       -0.378342   -1.557601   -1.447670
 ---------------------------------------------------------------------
                    Distance matrix (angstroms):
                    1          2          3          4          5
     1  C    0.000000
     2  C    1.557592   0.000000
     3  H    2.146996   1.083922   0.000000
     4  Cl   2.778453   1.781838   2.341034   0.000000
     5  Cl   2.778453   1.781838   2.341034   2.922823   0.000000
     6  Cl   1.776810   2.772570   3.702439   3.376929   3.376929
     7  Cl   1.792091   2.721917   2.849321   3.255263   4.365696
     8  Cl   1.792091   2.721917   2.849321   4.365696   3.255263
                    6          7          8
     6  Cl   0.000000
     7  Cl   2.920080   0.000000
     8  Cl   2.920080   2.895339   0.000000
 Stoichiometry    C2HCl5
 Framework group  CS[SG(C2HCl),X(Cl4)]
 Deg. of freedom    11
 Full point group                 CS      NOp   2
 Largest Abelian subgroup         CS      NOp   2
 Largest concise Abelian subgroup CS      NOp   2
                         Standard orientation:                         
 ---------------------------------------------------------------------
 Center     Atomic      Atomic             Coordinates (Angstroms)
 Number     Number       Type             X           Y           Z
 ---------------------------------------------------------------------
      1          6           0        0.094637   -0.613100   -0.000000
      2          6           0       -0.694697    0.729676    0.000000
      3          1           0       -1.750544    0.484579    0.000000
      4         17           0       -0.384732    1.700833    1.461411
      5         17           0       -0.384732    1.700833   -1.461411
      6         17           0        1.853688   -0.362514   -0.000000
      7         17           0       -0.384732   -1.554401    1.447670
      8         17           0       -0.384732   -1.554401   -1.447670
 ---------------------------------------------------------------------
 Rotational constants (GHZ):           1.1467832           0.9413638           0.7345152
 Basis read from rwf:  (5D, 7F)
 There are   164 symmetry adapted cartesian basis functions of A'  symmetry.
 There are   116 symmetry adapted cartesian basis functions of A"  symmetry.
 There are   141 symmetry adapted basis functions of A'  symmetry.
 There are   103 symmetry adapted basis functions of A"  symmetry.
   244 basis functions,   470 primitive gaussians,   280 cartesian basis functions
    49 alpha electrons       49 beta electrons
       nuclear repulsion energy       746.7353228320 Hartrees.
 NAtoms=    8 NActive=    8 NUniq=    6 SFac= 1.78D+00 NAtFMM=   60 NAOKFM=F Big=F
 Integral buffers will be    131072 words long.
 Raffenetti 2 integral format.
 Two-electron integral symmetry is turned on.
 One-electron integrals computed using PRISM.
 NBasis=   244 RedAO= T EigKep=  6.65D-04  NBF=   141   103
 NBsUse=   244 1.00D-06 EigRej= -1.00D+00 NBFU=   141   103
 Initial guess from the checkpoint file:  "/wrk/irikura/Gau-18027.chk"
 B after Tr=     0.000000   -0.000000   -0.000000
         Rot=    0.999998   -0.000000    0.000000    0.002129 Ang=   0.24 deg.
 Initial guess orbital symmetries:
       Occupied  (A") (A') (A') (A') (A") (A') (A') (A") (A') (A')
                 (A") (A') (A") (A') (A') (A") (A') (A") (A') (A")
                 (A') (A') (A") (A") (A') (A") (A') (A') (A') (A")
                 (A') (A") (A') (A') (A') (A") (A') (A') (A") (A')
                 (A") (A') (A") (A') (A') (A") (A') (A") (A")
       Virtual   (A') (A") (A') (A') (A') (A") (A') (A') (A") (A')
                 (A') (A") (A') (A') (A') (A") (A') (A") (A') (A')
                 (A") (A') (A") (A') (A") (A') (A") (A") (A') (A')
                 (A') (A") (A') (A') (A") (A") (A') (A') (A") (A")
                 (A") (A') (A") (A') (A") (A") (A') (A") (A') (A')
                 (A") (A') (A') (A") (A') (A') (A") (A') (A') (A")
                 (A') (A") (A') (A") (A') (A') (A') (A") (A') (A')
                 (A') (A") (A') (A") (A') (A') (A') (A") (A') (A")
                 (A') (A") (A') (A") (A") (A') (A") (A') (A') (A")
                 (A") (A') (A") (A") (A') (A") (A") (A') (A") (A')
                 (A") (A') (A') (A") (A') (A') (A") (A") (A') (A')
                 (A") (A") (A") (A') (A') (A') (A") (A") (A') (A')
                 (A') (A") (A') (A') (A') (A") (A') (A") (A') (A')
                 (A") (A') (A") (A') (A') (A') (A") (A") (A') (A")
                 (A') (A") (A') (A") (A") (A') (A") (A') (A") (A')
                 (A") (A') (A') (A") (A') (A") (A') (A') (A") (A')
                 (A') (A') (A") (A') (A") (A') (A") (A") (A') (A')
                 (A") (A") (A') (A") (A') (A') (A") (A") (A') (A')
                 (A') (A") (A') (A') (A") (A') (A") (A') (A') (A')
                 (A") (A') (A') (A") (A')
 ExpMin= 7.42D-02 ExpMax= 1.54D+05 ExpMxC= 1.49D+03 IAcc=3 IRadAn=         5 AccDes= 0.00D+00
 Harris functional with IExCor=  402 and IRadAn=       5 diagonalized for initial guess.
 HarFok:  IExCor=  402 AccDes= 0.00D+00 IRadAn=         5 IDoV= 1 UseB2=F ITyADJ=14
 ICtDFT=  3500011 ScaDFX=  1.000000  1.000000  1.000000  1.000000
 FoFCou: FMM=F IPFlag=           0 FMFlag=      100000 FMFlg1=           0
         NFxFlg=           0 DoJE=T BraDBF=F KetDBF=T FulRan=T
         wScrn=  0.000000 ICntrl=       500 IOpCl=  0 I1Cent=   200000004 NGrid=           0
         NMat0=    1 NMatS0=      1 NMatT0=    0 NMatD0=    1 NMtDS0=    0 NMtDT0=    0
 Petite list used in FoFCou.
 Keep R1 ints in memory in symmetry-blocked form, NReq=670331260.
 Requested convergence on RMS density matrix=1.00D-08 within 128 cycles.
 Requested convergence on MAX density matrix=1.00D-06.
 Requested convergence on             energy=1.00D-06.
 No special actions if energy rises.
 Integral accuracy reduced to 1.0D-05 until final iterations.
 Initial convergence to 1.0D-05 achieved.  Increase integral accuracy.
 SCF Done:  E(RB3LYP) =  -2377.99872846     A.U. after   10 cycles
            NFock= 10  Conv=0.81D-08     -V/T= 2.0010
 Calling FoFJK, ICntrl=      2127 FMM=F ISym2X=1 I1Cent= 0 IOpClX= 0 NMat=1 NMatS=1 NMatT=0.
 ***** Axes restored to original set *****
 -------------------------------------------------------------------
 Center     Atomic                   Forces (Hartrees/Bohr)
 Number     Number              X              Y              Z
 -------------------------------------------------------------------
      1        6           0.000079179    0.000948272   -0.000000000
      2        6          -0.001080286   -0.001244701   -0.000000000
      3        1           0.000134331   -0.000215326    0.000000000
      4       17           0.000737462   -0.000400222    0.000050617
      5       17           0.000737462   -0.000400222   -0.000050617
      6       17          -0.000203263    0.000577853   -0.000000000
      7       17          -0.000202443    0.000367173    0.000538610
      8       17          -0.000202443    0.000367173   -0.000538610
 -------------------------------------------------------------------
 Cartesian Forces:  Max     0.001244701 RMS     0.000516656

 GradGradGradGradGradGradGradGradGradGradGradGradGradGradGradGradGradGrad
 Berny optimization.
 Using GEDIIS/GDIIS optimizer.
 FormGI is forming the generalized inverse of G from B-inverse, IUseBI=4.
 Internal  Forces:  Max     0.002213389 RMS     0.000829432
 Search for a local minimum.
 Step number   2 out of a maximum of   38
 All quantities printed in internal units (Hartrees-Bohrs-Radians)
 Mixed Optimization -- En-DIIS/RFO-DIIS
 Update second derivatives using D2CorX and points    1    2
 DE= -2.01D-04 DEPred=-2.83D-04 R= 7.09D-01
 TightC=F SS=  1.41D+00  RLast= 5.14D-02 DXNew= 5.0454D-01 1.5416D-01
 Trust test= 7.09D-01 RLast= 5.14D-02 DXMaxT set to 3.00D-01
 ITU=  1  0
 Use linear search instead of GDIIS.
     Eigenvalues ---    0.00230   0.06157   0.07013   0.08327   0.09262
     Eigenvalues ---    0.16041   0.23250   0.23647   0.24690   0.25000
     Eigenvalues ---    0.25007   0.26840   0.27396   0.27955   0.28198
     Eigenvalues ---    0.28560   0.35325   0.36292
 RFO step:  Lambda=-3.67315904D-05 EMin= 2.30000000D-03
 Quartic linear search produced a step of -0.21947.
 Iteration  1 RMS(Cart)=  0.00716941 RMS(Int)=  0.00002269
 Iteration  2 RMS(Cart)=  0.00002708 RMS(Int)=  0.00000279
 Iteration  3 RMS(Cart)=  0.00000000 RMS(Int)=  0.00000279
 ClnCor:  largest displacement from symmetrization is 1.17D-10 for atom     5.
 Variable       Old X    -DE/DX   Delta X   Delta X   Delta X     New X
                                 (Linear)    (Quad)   (Total)
    R1        2.94342  -0.00221  -0.00491   0.00008  -0.00482   2.93860
    R2        3.35768  -0.00012  -0.00294   0.00342   0.00049   3.35817
    R3        3.38656   0.00030  -0.00325   0.00497   0.00173   3.38829
    R4        3.38656   0.00030  -0.00325   0.00497   0.00173   3.38829
    R5        2.04832  -0.00008  -0.00096   0.00106   0.00009   2.04841
    R6        3.36719  -0.00005  -0.00288   0.00353   0.00065   3.36783
    R7        3.36719  -0.00005  -0.00288   0.00353   0.00065   3.36783
    A1        1.96072  -0.00113  -0.00153  -0.00238  -0.00391   1.95681
    A2        1.89363  -0.00084  -0.00063  -0.00145  -0.00208   1.89155
    A3        1.89363  -0.00084  -0.00063  -0.00145  -0.00208   1.89155
    A4        1.91654   0.00086   0.00070   0.00103   0.00172   1.91826
    A5        1.91654   0.00086   0.00070   0.00103   0.00172   1.91826
    A6        1.88086   0.00114   0.00147   0.00341   0.00489   1.88574
    A7        1.87413   0.00038   0.00118   0.00205   0.00323   1.87736
    A8        1.96244  -0.00149  -0.00267  -0.00320  -0.00587   1.95657
    A9        1.96244  -0.00149  -0.00267  -0.00320  -0.00587   1.95657
   A10        1.86784   0.00085   0.00223   0.00297   0.00520   1.87304
   A11        1.86784   0.00085   0.00223   0.00297   0.00520   1.87304
   A12        1.92342   0.00114   0.00020  -0.00084  -0.00065   1.92277
    D1        3.14159   0.00000   0.00000  -0.00000   0.00000   3.14159
    D2       -1.09158   0.00042   0.00193   0.00310   0.00503  -1.08655
    D3        1.09158  -0.00042  -0.00193  -0.00310  -0.00503   1.08655
    D4       -1.01944  -0.00022  -0.00053  -0.00124  -0.00177  -1.02121
    D5        1.03057   0.00020   0.00140   0.00187   0.00327   1.03383
    D6       -3.06945  -0.00064  -0.00246  -0.00434  -0.00680  -3.07625
    D7        1.01944   0.00022   0.00053   0.00124   0.00177   1.02121
    D8        3.06945   0.00064   0.00246   0.00434   0.00680   3.07625
    D9       -1.03057  -0.00020  -0.00140  -0.00187  -0.00327  -1.03383
         Item               Value     Threshold  Converged?
 Maximum Force            0.002213     0.000450     NO 
 RMS     Force            0.000829     0.000300     NO 
 Maximum Displacement     0.019932     0.001800     NO 
 RMS     Displacement     0.007188     0.001200     NO 
 Predicted change in Energy=-3.428740D-05
 GradGradGradGradGradGradGradGradGradGradGradGradGradGradGradGradGradGrad

                          Input orientation:                          
 ---------------------------------------------------------------------
 Center     Atomic      Atomic             Coordinates (Angstroms)
 Number     Number       Type             X           Y           Z
 ---------------------------------------------------------------------
      1          6           0        0.093834   -0.613424    0.000000
      2          6           0       -0.703548    0.721617   -0.000000
      3          1           0       -1.758516    0.472547   -0.000000
      4         17           0       -0.387457    1.691502    1.461362
      5         17           0       -0.387457    1.691502   -1.461362
      6         17           0        1.850305   -0.343655    0.000000
      7         17           0       -0.379338   -1.554496    1.450985
      8         17           0       -0.379338   -1.554496   -1.450985
 ---------------------------------------------------------------------
                    Distance matrix (angstroms):
                    1          2          3          4          5
     1  C    0.000000
     2  C    1.555041   0.000000
     3  H    2.147215   1.083971   0.000000
     4  Cl   2.771264   1.782181   2.345471   0.000000
     5  Cl   2.771264   1.782181   2.345471   2.922724   0.000000
     6  Cl   1.777067   2.767123   3.699969   3.359318   3.359318
     7  Cl   1.793005   2.718669   2.848928   3.246025   4.361002
     8  Cl   1.793005   2.718669   2.848928   4.361002   3.246025
                    6          7          8
     6  Cl   0.000000
     7  Cl   2.922808   0.000000
     8  Cl   2.922808   2.901971   0.000000
 Stoichiometry    C2HCl5
 Framework group  CS[SG(C2HCl),X(Cl4)]
 Deg. of freedom    11
 Full point group                 CS      NOp   2
 Largest Abelian subgroup         CS      NOp   2
 Largest concise Abelian subgroup CS      NOp   2
                         Standard orientation:                         
 ---------------------------------------------------------------------
 Center     Atomic      Atomic             Coordinates (Angstroms)
 Number     Number       Type             X           Y           Z
 ---------------------------------------------------------------------
      1          6           0        0.092634   -0.613023   -0.000000
      2          6           0       -0.701407    0.724008    0.000000
      3          1           0       -1.756994    0.477578    0.000000
      4         17           0       -0.382890    1.693100    1.461362
      5         17           0       -0.382890    1.693100   -1.461362
      6         17           0        1.849774   -0.347647    0.000000
      7         17           0       -0.382890   -1.552908    1.450985
      8         17           0       -0.382890   -1.552908   -1.450985
 ---------------------------------------------------------------------
 Rotational constants (GHZ):           1.1457804           0.9470262           0.7369482
 Basis read from rwf:  (5D, 7F)
 There are   164 symmetry adapted cartesian basis functions of A'  symmetry.
 There are   116 symmetry adapted cartesian basis functions of A"  symmetry.
 There are   141 symmetry adapted basis functions of A'  symmetry.
 There are   103 symmetry adapted basis functions of A"  symmetry.
   244 basis functions,   470 primitive gaussians,   280 cartesian basis functions
    49 alpha electrons       49 beta electrons
       nuclear repulsion energy       747.4837735615 Hartrees.
 NAtoms=    8 NActive=    8 NUniq=    6 SFac= 1.78D+00 NAtFMM=   60 NAOKFM=F Big=F
 Integral buffers will be    131072 words long.
 Raffenetti 2 integral format.
 Two-electron integral symmetry is turned on.
 One-electron integrals computed using PRISM.
 NBasis=   244 RedAO= T EigKep=  6.65D-04  NBF=   141   103
 NBsUse=   244 1.00D-06 EigRej= -1.00D+00 NBFU=   141   103
 Initial guess from the checkpoint file:  "/wrk/irikura/Gau-18027.chk"
 B after Tr=    -0.000000    0.000000    0.000000
         Rot=    0.999999   -0.000000   -0.000000   -0.001102 Ang=  -0.13 deg.
 Initial guess orbital symmetries:
       Occupied  (A") (A') (A') (A') (A") (A') (A') (A") (A') (A')
                 (A") (A') (A") (A') (A') (A") (A') (A") (A') (A")
                 (A') (A') (A") (A") (A') (A") (A') (A') (A') (A")
                 (A') (A") (A') (A') (A') (A') (A") (A') (A") (A')
                 (A") (A') (A") (A') (A') (A") (A') (A") (A")
       Virtual   (A') (A") (A') (A') (A') (A") (A') (A') (A") (A')
                 (A') (A") (A') (A') (A') (A") (A') (A") (A') (A')
                 (A") (A') (A") (A') (A") (A') (A") (A") (A') (A')
                 (A') (A") (A') (A") (A') (A") (A') (A') (A") (A")
                 (A") (A') (A") (A') (A") (A") (A') (A") (A') (A')
                 (A") (A') (A') (A") (A') (A') (A") (A') (A") (A')
                 (A') (A") (A') (A") (A') (A') (A') (A") (A') (A')
                 (A') (A") (A') (A") (A') (A') (A') (A") (A') (A")
                 (A') (A") (A') (A") (A") (A') (A") (A') (A") (A')
                 (A") (A') (A") (A") (A') (A") (A") (A') (A") (A')
                 (A") (A') (A') (A") (A') (A') (A") (A") (A') (A')
                 (A") (A") (A') (A") (A') (A') (A") (A") (A') (A')
                 (A') (A") (A') (A') (A') (A') (A") (A") (A') (A')
                 (A") (A') (A") (A') (A') (A') (A") (A") (A') (A")
                 (A') (A") (A') (A") (A") (A') (A") (A') (A") (A')
                 (A") (A') (A') (A") (A') (A") (A') (A') (A") (A')
                 (A') (A') (A") (A') (A") (A') (A") (A') (A") (A')
                 (A") (A") (A') (A") (A') (A') (A") (A") (A') (A')
                 (A') (A") (A') (A') (A") (A') (A") (A') (A') (A')
                 (A") (A') (A') (A") (A')
 Keep R1 ints in memory in symmetry-blocked form, NReq=670331260.
 Requested convergence on RMS density matrix=1.00D-08 within 128 cycles.
 Requested convergence on MAX density matrix=1.00D-06.
 Requested convergence on             energy=1.00D-06.
 No special actions if energy rises.
 SCF Done:  E(RB3LYP) =  -2377.99875974     A.U. after    9 cycles
            NFock=  9  Conv=0.36D-08     -V/T= 2.0010
 Calling FoFJK, ICntrl=      2127 FMM=F ISym2X=1 I1Cent= 0 IOpClX= 0 NMat=1 NMatS=1 NMatT=0.
 ***** Axes restored to original set *****
 -------------------------------------------------------------------
 Center     Atomic                   Forces (Hartrees/Bohr)
 Number     Number              X              Y              Z
 -------------------------------------------------------------------
      1        6           0.000044678    0.000546103    0.000000000
      2        6           0.000044178   -0.000442843    0.000000000
      3        1           0.000126623    0.000135529    0.000000000
      4       17          -0.000066747    0.000027277    0.000009549
      5       17          -0.000066747    0.000027277   -0.000009549
      6       17          -0.000179458   -0.000203886    0.000000000
      7       17           0.000048737   -0.000044728   -0.000241766
      8       17           0.000048737   -0.000044728    0.000241766
 -------------------------------------------------------------------
 Cartesian Forces:  Max     0.000546103 RMS     0.000175914

 GradGradGradGradGradGradGradGradGradGradGradGradGradGradGradGradGradGrad
 Berny optimization.
 Using GEDIIS/GDIIS optimizer.
 FormGI is forming the generalized inverse of G from B-inverse, IUseBI=4.
 Internal  Forces:  Max     0.000371865 RMS     0.000157028
 Search for a local minimum.
 Step number   3 out of a maximum of   38
 All quantities printed in internal units (Hartrees-Bohrs-Radians)
 Mixed Optimization -- En-DIIS/RFO-DIIS
 Swapping is turned off.
 Update second derivatives using D2CorX and points    1    2    3
 DE= -3.13D-05 DEPred=-3.43D-05 R= 9.12D-01
 TightC=F SS=  1.41D+00  RLast= 1.97D-02 DXNew= 5.0454D-01 5.9140D-02
 Trust test= 9.12D-01 RLast= 1.97D-02 DXMaxT set to 3.00D-01
 ITU=  1  1  0
     Eigenvalues ---    0.00230   0.06155   0.06942   0.08390   0.09655
     Eigenvalues ---    0.16112   0.23630   0.24104   0.24944   0.25000
     Eigenvalues ---    0.25712   0.27396   0.27550   0.27977   0.28198
     Eigenvalues ---    0.28710   0.35730   0.36626
 En-DIIS/RFO-DIIS/Sim-DIIS IScMMF=       -3 using points:     3    2
 RFO step:  Lambda=-2.63875759D-06.
 DidBck=F Rises=F RFO-DIIS coefs:    0.91224    0.08776
 Iteration  1 RMS(Cart)=  0.00088086 RMS(Int)=  0.00000135
 Iteration  2 RMS(Cart)=  0.00000076 RMS(Int)=  0.00000122
 ClnCor:  largest displacement from symmetrization is 9.06D-11 for atom     5.
 Variable       Old X    -DE/DX   Delta X   Delta X   Delta X     New X
                                 (Linear)    (Quad)   (Total)
    R1        2.93860  -0.00024   0.00042  -0.00149  -0.00107   2.93753
    R2        3.35817  -0.00021  -0.00004  -0.00067  -0.00072   3.35745
    R3        3.38829  -0.00018  -0.00015  -0.00049  -0.00064   3.38765
    R4        3.38829  -0.00018  -0.00015  -0.00049  -0.00064   3.38765
    R5        2.04841  -0.00015  -0.00001  -0.00040  -0.00041   2.04800
    R6        3.36783   0.00001  -0.00006   0.00001  -0.00004   3.36779
    R7        3.36783   0.00001  -0.00006   0.00001  -0.00004   3.36779
    A1        1.95681   0.00037   0.00034   0.00110   0.00145   1.95826
    A2        1.89155   0.00017   0.00018   0.00017   0.00035   1.89190
    A3        1.89155   0.00017   0.00018   0.00017   0.00035   1.89190
    A4        1.91826  -0.00021  -0.00015  -0.00017  -0.00032   1.91794
    A5        1.91826  -0.00021  -0.00015  -0.00017  -0.00032   1.91794
    A6        1.88574  -0.00031  -0.00043  -0.00118  -0.00161   1.88413
    A7        1.87736   0.00009  -0.00028   0.00079   0.00051   1.87787
    A8        1.95657   0.00010   0.00052  -0.00032   0.00020   1.95677
    A9        1.95657   0.00010   0.00052  -0.00032   0.00020   1.95677
   A10        1.87304  -0.00012  -0.00046  -0.00007  -0.00052   1.87252
   A11        1.87304  -0.00012  -0.00046  -0.00007  -0.00052   1.87252
   A12        1.92277  -0.00007   0.00006   0.00002   0.00008   1.92285
    D1        3.14159   0.00000   0.00000  -0.00000   0.00000   3.14159
    D2       -1.08655  -0.00003  -0.00044   0.00023  -0.00021  -1.08676
    D3        1.08655   0.00003   0.00044  -0.00023   0.00021   1.08676
    D4       -1.02121   0.00009   0.00016   0.00061   0.00076  -1.02045
    D5        1.03383   0.00006  -0.00029   0.00084   0.00056   1.03439
    D6       -3.07625   0.00012   0.00060   0.00037   0.00097  -3.07528
    D7        1.02121  -0.00009  -0.00016  -0.00061  -0.00076   1.02045
    D8        3.07625  -0.00012  -0.00060  -0.00037  -0.00097   3.07528
    D9       -1.03383  -0.00006   0.00029  -0.00084  -0.00056  -1.03439
         Item               Value     Threshold  Converged?
 Maximum Force            0.000372     0.000450     YES
 RMS     Force            0.000157     0.000300     YES
 Maximum Displacement     0.002281     0.001800     NO 
 RMS     Displacement     0.000881     0.001200     YES
 Predicted change in Energy=-1.319580D-06
 GradGradGradGradGradGradGradGradGradGradGradGradGradGradGradGradGradGrad

                          Input orientation:                          
 ---------------------------------------------------------------------
 Center     Atomic      Atomic             Coordinates (Angstroms)
 Number     Number       Type             X           Y           Z
 ---------------------------------------------------------------------
      1          6           0        0.094141   -0.612621    0.000000
      2          6           0       -0.703397    0.721667   -0.000000
      3          1           0       -1.758198    0.472829   -0.000000
      4         17           0       -0.388116    1.691742    1.461383
      5         17           0       -0.388116    1.691742   -1.461383
      6         17           0        1.850536   -0.344861    0.000000
      7         17           0       -0.379182   -1.554700    1.449865
      8         17           0       -0.379182   -1.554700   -1.449865
 ---------------------------------------------------------------------
                    Distance matrix (angstroms):
                    1          2          3          4          5
     1  C    0.000000
     2  C    1.554474   0.000000
     3  H    2.146942   1.083756   0.000000
     4  Cl   2.770974   1.782158   2.344891   0.000000
     5  Cl   2.770974   1.782158   2.344891   2.922766   0.000000
     6  Cl   1.776687   2.767680   3.700213   3.360796   3.360796
     7  Cl   1.792668   2.718285   2.848626   3.246475   4.360600
     8  Cl   1.792668   2.718285   2.848626   4.360600   3.246475
                    6          7          8
     6  Cl   0.000000
     7  Cl   2.921893   0.000000
     8  Cl   2.921893   2.899730   0.000000
 Stoichiometry    C2HCl5
 Framework group  CS[SG(C2HCl),X(Cl4)]
 Deg. of freedom    11
 Full point group                 CS      NOp   2
 Largest Abelian subgroup         CS      NOp   2
 Largest concise Abelian subgroup CS      NOp   2
                         Standard orientation:                         
 ---------------------------------------------------------------------
 Center     Atomic      Atomic             Coordinates (Angstroms)
 Number     Number       Type             X           Y           Z
 ---------------------------------------------------------------------
      1          6           0        0.092893   -0.612102    0.000000
      2          6           0       -0.700970    0.724375   -0.000000
      3          1           0       -1.756452    0.478441   -0.000000
      4         17           0       -0.383020    1.693579    1.461383
      5         17           0       -0.383020    1.693579   -1.461383
      6         17           0        1.850018   -0.349177    0.000000
      7         17           0       -0.383020   -1.552875    1.449865
      8         17           0       -0.383020   -1.552875   -1.449865
 ---------------------------------------------------------------------
 Rotational constants (GHZ):           1.1463443           0.9467174           0.7370072
 Basis read from rwf:  (5D, 7F)
 There are   164 symmetry adapted cartesian basis functions of A'  symmetry.
 There are   116 symmetry adapted cartesian basis functions of A"  symmetry.
 There are   141 symmetry adapted basis functions of A'  symmetry.
 There are   103 symmetry adapted basis functions of A"  symmetry.
   244 basis functions,   470 primitive gaussians,   280 cartesian basis functions
    49 alpha electrons       49 beta electrons
       nuclear repulsion energy       747.5418346362 Hartrees.
 NAtoms=    8 NActive=    8 NUniq=    6 SFac= 1.78D+00 NAtFMM=   60 NAOKFM=F Big=F
 Integral buffers will be    131072 words long.
 Raffenetti 2 integral format.
 Two-electron integral symmetry is turned on.
 One-electron integrals computed using PRISM.
 NBasis=   244 RedAO= T EigKep=  6.63D-04  NBF=   141   103
 NBsUse=   244 1.00D-06 EigRej= -1.00D+00 NBFU=   141   103
 Initial guess from the checkpoint file:  "/wrk/irikura/Gau-18027.chk"
 B after Tr=     0.000000   -0.000000   -0.000000
         Rot=    1.000000   -0.000000   -0.000000    0.000108 Ang=   0.01 deg.
 Initial guess orbital symmetries:
       Occupied  (A") (A') (A') (A') (A") (A') (A') (A") (A') (A')
                 (A") (A') (A") (A') (A') (A") (A') (A") (A') (A")
                 (A') (A') (A") (A") (A') (A") (A') (A') (A') (A")
                 (A') (A") (A') (A') (A') (A') (A") (A') (A") (A')
                 (A") (A') (A") (A') (A') (A") (A') (A") (A")
       Virtual   (A') (A") (A') (A') (A") (A') (A') (A') (A") (A')
                 (A') (A") (A') (A') (A') (A") (A') (A") (A') (A')
                 (A") (A') (A") (A') (A") (A') (A") (A") (A') (A')
                 (A') (A") (A') (A") (A') (A") (A') (A') (A") (A")
                 (A") (A') (A") (A') (A") (A") (A') (A") (A') (A')
                 (A") (A') (A') (A") (A') (A') (A") (A') (A") (A')
                 (A') (A") (A') (A") (A') (A') (A') (A") (A') (A')
                 (A') (A") (A') (A") (A') (A') (A') (A") (A') (A")
                 (A') (A") (A') (A") (A") (A') (A") (A') (A") (A')
                 (A") (A') (A") (A") (A') (A") (A") (A') (A") (A')
                 (A") (A') (A') (A") (A') (A') (A") (A") (A') (A')
                 (A") (A") (A") (A') (A') (A') (A") (A") (A') (A')
                 (A') (A") (A') (A') (A') (A') (A") (A") (A') (A')
                 (A") (A') (A") (A') (A') (A') (A") (A") (A') (A")
                 (A') (A") (A') (A") (A") (A') (A") (A') (A") (A')
                 (A") (A') (A') (A") (A') (A") (A') (A') (A") (A')
                 (A') (A') (A") (A') (A") (A') (A") (A") (A') (A')
                 (A") (A") (A') (A") (A') (A') (A") (A") (A') (A')
                 (A') (A") (A') (A') (A") (A') (A") (A') (A') (A')
                 (A") (A') (A') (A") (A')
 Keep R1 ints in memory in symmetry-blocked form, NReq=670331260.
 Requested convergence on RMS density matrix=1.00D-08 within 128 cycles.
 Requested convergence on MAX density matrix=1.00D-06.
 Requested convergence on             energy=1.00D-06.
 No special actions if energy rises.
 SCF Done:  E(RB3LYP) =  -2377.99876112     A.U. after    7 cycles
            NFock=  7  Conv=0.67D-08     -V/T= 2.0010
 Calling FoFJK, ICntrl=      2127 FMM=F ISym2X=1 I1Cent= 0 IOpClX= 0 NMat=1 NMatS=1 NMatT=0.
 ***** Axes restored to original set *****
 -------------------------------------------------------------------
 Center     Atomic                   Forces (Hartrees/Bohr)
 Number     Number              X              Y              Z
 -------------------------------------------------------------------
      1        6           0.000034469    0.000188721    0.000000000
      2        6           0.000073074   -0.000202882   -0.000000000
      3        1           0.000012445    0.000029816   -0.000000000
      4       17          -0.000009516    0.000038126    0.000040482
      5       17          -0.000009516    0.000038126   -0.000040482
      6       17          -0.000072261   -0.000012146    0.000000000
      7       17          -0.000014348   -0.000039880    0.000065282
      8       17          -0.000014348   -0.000039880   -0.000065282
 -------------------------------------------------------------------
 Cartesian Forces:  Max     0.000202882 RMS     0.000067144

 GradGradGradGradGradGradGradGradGradGradGradGradGradGradGradGradGradGrad
 Berny optimization.
 Using GEDIIS/GDIIS optimizer.
 FormGI is forming the generalized inverse of G from B-inverse, IUseBI=4.
 Internal  Forces:  Max     0.000117406 RMS     0.000039206
 Search for a local minimum.
 Step number   4 out of a maximum of   38
 All quantities printed in internal units (Hartrees-Bohrs-Radians)
 Mixed Optimization -- En-DIIS/RFO-DIIS
 Swapping is turned off.
 Update second derivatives using D2CorX and points    1    2    3    4
 DE= -1.38D-06 DEPred=-1.32D-06 R= 1.05D+00
 TightC=F SS=  1.41D+00  RLast= 3.52D-03 DXNew= 5.0454D-01 1.0566D-02
 Trust test= 1.05D+00 RLast= 3.52D-03 DXMaxT set to 3.00D-01
 ITU=  1  1  1  0
     Eigenvalues ---    0.00230   0.06152   0.06941   0.08369   0.09683
     Eigenvalues ---    0.15356   0.21943   0.23628   0.24180   0.24987
     Eigenvalues ---    0.25000   0.27396   0.27483   0.28034   0.28198
     Eigenvalues ---    0.30253   0.35682   0.38166
 En-DIIS/RFO-DIIS/Sim-DIIS IScMMF=       -3 using points:     4    3    2
 RFO step:  Lambda=-1.94492480D-07.
 DidBck=F Rises=F RFO-DIIS coefs:    1.08984   -0.09627    0.00643
 Iteration  1 RMS(Cart)=  0.00014515 RMS(Int)=  0.00000008
 Iteration  2 RMS(Cart)=  0.00000002 RMS(Int)=  0.00000008
 ClnCor:  largest displacement from symmetrization is 3.82D-11 for atom     5.
 Variable       Old X    -DE/DX   Delta X   Delta X   Delta X     New X
                                 (Linear)    (Quad)   (Total)
    R1        2.93753  -0.00012  -0.00007  -0.00049  -0.00055   2.93698
    R2        3.35745  -0.00007  -0.00007  -0.00024  -0.00031   3.35715
    R3        3.38765   0.00008  -0.00007   0.00035   0.00029   3.38794
    R4        3.38765   0.00008  -0.00007   0.00035   0.00029   3.38794
    R5        2.04800  -0.00002  -0.00004  -0.00005  -0.00009   2.04792
    R6        3.36779   0.00005  -0.00001   0.00023   0.00022   3.36801
    R7        3.36779   0.00005  -0.00001   0.00023   0.00022   3.36801
    A1        1.95826   0.00000   0.00016  -0.00006   0.00009   1.95835
    A2        1.89190   0.00000   0.00004  -0.00001   0.00004   1.89194
    A3        1.89190   0.00000   0.00004  -0.00001   0.00004   1.89194
    A4        1.91794  -0.00001  -0.00004  -0.00002  -0.00006   1.91789
    A5        1.91794  -0.00001  -0.00004  -0.00002  -0.00006   1.91789
    A6        1.88413   0.00000  -0.00018   0.00012  -0.00006   1.88408
    A7        1.87787   0.00002   0.00002   0.00017   0.00019   1.87806
    A8        1.95677   0.00003   0.00006   0.00010   0.00015   1.95692
    A9        1.95677   0.00003   0.00006   0.00010   0.00015   1.95692
   A10        1.87252  -0.00003  -0.00008  -0.00017  -0.00025   1.87227
   A11        1.87252  -0.00003  -0.00008  -0.00017  -0.00025   1.87227
   A12        1.92285  -0.00003   0.00001  -0.00005  -0.00004   1.92281
    D1        3.14159   0.00000   0.00000  -0.00000   0.00000   3.14159
    D2       -1.08676  -0.00001  -0.00005  -0.00004  -0.00009  -1.08685
    D3        1.08676   0.00001   0.00005   0.00004   0.00009   1.08685
    D4       -1.02045  -0.00000   0.00008  -0.00007   0.00001  -1.02043
    D5        1.03439  -0.00001   0.00003  -0.00011  -0.00008   1.03431
    D6       -3.07528   0.00000   0.00013  -0.00003   0.00011  -3.07517
    D7        1.02045   0.00000  -0.00008   0.00007  -0.00001   1.02043
    D8        3.07528  -0.00000  -0.00013   0.00003  -0.00011   3.07517
    D9       -1.03439   0.00001  -0.00003   0.00011   0.00008  -1.03431
         Item               Value     Threshold  Converged?
 Maximum Force            0.000117     0.000450     YES
 RMS     Force            0.000039     0.000300     YES
 Maximum Displacement     0.000301     0.001800     YES
 RMS     Displacement     0.000145     0.001200     YES
 Predicted change in Energy=-9.723001D-08
 Optimization completed.
    -- Stationary point found.
                           ----------------------------
                           !   Optimized Parameters   !
                           ! (Angstroms and Degrees)  !
 --------------------------                            --------------------------
 ! Name  Definition              Value          Derivative Info.                !
 --------------------------------------------------------------------------------
 ! R1    R(1,2)                  1.5545         -DE/DX =   -0.0001              !
 ! R2    R(1,6)                  1.7767         -DE/DX =   -0.0001              !
 ! R3    R(1,7)                  1.7927         -DE/DX =    0.0001              !
 ! R4    R(1,8)                  1.7927         -DE/DX =    0.0001              !
 ! R5    R(2,3)                  1.0838         -DE/DX =    0.0                 !
 ! R6    R(2,4)                  1.7822         -DE/DX =    0.0001              !
 ! R7    R(2,5)                  1.7822         -DE/DX =    0.0001              !
[...]
                                   17.78691 (Kcal/Mol)
 Warning -- explicit consideration of  10 degrees of freedom as
           vibrations may cause significant error
 Vibrational temperatures:    103.03   229.92   241.76   320.43   336.82
          (Kelvin)            397.11   458.51   465.72   572.75   826.62
                             1020.67  1056.48  1146.29  1153.73  1435.80
                             1767.95  1839.62  4528.24
 
 Zero-point correction=                           0.028345 (Hartree/Particle)
 Thermal correction to Energy=                    0.036398
 Thermal correction to Enthalpy=                  0.037342
 Thermal correction to Gibbs Free Energy=        -0.006290
 Sum of electronic and zero-point Energies=          -2377.970416
 Sum of electronic and thermal Energies=             -2377.962363
 Sum of electronic and thermal Enthalpies=           -2377.961419
 Sum of electronic and thermal Free Energies=        -2378.005051
 
                     E (Thermal)             CV                S
                      KCal/Mol        Cal/Mol-Kelvin    Cal/Mol-Kelvin
 Total                   22.840             26.447             91.831
 Electronic               0.000              0.000              0.000
 Translational            0.889              2.981             41.782
 Rotational               0.889              2.981             30.375
 Vibrational             21.063             20.486             19.674
 Vibration     1          0.598              1.968              4.109
 Vibration     2          0.622              1.892              2.552
 Vibration     3          0.625              1.882              2.457
 Vibration     4          0.648              1.806              1.937
 Vibration     5          0.654              1.789              1.847
 Vibration     6          0.678              1.718              1.558
 Vibration     7          0.705              1.638              1.317
 Vibration     8          0.708              1.628              1.291
 Vibration     9          0.764              1.474              0.970
 Vibration    10          0.931              1.086              0.496
                       Q            Log10(Q)             Ln(Q)
 Total Bot       0.781894D+03          2.893148          6.661719
 Total V=0       0.853180D+16         15.931041         36.682577
 Vib (Bot)       0.725549D-11        -11.139333        -25.649263
 Vib (Bot)    1  0.287934D+01          0.459293          1.057562
 Vib (Bot)    2  0.126515D+01          0.102142          0.235191
 Vib (Bot)    3  0.120012D+01          0.079226          0.182425
 Vib (Bot)    4  0.887144D+00         -0.052006         -0.119748
 Vib (Bot)    5  0.839824D+00         -0.075812         -0.174563
 Vib (Bot)    6  0.698051D+00         -0.156113         -0.359464
 Vib (Bot)    7  0.590346D+00         -0.228894         -0.527047
 Vib (Bot)    8  0.579463D+00         -0.236974         -0.545653
 Vib (Bot)    9  0.448369D+00         -0.348365         -0.802140
 Vib (Bot)   10  0.266678D+00         -0.574013         -1.321713
 Vib (V=0)       0.791698D+02          1.898559          4.371594
 Vib (V=0)    1  0.342243D+01          0.534335          1.230351
 Vib (V=0)    2  0.186037D+01          0.269599          0.620775
 Vib (V=0)    3  0.180011D+01          0.255300          0.587850
 Vib (V=0)    4  0.151834D+01          0.181370          0.417620
 Vib (V=0)    5  0.147740D+01          0.169497          0.390282
 Vib (V=0)    6  0.135865D+01          0.133107          0.306489
 Vib (V=0)    7  0.127363D+01          0.105044          0.241873
 Vib (V=0)    8  0.126536D+01          0.102214          0.235357
 Vib (V=0)    9  0.117159D+01          0.068776          0.158363
 Vib (V=0)   10  0.106667D+01          0.028031          0.064544
 Electronic      0.100000D+01          0.000000          0.000000
 Translational   0.111050D+09          8.045517         18.525487
 Rotational      0.970430D+06          5.986964         13.785495
 ***** Axes restored to original set *****
 -------------------------------------------------------------------
 Center     Atomic                   Forces (Hartrees/Bohr)
 Number     Number              X              Y              Z
 -------------------------------------------------------------------
      1        6           0.000034410    0.000188576    0.000000000
      2        6           0.000073030   -0.000202870    0.000000000
      3        1           0.000012430    0.000029815    0.000000000
      4       17          -0.000009502    0.000038153    0.000040517
      5       17          -0.000009502    0.000038153   -0.000040517
      6       17          -0.000072180   -0.000012118   -0.000000000
      7       17          -0.000014343   -0.000039855    0.000065273
      8       17          -0.000014343   -0.000039855   -0.000065273
 -------------------------------------------------------------------
 Cartesian Forces:  Max     0.000202870 RMS     0.000067119
 FormGI is forming the generalized inverse of G from B-inverse, IUseBI=4.

 GradGradGradGradGradGradGradGradGradGradGradGradGradGradGradGradGradGrad
 Berny optimization.
 Internal  Forces:  Max     0.000117333 RMS     0.000039193
 Search for a local minimum.
 Step number   1 out of a maximum of    2
 All quantities printed in internal units (Hartrees-Bohrs-Radians)
 Second derivative matrix not updated -- analytic derivatives used.
 ITU=  0
     Eigenvalues ---    0.00821   0.04898   0.07453   0.07738   0.08911
     Eigenvalues ---    0.12687   0.16284   0.16511   0.17652   0.17774
     Eigenvalues ---    0.20932   0.25297   0.26014   0.28103   0.29026
     Eigenvalues ---    0.30627   0.35033   0.39586
 Angle between quadratic step and forces=  18.86 degrees.
 Linear search not attempted -- first point.
 Iteration  1 RMS(Cart)=  0.00018861 RMS(Int)=  0.00000003
 Iteration  2 RMS(Cart)=  0.00000004 RMS(Int)=  0.00000001
 ClnCor:  largest displacement from symmetrization is 2.20D-11 for atom     5.
 Variable       Old X    -DE/DX   Delta X   Delta X   Delta X     New X
                                 (Linear)    (Quad)   (Total)
    R1        2.93753  -0.00012   0.00000  -0.00076  -0.00076   2.93677
    R2        3.35745  -0.00007   0.00000  -0.00055  -0.00055   3.35690
    R3        3.38765   0.00008   0.00000   0.00054   0.00054   3.38819
    R4        3.38765   0.00008   0.00000   0.00054   0.00054   3.38819
    R5        2.04800  -0.00002   0.00000  -0.00007  -0.00007   2.04793
    R6        3.36779   0.00005   0.00000   0.00035   0.00035   3.36814
    R7        3.36779   0.00005   0.00000   0.00035   0.00035   3.36814
    A1        1.95826   0.00000   0.00000   0.00020   0.00020   1.95846
    A2        1.89190   0.00000   0.00000  -0.00002  -0.00002   1.89188
    A3        1.89190   0.00000   0.00000  -0.00002  -0.00002   1.89188
    A4        1.91794  -0.00001   0.00000  -0.00001  -0.00001   1.91793
    A5        1.91794  -0.00001   0.00000  -0.00001  -0.00001   1.91793
    A6        1.88413   0.00000   0.00000  -0.00015  -0.00015   1.88399
    A7        1.87787   0.00002   0.00000   0.00035   0.00035   1.87822
    A8        1.95677   0.00003   0.00000   0.00016   0.00016   1.95693
    A9        1.95677   0.00003   0.00000   0.00016   0.00016   1.95693
   A10        1.87252  -0.00003   0.00000  -0.00027  -0.00027   1.87224
   A11        1.87252  -0.00003   0.00000  -0.00027  -0.00027   1.87224
   A12        1.92285  -0.00003   0.00000  -0.00016  -0.00016   1.92269
    D1        3.14159  -0.00000   0.00000   0.00000   0.00000   3.14159
    D2       -1.08676  -0.00001   0.00000  -0.00002  -0.00002  -1.08678
    D3        1.08676   0.00001   0.00000   0.00002   0.00002   1.08678
    D4       -1.02045  -0.00000   0.00000   0.00010   0.00010  -1.02035
    D5        1.03439  -0.00001   0.00000   0.00008   0.00008   1.03447
    D6       -3.07528   0.00000   0.00000   0.00012   0.00012  -3.07516
    D7        1.02045   0.00000   0.00000  -0.00010  -0.00010   1.02035
    D8        3.07528  -0.00000   0.00000  -0.00012  -0.00012   3.07516
    D9       -1.03439   0.00001   0.00000  -0.00008  -0.00008  -1.03447
         Item               Value     Threshold  Converged?
 Maximum Force            0.000117     0.000450     YES
 RMS     Force            0.000039     0.000300     YES
 Maximum Displacement     0.000450     0.001800     YES
 RMS     Displacement     0.000189     0.001200     YES
 Predicted change in Energy=-1.452270D-07
 Optimization completed.
    -- Stationary point found.
                           ----------------------------
                           !   Optimized Parameters   !
                           ! (Angstroms and Degrees)  !
 --------------------------                            --------------------------
 ! Name  Definition              Value          Derivative Info.                !
 --------------------------------------------------------------------------------
 ! R1    R(1,2)                  1.5545         -DE/DX =   -0.0001              !
 ! R2    R(1,6)                  1.7767         -DE/DX =   -0.0001              !
 ! R3    R(1,7)                  1.7927         -DE/DX =    0.0001              !
 ! R4    R(1,8)                  1.7927         -DE/DX =    0.0001              !
 ! R5    R(2,3)                  1.0838         -DE/DX =    0.0                 !
 ! R6    R(2,4)                  1.7822         -DE/DX =    0.0001              !
 ! R7    R(2,5)                  1.7822         -DE/DX =    0.0001              !
 ! A1    A(2,1,6)              112.1999         -DE/DX =    0.0                 !
 ! A2    A(2,1,7)              108.398          -DE/DX =    0.0                 !
 ! A3    A(2,1,8)              108.398          -DE/DX =    0.0                 !
 ! A4    A(6,1,7)              109.8901         -DE/DX =    0.0                 !
 ! A5    A(6,1,8)              109.8901         -DE/DX =    0.0                 !
 ! A6    A(7,1,8)              107.9529         -DE/DX =    0.0                 !
 ! A7    A(1,2,3)              107.5939         -DE/DX =    0.0                 !
 ! A8    A(1,2,4)              112.1145         -DE/DX =    0.0                 !
 ! A9    A(1,2,5)              112.1145         -DE/DX =    0.0                 !
 ! A10   A(3,2,4)              107.2874         -DE/DX =    0.0                 !
 ! A11   A(3,2,5)              107.2874         -DE/DX =    0.0                 !
 ! A12   A(4,2,5)              110.1711         -DE/DX =    0.0                 !
 ! D1    D(6,1,2,3)            180.0            -DE/DX =    0.0                 !
 ! D2    D(6,1,2,4)            -62.2666         -DE/DX =    0.0                 !
 ! D3    D(6,1,2,5)             62.2666         -DE/DX =    0.0                 !
 ! D4    D(7,1,2,3)            -58.4672         -DE/DX =    0.0                 !
 ! D5    D(7,1,2,4)             59.2662         -DE/DX =    0.0                 !
 ! D6    D(7,1,2,5)           -176.2006         -DE/DX =    0.0                 !
 ! D7    D(8,1,2,3)             58.4672         -DE/DX =    0.0                 !
 ! D8    D(8,1,2,4)            176.2006         -DE/DX =    0.0                 !
 ! D9    D(8,1,2,5)            -59.2662         -DE/DX =    0.0                 !
 --------------------------------------------------------------------------------
 GradGradGradGradGradGradGradGradGradGradGradGradGradGradGradGradGradGrad


 ----------------------------------------------------------------------

 Electric dipole moment (input orientation):
 (Debye = 10**-18 statcoulomb cm , SI units = C m)
                  (au)            (Debye)         (10**-30 SI)
   Tot        0.367236D+00      0.933420D+00      0.311356D+01
   x         -0.354074D+00     -0.899966D+00     -0.300196D+01
   y         -0.974361D-01     -0.247658D+00     -0.826098D+00
   z          0.000000D+00      0.000000D+00      0.000000D+00

 Dipole polarizability, Alpha (input orientation).
 (esu units = cm**3 , SI units = C**2 m**2 J**-1)
 Alpha(0;0):
               (au)            (10**-24 esu)      (10**-40 SI)
   iso        0.814889D+02      0.120754D+02      0.134357D+02
   aniso      0.193838D+02      0.287238D+01      0.319596D+01
   xx         0.710136D+02      0.105231D+02      0.117086D+02
   yx         0.324372D+01      0.480669D+00      0.534816D+00
   yy         0.810325D+02      0.120078D+02      0.133605D+02
   zx         0.000000D+00      0.000000D+00      0.000000D+00
   zy         0.000000D+00      0.000000D+00      0.000000D+00
   zz         0.924207D+02      0.136953D+02      0.152381D+02

 ----------------------------------------------------------------------

 Dipole orientation:
     6          0.30867538         -1.12169849          0.13563662
     6         -0.44243921          1.60778418          0.91975296
     1         -0.46246643          1.68056128          2.96636260
    17          1.79318724          3.89221789         -0.14107287
    17         -3.53208485          2.42677917         -0.14107287
    17          0.41288824         -1.50039862         -3.19876209
    17          3.34277821         -1.82088849          1.47037690
    17         -1.94052377         -3.27477763          1.47037690

 Electric dipole moment (dipole orientation):
 (Debye = 10**-18 statcoulomb cm , SI units = C m)
                  (au)            (Debye)         (10**-30 SI)
   Tot        0.367236D+00      0.933420D+00      0.311356D+01
   x          0.000000D+00      0.000000D+00      0.000000D+00
   y          0.000000D+00      0.000000D+00      0.000000D+00
   z          0.367236D+00      0.933420D+00      0.311356D+01

 Dipole polarizability, Alpha (dipole orientation).
 (esu units = cm**3 , SI units = C**2 m**2 J**-1)
 Alpha(0;0):
               (au)            (10**-24 esu)      (10**-40 SI)
   iso        0.814889D+02      0.120754D+02      0.134357D+02
   aniso      0.193838D+02      0.287238D+01      0.319596D+01
   xx         0.914525D+02      0.135519D+02      0.150785D+02
   yx         0.351822D+01      0.521346D+00      0.580075D+00
   yy         0.796358D+02      0.118008D+02      0.131302D+02
   zx         0.141948D+01      0.210345D+00      0.234040D+00
   zy        -0.515826D+01     -0.764375D+00     -0.850482D+00
   zz         0.733784D+02      0.108736D+02      0.120985D+02

 ----------------------------------------------------------------------
 1\1\GINC-GAMBA\Freq\RB3LYP\Gen\C2H1Cl5\IRIKURA\17-Jun-2022\0\\#N Geom=
 AllCheck Guess=TCheck SCRF=Check GenChk RB3LYP/ChkBas Freq\\pentachlor
 oethane, B3LYP/pcseg-2\\0,1\C,0.0941406427,-0.612621047,0.\C,-0.703397
 0936,0.7216668136,0.\H,-1.7581983832,0.4728289682,0.\Cl,-0.3881155258,
 1.6917416527,1.4613828579\Cl,-0.3881155258,1.6917416527,-1.4613828579\
 Cl,1.8505355813,-0.344861445,0.\Cl,-0.3791823478,-1.5547002976,1.44986
 52472\Cl,-0.3791823478,-1.5547002976,-1.4498652472\\Version=ES64L-G16R
 evB.01\State=1-A'\HF=-2377.9987611\RMSD=3.136e-09\RMSF=6.712e-05\ZeroP
 oint=0.0283452\Thermal=0.0363979\Dipole=-0.354074,-0.0974361,0.\Dipole
 Deriv=1.1059548,0.2474524,0.,0.3557303,0.6864981,0.,0.,0.,1.0917524,-0
 .0427304,0.0140053,0.,-0.094007,0.6559573,0.,0.,0.,1.0902609,0.0514201
 ,-0.0275598,0.,-0.0002205,-0.0412191,0.,0.,0.,-0.0542205,-0.0513616,0.
 0035834,-0.0518122,0.0203005,-0.2872845,-0.2585719,-0.0044857,-0.19812
 18,-0.5007777,-0.0513616,0.0035834,0.0518122,0.0203005,-0.2872845,0.25
 85719,0.0044857,0.1981218,-0.5007777,-0.656859,-0.1288632,0.,-0.101636
 3,-0.127862,0.,0.,0.,-0.0922702,-0.1775312,-0.0561007,0.1310765,-0.100
 2337,-0.2994026,0.2912607,0.1564127,0.2396637,-0.5169836,-0.1775312,-0
 .0561007,-0.1310765,-0.1002337,-0.2994026,-0.2912607,-0.1564127,-0.239
 6637,-0.5169836\Polar=71.0135682,3.2437152,81.0324969,0.,0.,92.4206698
 \Quadrupole=1.6173663,-1.4991768,-0.1181895,0.2558942,0.,0.\PG=CS [SG(
 C2H1Cl1),X(Cl4)]\NImag=0\\0.28138661,-0.03359923,0.29241401,0.,0.,0.24
 179148,-0.08723113,0.04237368,0.,0.52719056,0.03913817,-0.11371139,0.,
 0.04482101,0.32574279,0.,0.,-0.04171959,0.,0.,0.26408965,-0.01721301,-
 0.00152963,0.,-0.32410358,-0.05860060,0.,0.33585114,0.02677855,0.00282
 172,0.,-0.06458859,-0.05621536,0.,0.06067274,0.06925060,0.,0.,0.002812
 58,0.,0.,-0.03300127,0.,0.,0.05434480,0.00168780,0.00425724,0.00640290
 ,-0.04406533,-0.01342300,-0.01578155,0.00190311,-0.01368701,-0.0207893
 5,0.03374871,-0.00686226,-0.01595056,-0.02181506,-0.01446232,-0.063398
 31,-0.03405550,-0.00077237,-0.00674284,-0.01392602,0.01609581,0.089527
 69,-0.00226548,-0.01074131,-0.01329997,-0.02326685,-0.04831203,-0.0810
 0255,-0.00142182,-0.01096867,-0.01204399,0.02599388,0.07196880,0.14530
 898,0.00168780,0.00425724,-0.00640290,-0.04406533,-0.01342300,0.015781
 55,0.00190311,-0.01368701,0.02078935,0.00532371,0.00235520,-0.00074311
 ,0.03374871,-0.00686226,-0.01595056,0.02181506,-0.01446232,-0.06339831
 ,0.03405550,-0.00077237,-0.00674284,0.01392602,0.00235520,0.00862402,-
 0.00190216,0.01609581,0.08952769,0.00226548,0.01074131,-0.01329997,0.0
 2326685,0.04831203,-0.08100255,0.00142182,0.01096867,-0.01204399,0.000
 74311,0.00190216,-0.04271638,-0.02599388,-0.07196880,0.14530898,-0.112
 13990,0.00334546,0.,-0.03368780,-0.00423380,0.,-0.00091494,0.00449195,
 0.,-0.00015798,0.00116495,0.00049557,-0.00015798,0.00116495,-0.0004955
 7,0.19003033,-0.01235669,-0.03512559,0.,0.01747754,0.00381676,0.,0.001
 62464,-0.00287706,0.,0.00301584,-0.00047167,-0.00021276,0.00301584,-0.
 00047167,0.00021276,0.02147922,0.04079166,0.,0.,-0.03062353,0.,0.,0.00
 082399,0.,0.,0.00021373,0.00257245,-0.00063154,0.00065044,-0.00257245,
 0.00063154,0.00065044,0.,0.,0.03797432,-0.03408909,-0.00955238,0.01289
 073,0.00298131,0.00286061,-0.00358959,0.00128708,0.00000968,-0.0004988
 6,0.00103887,0.00046460,-0.00007292,0.00052111,0.00201639,-0.00128072,
 -0.02148586,-0.01712820,0.02140364,0.04379564,-0.00311814,-0.05724882,
 0.02724951,-0.00557950,-0.01641809,0.02392631,-0.00031121,0.00025290,0
 .00017261,-0.00007643,-0.00770397,0.00166458,0.00146236,-0.00388435,0.
 00149645,-0.01370637,-0.00283121,0.00878742,0.01987943,0.08077422,0.00
 850595,0.03846310,-0.07283050,0.00351430,0.01062227,-0.01409385,0.0000
 9494,-0.00023401,-0.00014093,0.00002826,-0.00182776,0.00253939,-0.0008
 3030,0.00161507,0.00056407,0.01711143,0.00861391,-0.00484470,-0.028638
 43,-0.06027473,0.13303720,-0.03408909,-0.00955238,-0.01289073,0.002981
 31,0.00286061,0.00358959,0.00128708,0.00000968,0.00049886,0.00052111,0
 .00201639,0.00128072,0.00103887,0.00046460,0.00007292,-0.02148586,-0.0
 1712820,-0.02140364,0.00595093,0.00144986,0.00021386,0.04379564,-0.003
 11814,-0.05724882,-0.02724951,-0.00557950,-0.01641809,-0.02392631,-0.0
 0031121,0.00025290,-0.00017261,0.00146236,-0.00388435,-0.00149645,-0.0
 0007643,-0.00770397,-0.00166458,-0.01370637,-0.00283121,-0.00878742,0.
 00144986,0.00705932,0.00302216,0.01987943,0.08077422,-0.00850595,-0.03
 846310,-0.07283050,-0.00351430,-0.01062227,-0.01409385,-0.00009494,0.0
 0023401,-0.00014093,0.00083030,-0.00161507,0.00056407,-0.00002826,0.00
 182776,0.00253939,-0.01711143,-0.00861391,-0.00484470,-0.00021386,-0.0
 0302216,-0.04423069,0.02863843,0.06027473,0.13303720\\-0.00003441,-0.0
 0018858,0.,-0.00007303,0.00020287,0.,-0.00001243,-0.00002982,0.,0.0000
 0950,-0.00003815,-0.00004052,0.00000950,-0.00003815,0.00004052,0.00007
 218,0.00001212,0.,0.00001434,0.00003985,-0.00006527,0.00001434,0.00003
 985,0.00006527\\\@


 IT IS A PROFOUNDLY ERRONEOUS TRUISM ... THAT WE SHOULD CULTIVATE
 THE HABIT OF THINKING OF WHAT WE ARE DOING.
 THE PRECISE OPPOSITE IS THE CASE.
 CIVILIZATION ADVANCES BY EXTENDING THE NUMBER OF IMPORTANT OPERATIONS
 WHICH WE CAN PERFORM WITHOUT THINKING ABOUT THEM.

                                    -- ALFRED NORTH WHITEHEAD
 Job cpu time:       0 days  0 hours 18 minutes 53.1 seconds.
 Elapsed time:       0 days  0 hours  1 minutes 34.6 seconds.
 File lengths (MBytes):  RWF=     60 Int=      0 D2E=      0 Chk=      6 Scr=      1
 Normal termination of Gaussian 16 at Fri Jun 17 16:21:15 2022.
