 Entering Gaussian System, Link 0=g16
 AtFile(1): pcseg2.gbs
            -H     0
            S   4   1.00
                  0.754732D+02           0.427821D-02
                  0.113575D+02           0.328672D-01
                  0.260081D+01           0.159578D+00
                  0.735503D+00           0.500000D+00
            S   1   1.00
                  0.231761D+00           1.0000000
            S   1   1.00
                  0.741675D-01           1.0000000
            P   1   1.00
                  0.160000D+01           1.0000000
            P   1   1.00
                  0.450000D+00           1.0000000
            D   1   1.00
                  0.125000D+01           1.0000000
            ****
            -C     0
            S   7   1.00
                  0.731999D+04           0.695369D-03
                  0.109818D+04           0.537138D-02
                  0.250014D+03           0.274734D-01
                  0.707586D+02           0.105078D+00
                  0.228595D+02           0.291262D+00
                  0.803936D+01           0.500000D+00
                  0.289309D+01           0.362224D+00
            S   2   1.00
                  0.521640D+01          -0.957844D-01
                  0.556124D+00           0.500000D+00
            S   1   1.00
                  0.228813D+00           1.0000000
            S   1   1.00
                  0.936338D-01           1.0000000
            P   4   1.00
                  0.339855D+02           0.818395D-02
                  0.772957D+01           0.586921D-01
                  0.224954D+01           0.222514D+00
                  0.767681D+00           0.500000D+00
            P   1   1.00
                  0.263283D+00           1.0000000
            P   1   1.00
                  0.848744D-01           1.0000000
            D   1   1.00
                  0.140000D+01           1.0000000
            D   1   1.00
                  0.450000D+00           1.0000000
            F   1   1.00
                  0.950000D+00           1.0000000
            ****
            -O     0
            S   7   1.00
                  0.135887D+05           0.665492D-03
                  0.203847D+04           0.514222D-02
                  0.464041D+03           0.263472D-01
                  0.131339D+03           0.101500D+00
                  0.425340D+02           0.285877D+00
                  0.150429D+02           0.500000D+00
                  0.546616D+01           0.368211D+00
            S   2   1.00
                  0.100915D+02          -0.100084D+00
                  0.110429D+01           0.500000D+00
            S   1   1.00
                  0.448082D+00           1.0000000
            S   1   1.00
                  0.175325D+00           1.0000000
            P   4   1.00
                  0.608220D+02           0.908253D-02
                  0.140332D+02           0.645878D-01
                  0.418244D+01           0.241502D+00
                  0.142490D+01           0.500000D+00
            P   1   1.00
                  0.478741D+00           1.0000000
            P   1   1.00
                  0.146257D+00           1.0000000
            D   1   1.00
                  0.220000D+01           1.0000000
            D   1   1.00
                  0.650000D+00           1.0000000
            F   1   1.00
                  0.110000D+01           1.0000000
            ****
            -N     0
            S   7   1.00
                  0.101643D+05           0.682757D-03
                  0.152481D+04           0.527488D-02
                  0.347119D+03           0.270037D-01
                  0.982389D+02           0.103673D+00
                  0.317799D+02           0.289575D+00
                  0.112240D+02           0.500000D+00
                  0.406611D+01           0.364621D+00
            S   2   1.00
                  0.747898D+01          -0.975681D-01
                  0.805040D+00           0.500000D+00
            S   1   1.00
                  0.324626D+00           1.0000000
            S   1   1.00
                  0.128132D+00           1.0000000
            P   4   1.00
                  0.482704D+02           0.829547D-02
                  0.110815D+02           0.596223D-01
                  0.326643D+01           0.227889D+00
                  0.111680D+01           0.500000D+00
            P   1   1.00
                  0.382049D+00           1.0000000
            P   1   1.00
                  0.121222D+00           1.0000000
            D   1   1.00
                  0.180000D+01           1.0000000
            D   1   1.00
                  0.550000D+00           1.0000000
            F   1   1.00
                  0.102000D+01           1.0000000
            ****
            -F     0
            S   7   1.00
                  0.174507D+05           0.655972D-03
                  0.261768D+04           0.506944D-02
                  0.595857D+03           0.259899D-01
                  0.168651D+03           0.100353D+00
                  0.546654D+02           0.284095D+00
                  0.193717D+02           0.500000D+00
                  0.706202D+01           0.370721D+00
            S   2   1.00
                  0.131197D+02          -0.101997D+00
                  0.145046D+01           0.500000D+00
            S   1   1.00
                  0.588255D+00           1.0000000
            S   1   1.00
                  0.227960D+00           1.0000000
            P   4   1.00
                  0.779407D+02           0.931135D-02
                  0.180425D+02           0.663964D-01
                  0.542342D+01           0.246386D+00
                  0.184876D+01           0.500000D+00
            P   1   1.00
                  0.617455D+00           1.0000000
            P   1   1.00
                  0.185496D+00           1.0000000
            D   1   1.00
                  0.280000D+01           1.0000000
            D   1   1.00
                  0.800000D+00           1.0000000
            F   1   1.00
                  0.120000D+01           1.0000000
            ****
            -Cl     0
            S   8   1.00
                  0.154272D+06           0.222473D-03
                  0.231232D+05           0.172590D-02
                  0.526257D+04           0.899286D-02
                  0.148995D+04           0.367724D-01
                  0.485417D+03           0.121446D+00
                  0.174634D+03           0.304148D+00
                  0.672393D+02           0.500000D+00
                  0.265780D+02           0.360252D+00
            S   3   1.00
                  0.131826D+03          -0.531330D-01
                  0.400703D+02          -0.233346D+00
                  0.789448D+01           0.500000D+00
            S   2   1.00
                  0.427711D+01           0.500000D+00
                  0.196233D+01           0.370517D+00
            S   1   1.00
                  0.520793D+00           1.0000000
            S   1   1.00
                  0.181633D+00           1.0000000
            P   7   1.00
                  0.124440D+04           0.988206D-03
                  0.295109D+03           0.829674D-02
                  0.947224D+02           0.430906D-01
                  0.352588D+02           0.148443D+00
                  0.144211D+02           0.344744D+00
                  0.610371D+01           0.500000D+00
                  0.258886D+01           0.348278D+00
            P   2   1.00
                  0.109447D+02          -0.196768D-01
                  0.104413D+01           0.500000D+00
            P   1   1.00
                  0.376184D+00           1.0000000
            P   1   1.00
                  0.120613D+00           1.0000000
            D   1   1.00
                  0.231000D+01           1.0000000
            D   1   1.00
                  0.520000D+00           1.0000000
            F   1   1.00
                  0.720000D+00           1.0000000
            ****
            -S     0
            S   8   1.00
                  0.134700D+06           0.226231D-03
                  0.201904D+05           0.175488D-02
                  0.459528D+04           0.914190D-02
                  0.130109D+04           0.373551D-01
                  0.423902D+03           0.123121D+00
                  0.152485D+03           0.306801D+00
                  0.586925D+02           0.500000D+00
                  0.231461D+02           0.354358D+00
            S   3   1.00
                  0.116327D+03          -0.491772D-01
                  0.352841D+02          -0.215962D+00
                  0.677831D+01           0.500000D+00
            S   2   1.00
                  0.360404D+01           0.500000D+00
                  0.164871D+01           0.366278D+00
            S   1   1.00
                  0.421821D+00           1.0000000
            S   1   1.00
                  0.147554D+00           1.0000000
            P   7   1.00
                  0.104863D+04           0.105273D-02
                  0.248717D+03           0.879338D-02
                  0.797887D+02           0.453358D-01
                  0.296023D+02           0.154476D+00
                  0.120627D+02           0.352366D+00
                  0.507628D+01           0.500000D+00
                  0.213375D+01           0.346429D+00
            P   2   1.00
                  0.928958D+01          -0.185932D-01
                  0.837819D+00           0.500000D+00
            P   1   1.00
                  0.301495D+00           1.0000000
            P   1   1.00
                  0.974740D-01           1.0000000
            D   1   1.00
                  0.210000D+01           1.0000000
            D   1   1.00
                  0.480000D+00           1.0000000
            F   1   1.00
                  0.660000D+00           1.0000000
            ****
            -Br     0
            S    10   1.00
                  0.233625D+07           0.532336D-04
                  0.349961D+06           0.413715D-03
                  0.796444D+05           0.217123D-02
                  0.225555D+05           0.910109D-02
                  0.735546D+04           0.323789D-01
                  0.265352D+04           0.988755D-01
                  0.103517D+04           0.248138D+00
                  0.422205D+03           0.474328D+00
                  0.180035D+03           0.500000D+00
                  0.793308D+02           0.187769D+00
            S    4   1.00
                  0.620834D+03          -0.226511D-01
                  0.190829D+03          -0.109497D+00
                  0.312505D+02           0.500000D+00
                  0.135270D+02           0.492812D+00
            S    2   1.00
                  0.216097D+02          -0.165418D+00
                  0.372566D+01           0.500000D+00
            S    1   1.00
                  0.169770D+01           1.0000000
            S    1   1.00
                  0.489332D+00           1.0000000
            S    1   1.00
                  0.175712D+00           1.0000000
            P    8   1.00
                  0.960829D+04           0.478974D-03
                  0.227618D+04           0.417853D-02
                  0.736723D+03           0.229315D-01
                  0.281579D+03           0.892653D-01
                  0.118395D+03           0.255288D+00
                  0.527481D+02           0.479074D+00
                  0.245098D+02           0.500000D+00
                  0.112009D+02           0.200944D+00
            P    4   1.00
                  0.587849D+02          -0.189674D-01
                  0.918962D+01           0.264104D+00
                  0.413895D+01           0.500000D+00
                  0.184225D+01           0.319316D+00
            P    1   1.00
                  0.713862D+00           1.0000000
            P    1   1.00
                  0.274232D+00           1.0000000
            P    1   1.00
                  0.944411D-01           1.0000000
            D    7   1.00
                  0.398470D+03           0.204066D-02
                  0.118967D+03           0.175171D-01
                  0.450197D+02           0.829708D-01
                  0.190320D+02           0.236284D+00
                  0.855686D+01           0.428468D+00
                  0.382950D+01           0.500000D+00
                  0.166291D+01           0.349360D+00
            D    1   1.00
                  0.672953D+00           1.0000000
            D    1   1.00
                  0.252000D+00           1.0000000
            F    1   1.00
                  0.530000D+00           1.0000000
            ****
            -Si     0
            S    8   1.00
                  0.996133D+05           0.235546D-03
                  0.149311D+05           0.182707D-02
                  0.339820D+04           0.951425D-02
                  0.962140D+03           0.388172D-01
                  0.313430D+03           0.127328D+00
                  0.112683D+03           0.313522D+00
                  0.433372D+02           0.500000D+00
                  0.170029D+02           0.340347D+00
            S    3   1.00
                  0.884208D+02          -0.404451D-01
                  0.266756D+02          -0.178059D+00
                  0.479640D+01           0.500000D+00
            S    2   1.00
                  0.239385D+01           0.500000D+00
                  0.108333D+01           0.338016D+00
            S    1   1.00
                  0.252420D+00           1.0000000
            S    1   1.00
                  0.891210D-01           1.0000000
            P    7   1.00
                  0.709901D+03           0.123028D-02
                  0.168426D+03           0.101366D-01
                  0.539946D+02           0.511840D-01
                  0.198646D+02           0.169967D+00
                  0.801369D+01           0.370717D+00
                  0.331870D+01           0.500000D+00
                  0.136112D+01           0.344128D+00
            P    2   1.00
                  0.622158D+01          -0.166609D-01
                  0.503049D+00           0.500000D+00
            P    1   1.00
                  0.179848D+00           1.0000000
            P    1   1.00
                  0.591912D-01           1.0000000
            D    1   1.00
                  0.168000D+01           1.0000000
            D    1   1.00
                  0.380000D+00           1.0000000
            F    1   1.00
                  0.540000D+00           1.0000000
            ****
            -P     0
            S    8   1.00
                  0.116416D+06           0.230715D-03
                  0.174500D+05           0.178960D-02
                  0.397149D+04           0.932116D-02
                  0.112447D+04           0.380591D-01
                  0.366347D+03           0.125148D+00
                  0.131757D+03           0.310022D+00
                  0.506988D+02           0.500000D+00
                  0.199436D+02           0.347528D+00
            S    3   1.00
                  0.101878D+03          -0.446755D-01
                  0.308249D+02          -0.196376D+00
                  0.573688D+01           0.500000D+00
            S    2   1.00
                  0.296868D+01           0.500000D+00
                  0.135315D+01           0.355098D+00
            S    1   1.00
                  0.332196D+00           1.0000000
            S    1   1.00
                  0.116229D+00           1.0000000
            P    7   1.00
                  0.873928D+03           0.112375D-02
                  0.207298D+03           0.933330D-02
                  0.664628D+02           0.477213D-01
                  0.245665D+02           0.160733D+00
                  0.996820D+01           0.359760D+00
                  0.416536D+01           0.500000D+00
                  0.173022D+01           0.346593D+00
            P    2   1.00
                  0.772530D+01          -0.175718D-01
                  0.657252D+00           0.500000D+00
            P    1   1.00
                  0.239903D+00           1.0000000
            P    1   1.00
                  0.800988D-01           1.0000000
            D    1   1.00
                  0.189000D+01           1.0000000
            D    1   1.00
                  0.430000D+00           1.0000000
            F    1   1.00
                  0.600000D+00           1.0000000
            ****
            
 Initial command:
 /usr/local/apps/g16_b01_avx/g16/l1.exe "/wrk/irikura/Gau-29114.inp" -scrdir="/wrk/irikura/"
 Entering Link 1 = /usr/local/apps/g16_b01_avx/g16/l1.exe PID=     29116.
  
 Copyright (c) 1988-2017, Gaussian, Inc.  All Rights Reserved.
  
 This is part of the Gaussian(R) 16 program.  It is based on
 the Gaussian(R) 09 system (copyright 2009, Gaussian, Inc.),
 the Gaussian(R) 03 system (copyright 2003, Gaussian, Inc.),
 the Gaussian(R) 98 system (copyright 1998, Gaussian, Inc.),
 the Gaussian(R) 94 system (copyright 1995, Gaussian, Inc.),
 the Gaussian 92(TM) system (copyright 1992, Gaussian, Inc.),
 the Gaussian 90(TM) system (copyright 1990, Gaussian, Inc.),
 the Gaussian 88(TM) system (copyright 1988, Gaussian, Inc.),
 the Gaussian 86(TM) system (copyright 1986, Carnegie Mellon
 University), and the Gaussian 82(TM) system (copyright 1983,
 Carnegie Mellon University). Gaussian is a federally registered
 trademark of Gaussian, Inc.
  
 This software contains proprietary and confidential information,
 including trade secrets, belonging to Gaussian, Inc.
  
 This software is provided under written license and may be
 used, copied, transmitted, or stored only in accord with that
 written license.
  
 The following legend is applicable only to US Government
 contracts under FAR:
  
                    RESTRICTED RIGHTS LEGEND
  
 Use, reproduction and disclosure by the US Government is
 subject to restrictions as set forth in subparagraphs (a)
 and (c) of the Commercial Computer Software - Restricted
 Rights clause in FAR 52.227-19.
  
 Gaussian, Inc.
 340 Quinnipiac St., Bldg. 40, Wallingford CT 06492
  
  
 ---------------------------------------------------------------
 Warning -- This program may not be used in any manner that
 competes with the business of Gaussian, Inc. or will provide
 assistance to any competitor of Gaussian, Inc.  The licensee
 of this program is prohibited from giving any competitor of
 Gaussian, Inc. access to this program.  By using this program,
 the user acknowledges that Gaussian, Inc. is engaged in the
 business of creating and licensing software in the field of
 computational chemistry and represents and warrants to the
 licensee that it is not a competitor of Gaussian, Inc. and that
 it will not use this program in any manner prohibited above.
 ---------------------------------------------------------------
  

 Cite this work as:
 Gaussian 16, Revision B.01,
 M. J. Frisch, G. W. Trucks, H. B. Schlegel, G. E. Scuseria, 
 M. A. Robb, J. R. Cheeseman, G. Scalmani, V. Barone, 
 G. A. Petersson, H. Nakatsuji, X. Li, M. Caricato, A. V. Marenich, 
 J. Bloino, B. G. Janesko, R. Gomperts, B. Mennucci, H. P. Hratchian, 
 J. V. Ortiz, A. F. Izmaylov, J. L. Sonnenberg, D. Williams-Young, 
 F. Ding, F. Lipparini, F. Egidi, J. Goings, B. Peng, A. Petrone, 
 T. Henderson, D. Ranasinghe, V. G. Zakrzewski, J. Gao, N. Rega, 
 G. Zheng, W. Liang, M. Hada, M. Ehara, K. Toyota, R. Fukuda, 
 J. Hasegawa, M. Ishida, T. Nakajima, Y. Honda, O. Kitao, H. Nakai, 
 T. Vreven, K. Throssell, J. A. Montgomery, Jr., J. E. Peralta, 
 F. Ogliaro, M. J. Bearpark, J. J. Heyd, E. N. Brothers, K. N. Kudin, 
 V. N. Staroverov, T. A. Keith, R. Kobayashi, J. Normand, 
 K. Raghavachari, A. P. Rendell, J. C. Burant, S. S. Iyengar, 
 J. Tomasi, M. Cossi, J. M. Millam, M. Klene, C. Adamo, R. Cammi, 
 J. W. Ochterski, R. L. Martin, K. Morokuma, O. Farkas, 
 J. B. Foresman, and D. J. Fox, Gaussian, Inc., Wallingford CT, 2016.
 
 ******************************************
 Gaussian 16:  ES64L-G16RevB.01 20-Dec-2017
                16-Jun-2022 
 ******************************************
 %mem=1000mw
 %nprocs=12
 Will use up to   12 processors via shared memory.
 --------------------
 # b3lyp/gen opt freq
 --------------------
 1/18=20,19=15,26=3,38=1/1,3;
 2/9=110,12=2,17=6,18=5,40=1/2;
 3/5=7,11=2,25=1,30=1,71=1,74=-5/1,2,3;
 4//1;
 5/5=2,38=5/2;
 6/7=2,8=2,9=2,10=2,28=1/1;
 7//1,2,3,16;
 1/18=20,19=15,26=3/3(2);
 2/9=110/2;
 99//99;
 2/9=110/2;
 3/5=7,6=1,11=2,25=1,30=1,71=1,74=-5,82=7/1,2,3;
 4/5=5,16=3,69=1/1;
 5/5=2,38=5/2;
 7//1,2,3,16;
 1/18=20,19=15,26=3/3(-5);
 2/9=110/2;
 6/7=2,8=2,9=2,10=2,19=2,28=1/1;
 99/9=1/99;
 --------------------------
 oxalic acid, B3LYP/pcseg-2
 --------------------------
 Symbolic Z-matrix:
 Charge =  0 Multiplicity = 1
 C                    -0.05461   0.77134   0. 
 C                     0.05461  -0.77134   0. 
 O                     1.12368   1.3765    0. 
 O                    -1.12368  -1.3765    0. 
 O                    -1.12368   1.32203   0. 
 O                     1.12368  -1.32203   0. 
 H                     1.81269   0.68685   0. 
 H                    -1.81269  -0.68685   0. 
 

 GradGradGradGradGradGradGradGradGradGradGradGradGradGradGradGradGradGrad
 Berny optimization.
 Initialization pass.
                           ----------------------------
                           !    Initial Parameters    !
                           ! (Angstroms and Degrees)  !
 --------------------------                            --------------------------
 ! Name  Definition              Value          Derivative Info.                !
 --------------------------------------------------------------------------------
 ! R1    R(1,2)                  1.5465         estimate D2E/DX2                !
 ! R2    R(1,3)                  1.3246         estimate D2E/DX2                !
 ! R3    R(1,5)                  1.2026         estimate D2E/DX2                !
 ! R4    R(2,4)                  1.3246         estimate D2E/DX2                !
 ! R5    R(2,6)                  1.2026         estimate D2E/DX2                !
 ! R6    R(3,7)                  0.9749         estimate D2E/DX2                !
 ! R7    R(4,8)                  0.9749         estimate D2E/DX2                !
 ! A1    A(2,1,3)              113.1347         estimate D2E/DX2                !
 ! A2    A(2,1,5)              121.3036         estimate D2E/DX2                !
 ! A3    A(3,1,5)              125.5617         estimate D2E/DX2                !
 ! A4    A(1,2,4)              113.1347         estimate D2E/DX2                !
 ! A5    A(1,2,6)              121.3036         estimate D2E/DX2                !
 ! A6    A(4,2,6)              125.5617         estimate D2E/DX2                !
 ! A7    A(1,3,7)              107.789          estimate D2E/DX2                !
 ! A8    A(2,4,8)              107.789          estimate D2E/DX2                !
 ! D1    D(3,1,2,4)            180.0            estimate D2E/DX2                !
 ! D2    D(3,1,2,6)              0.0            estimate D2E/DX2                !
 ! D3    D(5,1,2,4)              0.0            estimate D2E/DX2                !
 ! D4    D(5,1,2,6)            180.0            estimate D2E/DX2                !
 ! D5    D(2,1,3,7)              0.0            estimate D2E/DX2                !
 ! D6    D(5,1,3,7)            180.0            estimate D2E/DX2                !
 ! D7    D(1,2,4,8)              0.0            estimate D2E/DX2                !
 ! D8    D(6,2,4,8)            180.0            estimate D2E/DX2                !
 --------------------------------------------------------------------------------
 Trust Radius=3.00D-01 FncErr=1.00D-07 GrdErr=1.00D-06 EigMax=2.50D+02 EigMin=1.00D-04
 Number of steps in this run=     33 maximum allowed number of steps=    100.
 GradGradGradGradGradGradGradGradGradGradGradGradGradGradGradGradGradGrad

                          Input orientation:                          
 ---------------------------------------------------------------------
 Center     Atomic      Atomic             Coordinates (Angstroms)
 Number     Number       Type             X           Y           Z
 ---------------------------------------------------------------------
      1          6           0       -0.054613    0.771339    0.000000
      2          6           0        0.054613   -0.771339    0.000000
      3          8           0        1.123678    1.376499    0.000000
      4          8           0       -1.123678   -1.376499    0.000000
      5          8           0       -1.123678    1.322031    0.000000
      6          8           0        1.123678   -1.322031    0.000000
      7          1           0        1.812691    0.686851    0.000000
      8          1           0       -1.812691   -0.686851    0.000000
 ---------------------------------------------------------------------
                    Distance matrix (angstroms):
                    1          2          3          4          5
     1  C    0.000000
     2  C    1.546540   0.000000
     3  O    1.324609   2.399189   0.000000
     4  O    2.399189   1.324609   3.553816   0.000000
     5  O    1.202565   2.402201   2.248016   2.698530   0.000000
     6  O    2.402201   1.202565   2.698530   2.248016   3.470111
     7  H    1.869214   2.284110   0.974861   3.588827   3.004283
     8  H    2.284110   1.869214   3.588827   0.974861   2.123757
                    6          7          8
     6  O    0.000000
     7  H    2.123757   0.000000
     8  H    3.004283   3.876913   0.000000
 Stoichiometry    C2H2O4
 Framework group  C2H[SGH(C2H2O4)]
 Deg. of freedom     7
 Full point group                 C2H     NOp   4
 Largest Abelian subgroup         C2H     NOp   4
 Largest concise Abelian subgroup C2      NOp   2
                         Standard orientation:                         
 ---------------------------------------------------------------------
 Center     Atomic      Atomic             Coordinates (Angstroms)
 Number     Number       Type             X           Y           Z
 ---------------------------------------------------------------------
      1          6           0       -0.054613    0.771339    0.000000
      2          6           0        0.054613   -0.771339    0.000000
      3          8           0        1.123678    1.376499    0.000000
      4          8           0       -1.123678   -1.376499    0.000000
      5          8           0       -1.123678    1.322031    0.000000
      6          8           0        1.123678   -1.322031    0.000000
      7          1           0        1.812691    0.686851    0.000000
      8          1           0       -1.812691   -0.686851    0.000000
 ---------------------------------------------------------------------
 Rotational constants (GHZ):           5.7949303           3.8279992           2.3052220
 General basis read from cards:  (5D, 7F)
 There are    83 symmetry adapted cartesian basis functions of AG  symmetry.
 There are    37 symmetry adapted cartesian basis functions of BG  symmetry.
 There are    37 symmetry adapted cartesian basis functions of AU  symmetry.
 There are    83 symmetry adapted cartesian basis functions of BU  symmetry.
 There are    70 symmetry adapted basis functions of AG  symmetry.
 There are    34 symmetry adapted basis functions of BG  symmetry.
 There are    34 symmetry adapted basis functions of AU  symmetry.
 There are    70 symmetry adapted basis functions of BU  symmetry.
   208 basis functions,   342 primitive gaussians,   240 cartesian basis functions
    23 alpha electrons       23 beta electrons
       nuclear repulsion energy       233.9198694711 Hartrees.
 NAtoms=    8 NActive=    8 NUniq=    4 SFac= 4.00D+00 NAtFMM=   60 NAOKFM=F Big=F
 Integral buffers will be    131072 words long.
 Raffenetti 2 integral format.
 Two-electron integral symmetry is turned on.
 One-electron integrals computed using PRISM.
 NBasis=   208 RedAO= T EigKep=  4.98D-04  NBF=    70    34    34    70
 NBsUse=   208 1.00D-06 EigRej= -1.00D+00 NBFU=    70    34    34    70
 ExpMin= 7.42D-02 ExpMax= 1.36D+04 ExpMxC= 4.64D+02 IAcc=3 IRadAn=         5 AccDes= 0.00D+00
 Harris functional with IExCor=  402 and IRadAn=       5 diagonalized for initial guess.
 HarFok:  IExCor=  402 AccDes= 0.00D+00 IRadAn=         5 IDoV= 1 UseB2=F ITyADJ=14
 ICtDFT=  3500011 ScaDFX=  1.000000  1.000000  1.000000  1.000000
 FoFCou: FMM=F IPFlag=           0 FMFlag=      100000 FMFlg1=           0
         NFxFlg=           0 DoJE=T BraDBF=F KetDBF=T FulRan=T
         wScrn=  0.000000 ICntrl=       500 IOpCl=  0 I1Cent=   200000004 NGrid=           0
         NMat0=    1 NMatS0=      1 NMatT0=    0 NMatD0=    1 NMtDS0=    0 NMtDT0=    0
 Petite list used in FoFCou.
 Initial guess orbital symmetries:
       Occupied  (BU) (AG) (BU) (AG) (AG) (BU) (AG) (BU) (BU) (AG)
                 (AG) (BU) (AG) (BU) (AG) (AU) (BU) (BG) (AG) (BU)
                 (BG) (AU) (AG)
       Virtual   (AU) (AG) (BG) (BU) (BU) (AG) (AU) (BU) (AG) (BU)
                 (AG) (BG) (BU) (AG) (BU) (AG) (BG) (BU) (BU) (BU)
                 (BU) (AU) (AG) (AU) (AG) (AG) (BG) (AG) (BU) (BU)
                 (AG) (AG) (AU) (BU) (AG) (BG) (BU) (AG) (BG) (BU)
                 (AU) (AG) (AU) (AG) (BU) (BG) (BU) (AU) (BU) (BG)
                 (AG) (BU) (AG) (AG) (AU) (BU) (AG) (BU) (BG) (BU)
                 (AG) (AU) (BG) (AG) (BU) (BU) (BG) (AU) (AG) (BU)
                 (AG) (BU) (AU) (BG) (AG) (BU) (AG) (AG) (BG) (BU)
                 (AU) (BG) (AU) (AG) (BU) (BU) (AG) (AG) (AG) (BU)
                 (AU) (BU) (BG) (AG) (BU) (AU) (AG) (BU) (AG) (BG)
                 (AU) (AG) (BG) (AU) (BU) (BG) (BU) (AU) (AG) (BU)
                 (BG) (BU) (BU) (AG) (AU) (AG) (BG) (AG) (BU) (AU)
                 (BG) (AG) (AU) (BU) (BG) (AG) (BU) (BU) (AG) (BU)
                 (AU) (BG) (AU) (AG) (BG) (BU) (AG) (AG) (BU) (AU)
                 (AG) (BG) (BU) (AG) (BU) (AG) (AU) (AG) (BU) (BG)
                 (BU) (BG) (AU) (AG) (BU) (AU) (BG) (BU) (BU) (AU)
                 (AG) (BG) (AU) (BG) (AG) (BU) (AG) (AU) (BG) (BG)
                 (AG) (BU) (AG) (AU) (BU) (BU) (AG) (AG) (BU) (AG)
                 (BU) (AG) (BU) (AG) (BU)
 The electronic state of the initial guess is 1-AG.
 Keep R1 ints in memory in symmetry-blocked form, NReq=296266819.
 Requested convergence on RMS density matrix=1.00D-08 within 128 cycles.
 Requested convergence on MAX density matrix=1.00D-06.
 Requested convergence on             energy=1.00D-06.
 No special actions if energy rises.
 Integral accuracy reduced to 1.0D-05 until final iterations.
 Initial convergence to 1.0D-05 achieved.  Increase integral accuracy.
 SCF Done:  E(RB3LYP) =  -378.497796750     A.U. after   12 cycles
            NFock= 12  Conv=0.66D-08     -V/T= 2.0030

 **********************************************************************

            Population analysis using the SCF Density.

 **********************************************************************

 Orbital symmetries:
       Occupied  (AG) (BU) (BU) (AG) (AG) (BU) (AG) (BU) (BU) (AG)
                 (AG) (BU) (AG) (AU) (BU) (AG) (BU) (BG) (AG) (BU)
                 (BG) (AU) (AG)
       Virtual   (AU) (AG) (BU) (BG) (BU) (AG) (AU) (BU) (AG) (BG)
                 (BU) (AG) (AG) (BU) (BU) (AG) (BG) (BU) (BU) (BU)
                 (AU) (BU) (AG) (AU) (AG) (AG) (BU) (BG) (AG) (BU)
                 (AG) (AU) (AG) (BU) (BG) (AG) (BU) (BG) (AG) (BU)
                 (AU) (AG) (AU) (AG) (BU) (BG) (BU) (AU) (BU) (BG)
                 (AG) (BU) (AG) (AG) (BU) (AU) (AG) (BU) (BG) (BU)
                 (AG) (AU) (BG) (AG) (BU) (BU) (BG) (AU) (AG) (AG)
                 (BU) (BG) (BU) (AU) (AG) (BU) (AG) (AG) (BG) (BU)
                 (AU) (BG) (AU) (AG) (BU) (BU) (AG) (AG) (AU) (AG)
                 (BU) (BU) (BG) (AG) (BU) (AU) (AG) (BU) (AG) (BG)
                 (AU) (AG) (BG) (AU) (BU) (BG) (BU) (AU) (AG) (BU)
                 (BG) (BU) (BU) (AG) (AU) (BG) (AG) (AU) (BU) (AG)
                 (BG) (AU) (AG) (BU) (BG) (BU) (AG) (BU) (AU) (AG)
                 (BG) (BU) (AG) (AU) (BG) (BU) (AG) (AG) (BU) (AU)
                 (AG) (BG) (BU) (AG) (BU) (AG) (AU) (AG) (BU) (BG)
                 (BU) (BG) (AU) (AG) (BU) (BG) (AU) (AU) (BU) (BU)
                 (BG) (AG) (BG) (AU) (AG) (BU) (AG) (AU) (AG) (BG)
                 (BG) (BU) (AG) (AU) (BU) (BU) (AG) (AG) (BU) (AG)
                 (BU) (BU) (AG) (AG) (BU)
 The electronic state is 1-AG.
 Alpha  occ. eigenvalues --  -19.21540 -19.21540 -19.16547 -19.16547 -10.35538
 Alpha  occ. eigenvalues --  -10.35518  -1.17157  -1.14053  -1.09011  -1.06750
 Alpha  occ. eigenvalues --   -0.71505  -0.65663  -0.65092  -0.52458  -0.51667
 Alpha  occ. eigenvalues --   -0.49479  -0.48623  -0.46840  -0.41635  -0.38386
 Alpha  occ. eigenvalues --   -0.37908  -0.36881  -0.31277
 Alpha virt. eigenvalues --   -0.10005  -0.00518   0.02577   0.04377   0.09548
 Alpha virt. eigenvalues --    0.11752   0.13126   0.17607   0.18267   0.19996
 Alpha virt. eigenvalues --    0.20035   0.20050   0.24032   0.24397   0.27231
 Alpha virt. eigenvalues --    0.30323   0.30914   0.31504   0.33171   0.37180
 Alpha virt. eigenvalues --    0.40143   0.42761   0.42846   0.44595   0.44986
 Alpha virt. eigenvalues --    0.46261   0.53806   0.53921   0.55601   0.59203
 Alpha virt. eigenvalues --    0.64211   0.66135   0.67226   0.72659   0.78591
 Alpha virt. eigenvalues --    0.79381   0.81763   0.87508   0.88887   0.90722
 Alpha virt. eigenvalues --    0.91907   1.01993   1.08726   1.10211   1.12205
 Alpha virt. eigenvalues --    1.14696   1.15483   1.15503   1.24999   1.28716
 Alpha virt. eigenvalues --    1.30926   1.36126   1.40717   1.42506   1.45450
 Alpha virt. eigenvalues --    1.47564   1.52014   1.64771   1.65147   1.67033
 Alpha virt. eigenvalues --    1.69566   1.72050   1.76846   1.78077   1.82109
 Alpha virt. eigenvalues --    1.85294   1.86327   1.88148   1.93830   1.97139
 Alpha virt. eigenvalues --    1.97580   2.05461   2.06543   2.06874   2.07477
 Alpha virt. eigenvalues --    2.15045   2.18882   2.25254   2.27813   2.36076
 Alpha virt. eigenvalues --    2.38727   2.44669   2.59310   2.60084   2.71287
 Alpha virt. eigenvalues --    2.79273   2.79664   2.97537   2.98750   3.02698
 Alpha virt. eigenvalues --    3.03360   3.15558   3.20476   3.24176   3.32033
 Alpha virt. eigenvalues --    3.32522   3.36788   3.45946   3.51116   3.56257
 Alpha virt. eigenvalues --    3.56546   3.61316   3.61968   3.62182   3.63736
 Alpha virt. eigenvalues --    3.72094   3.73354   3.81277   3.85697   3.86014
 Alpha virt. eigenvalues --    3.88154   3.90292   3.91402   3.91905   3.95941
 Alpha virt. eigenvalues --    3.96382   3.97542   4.06257   4.08405   4.08561
 Alpha virt. eigenvalues --    4.12975   4.19981   4.20592   4.22383   4.24451
 Alpha virt. eigenvalues --    4.30633   4.32458   4.39000   4.42019   4.42840
 Alpha virt. eigenvalues --    4.43164   4.43653   4.49463   4.50023   4.54039
 Alpha virt. eigenvalues --    4.56975   4.59654   4.69271   4.75753   4.79517
 Alpha virt. eigenvalues --    4.86365   4.88995   4.91853   4.93359   4.96352
 Alpha virt. eigenvalues --    5.02710   5.11806   5.16658   5.23418   5.30324
 Alpha virt. eigenvalues --    5.39716   5.51803   5.58145   5.60283   5.87600
 Alpha virt. eigenvalues --    6.00833   6.01527   6.03828   6.04367   6.07796
 Alpha virt. eigenvalues --    6.08810   6.09086   6.17212   6.17299   6.23354
 Alpha virt. eigenvalues --    6.26925   6.32185   6.37190   6.40625   6.42400
 Alpha virt. eigenvalues --    6.43853   6.48103   6.53971   6.55617   6.59001
 Alpha virt. eigenvalues --    6.70768   6.80753   6.84689   7.00346   7.10196
 Alpha virt. eigenvalues --    7.23448   7.32782   7.33510   7.49625   7.87571
          Condensed to atoms (all electrons):
               1          2          3          4          5          6
     1  C    4.457295   0.356617   0.320068  -0.063688   0.554847  -0.058424
     2  C    0.356617   4.457295  -0.063688   0.320068  -0.058424   0.554847
     3  O    0.320068  -0.063688   7.808030   0.004147  -0.083387  -0.013894
     4  O   -0.063688   0.320068   0.004147   7.808030  -0.013894  -0.083387
     5  O    0.554847  -0.058424  -0.083387  -0.013894   7.968742   0.003792
     6  O   -0.058424   0.554847  -0.013894  -0.083387   0.003792   7.968742
     7  H   -0.016114  -0.015575   0.315666   0.002137   0.004371   0.032384
     8  H   -0.015575  -0.016114   0.002137   0.315666   0.032384   0.004371
               7          8
     1  C   -0.016114  -0.015575
     2  C   -0.015575  -0.016114
     3  O    0.315666   0.002137
     4  O    0.002137   0.315666
     5  O    0.004371   0.032384
     6  O    0.032384   0.004371
     7  H    0.444782  -0.000189
     8  H   -0.000189   0.444782
 Mulliken charges:
               1
     1  C    0.464973
     2  C    0.464973
     3  O   -0.289079
     4  O   -0.289079
     5  O   -0.408432
     6  O   -0.408432
     7  H    0.232538
     8  H    0.232538
 Sum of Mulliken charges =   0.00000
 Mulliken charges with hydrogens summed into heavy atoms:
               1
     1  C    0.464973
     2  C    0.464973
     3  O   -0.056541
     4  O   -0.056541
     5  O   -0.408432
     6  O   -0.408432
 Electronic spatial extent (au):  <R**2>=            483.5229
 Charge=             -0.0000 electrons
 Dipole moment (field-independent basis, Debye):
    X=              0.0000    Y=              0.0000    Z=              0.0000  Tot=              0.0000
 Quadrupole moment (field-independent basis, Debye-Ang):
   XX=            -30.9738   YY=            -42.8516   ZZ=            -31.9628
   XY=              3.9594   XZ=              0.0000   YZ=              0.0000
 Traceless Quadrupole moment (field-independent basis, Debye-Ang):
   XX=              4.2889   YY=             -7.5888   ZZ=              3.2999
   XY=              3.9594   XZ=              0.0000   YZ=              0.0000
 Octapole moment (field-independent basis, Debye-Ang**2):
  XXX=              0.0000  YYY=             -0.0000  ZZZ=              0.0000  XYY=              0.0000
  XXY=             -0.0000  XXZ=              0.0000  XZZ=              0.0000  YZZ=             -0.0000
  YYZ=              0.0000  XYZ=              0.0000
 Hexadecapole moment (field-independent basis, Debye-Ang**3):
 XXXX=           -182.6034 YYYY=           -339.8307 ZZZZ=            -27.1303 XXXY=             13.3513
 XXXZ=              0.0000 YYYX=             -4.4835 YYYZ=              0.0000 ZZZX=              0.0000
 ZZZY=              0.0000 XXYY=           -102.7512 XXZZ=            -41.1461 YYZZ=            -56.2137
 XXYZ=              0.0000 YYXZ=              0.0000 ZZXY=             -1.9680
 N-N= 2.339198694711D+02 E-N=-1.358878260443D+03  KE= 3.773830662971D+02
 Symmetry AG   KE= 1.823639486869D+02
 Symmetry BG   KE= 8.631413875741D+00
 Symmetry AU   KE= 8.155207638204D+00
 Symmetry BU   KE= 1.782324960963D+02
 Calling FoFJK, ICntrl=      2127 FMM=F ISym2X=1 I1Cent= 0 IOpClX= 0 NMat=1 NMatS=1 NMatT=0.
 ***** Axes restored to original set *****
 -------------------------------------------------------------------
 Center     Atomic                   Forces (Hartrees/Bohr)
 Number     Number              X              Y              Z
 -------------------------------------------------------------------
      1        6          -0.000754991    0.000160171   -0.000000000
      2        6           0.000754991   -0.000160171   -0.000000000
      3        8          -0.001007145    0.000012215   -0.000000000
      4        8           0.001007145   -0.000012215   -0.000000000
      5        8           0.003507967   -0.000866815   -0.000000000
      6        8          -0.003507967    0.000866815   -0.000000000
      7        1          -0.001200491    0.000477471   -0.000000000
      8        1           0.001200491   -0.000477471   -0.000000000
 -------------------------------------------------------------------
 Cartesian Forces:  Max     0.003507967 RMS     0.001166780

 GradGradGradGradGradGradGradGradGradGradGradGradGradGradGradGradGradGrad
 Berny optimization.
 FormGI is forming the generalized inverse of G from B-inverse, IUseBI=4.
 Internal  Forces:  Max     0.003515488 RMS     0.001367213
 Search for a local minimum.
 Step number   1 out of a maximum of   33
 All quantities printed in internal units (Hartrees-Bohrs-Radians)
 Mixed Optimization -- RFO/linear search
 Second derivative matrix not updated -- first step.
 ITU=  0
     Eigenvalues ---    0.00230   0.01104   0.01104   0.02689   0.02689
     Eigenvalues ---    0.16000   0.16000   0.25000   0.25000   0.25000
     Eigenvalues ---    0.25000   0.27947   0.52396   0.52396   0.60797
     Eigenvalues ---    0.60797   1.03545   1.03545
 RFO step:  Lambda=-8.07801821D-05 EMin= 2.30000000D-03
 Linear search not attempted -- first point.
 Iteration  1 RMS(Cart)=  0.00442767 RMS(Int)=  0.00000647
 Iteration  2 RMS(Cart)=  0.00000743 RMS(Int)=  0.00000000
 Iteration  3 RMS(Cart)=  0.00000000 RMS(Int)=  0.00000000
 ClnCor:  largest displacement from symmetrization is 2.92D-13 for atom     6.
 Variable       Old X    -DE/DX   Delta X   Delta X   Delta X     New X
                                 (Linear)    (Quad)   (Total)
    R1        2.92254  -0.00025   0.00000  -0.00091  -0.00091   2.92162
    R2        2.50315  -0.00174   0.00000  -0.00286  -0.00286   2.50029
    R3        2.27252  -0.00352   0.00000  -0.00339  -0.00339   2.26912
    R4        2.50315  -0.00174   0.00000  -0.00286  -0.00286   2.50029
    R5        2.27252  -0.00352   0.00000  -0.00339  -0.00339   2.26912
    R6        1.84222  -0.00119   0.00000  -0.00226  -0.00226   1.83996
    R7        1.84222  -0.00119   0.00000  -0.00226  -0.00226   1.83996
    A1        1.97457   0.00115   0.00000   0.00459   0.00459   1.97916
    A2        2.11715   0.00038   0.00000   0.00150   0.00150   2.11865
    A3        2.19146  -0.00152   0.00000  -0.00609  -0.00609   2.18537
    A4        1.97457   0.00115   0.00000   0.00459   0.00459   1.97916
    A5        2.11715   0.00038   0.00000   0.00150   0.00150   2.11865
    A6        2.19146  -0.00152   0.00000  -0.00609  -0.00609   2.18537
    A7        1.88127  -0.00094   0.00000  -0.00589  -0.00589   1.87538
    A8        1.88127  -0.00094   0.00000  -0.00589  -0.00589   1.87538
    D1        3.14159  -0.00000   0.00000  -0.00000   0.00000   3.14159
    D2        0.00000   0.00000   0.00000  -0.00000   0.00000   0.00000
    D3        0.00000  -0.00000   0.00000  -0.00000   0.00000   0.00000
    D4        3.14159   0.00000   0.00000   0.00000   0.00000   3.14159
    D5        0.00000  -0.00000   0.00000   0.00000   0.00000   0.00000
    D6        3.14159  -0.00000   0.00000  -0.00000   0.00000   3.14159
    D7        0.00000   0.00000   0.00000   0.00000   0.00000   0.00000
    D8        3.14159  -0.00000   0.00000  -0.00000   0.00000   3.14159
         Item               Value     Threshold  Converged?
 Maximum Force            0.003515     0.000450     NO 
 RMS     Force            0.001367     0.000300     NO 
 Maximum Displacement     0.009106     0.001800     NO 
 RMS     Displacement     0.004428     0.001200     NO 
 Predicted change in Energy=-4.039982D-05
 GradGradGradGradGradGradGradGradGradGradGradGradGradGradGradGradGradGrad

                          Input orientation:                          
 ---------------------------------------------------------------------
 Center     Atomic      Atomic             Coordinates (Angstroms)
 Number     Number       Type             X           Y           Z
 ---------------------------------------------------------------------
      1          6           0       -0.053211    0.771195    0.000000
      2          6           0        0.053211   -0.771195    0.000000
      3          8           0        1.122039    1.378951    0.000000
      4          8           0       -1.122039   -1.378951    0.000000
      5          8           0       -1.118859    1.324582    0.000000
      6          8           0        1.118859   -1.324582    0.000000
      7          1           0        1.808070    0.688024    0.000000
      8          1           0       -1.808070   -0.688024    0.000000
 ---------------------------------------------------------------------
                    Distance matrix (angstroms):
                    1          2          3          4          5
     1  C    0.000000
     2  C    1.546057   0.000000
     3  O    1.323094   2.401150   0.000000
     4  O    2.401150   1.323094   3.555546   0.000000
     5  O    1.200768   2.401256   2.241558   2.703535   0.000000
     6  O    2.401256   1.200768   2.703535   2.241558   3.467774
     7  H    1.863139   2.282291   0.973663   3.585795   2.995350
     8  H    2.282291   1.863139   3.585795   0.973663   2.127344
                    6          7          8
     6  O    0.000000
     7  H    2.127344   0.000000
     8  H    2.995350   3.869106   0.000000
 Stoichiometry    C2H2O4
 Framework group  C2H[SGH(C2H2O4)]
 Deg. of freedom     7
 Full point group                 C2H     NOp   4
 Largest Abelian subgroup         C2H     NOp   4
 Largest concise Abelian subgroup C2      NOp   2
                         Standard orientation:                         
 ---------------------------------------------------------------------
 Center     Atomic      Atomic             Coordinates (Angstroms)
 Number     Number       Type             X           Y           Z
 ---------------------------------------------------------------------
      1          6           0       -0.054118    0.771132    0.000000
      2          6           0        0.054118   -0.771132    0.000000
      3          8           0        1.120416    1.380269    0.000000
      4          8           0       -1.120416   -1.380269    0.000000
      5          8           0       -1.120416    1.323265    0.000000
      6          8           0        1.120416   -1.323265    0.000000
      7          1           0        1.807260    0.690150    0.000000
      8          1           0       -1.807260   -0.690150    0.000000
 ---------------------------------------------------------------------
 Rotational constants (GHZ):           5.8296124           3.8150509           2.3059662
 Basis read from rwf:  (5D, 7F)
 There are    83 symmetry adapted cartesian basis functions of AG  symmetry.
 There are    37 symmetry adapted cartesian basis functions of BG  symmetry.
 There are    37 symmetry adapted cartesian basis functions of AU  symmetry.
 There are    83 symmetry adapted cartesian basis functions of BU  symmetry.
 There are    70 symmetry adapted basis functions of AG  symmetry.
 There are    34 symmetry adapted basis functions of BG  symmetry.
 There are    34 symmetry adapted basis functions of AU  symmetry.
 There are    70 symmetry adapted basis functions of BU  symmetry.
   208 basis functions,   342 primitive gaussians,   240 cartesian basis functions
    23 alpha electrons       23 beta electrons
       nuclear repulsion energy       234.0920572813 Hartrees.
 NAtoms=    8 NActive=    8 NUniq=    4 SFac= 4.00D+00 NAtFMM=   60 NAOKFM=F Big=F
 Integral buffers will be    131072 words long.
 Raffenetti 2 integral format.
 Two-electron integral symmetry is turned on.
 One-electron integrals computed using PRISM.
 NBasis=   208 RedAO= T EigKep=  4.94D-04  NBF=    70    34    34    70
 NBsUse=   208 1.00D-06 EigRej= -1.00D+00 NBFU=    70    34    34    70
 Initial guess from the checkpoint file:  "/wrk/irikura/Gau-29116.chk"
 B after Tr=    -0.000000   -0.000000    0.000000
         Rot=    1.000000   -0.000000    0.000000   -0.000280 Ang=  -0.03 deg.
 Initial guess orbital symmetries:
       Occupied  (AG) (BU) (BU) (AG) (AG) (BU) (AG) (BU) (BU) (AG)
                 (AG) (BU) (AG) (AU) (BU) (AG) (BU) (BG) (AG) (BU)
                 (BG) (AU) (AG)
       Virtual   (AU) (AG) (BU) (BG) (BU) (AG) (AU) (BU) (AG) (BG)
                 (BU) (AG) (AG) (BU) (BU) (AG) (BG) (BU) (BU) (BU)
                 (AU) (BU) (AG) (AU) (AG) (AG) (BU) (BG) (AG) (BU)
                 (AG) (AU) (AG) (BU) (BG) (AG) (BU) (BG) (AG) (BU)
                 (AU) (AG) (AU) (AG) (BU) (BG) (BU) (AU) (BU) (BG)
                 (AG) (BU) (AG) (AG) (BU) (AU) (AG) (BU) (BG) (BU)
                 (AG) (AU) (BG) (AG) (BU) (BU) (BG) (AU) (AG) (AG)
                 (BU) (BG) (BU) (AU) (AG) (BU) (AG) (AG) (BG) (BU)
                 (AU) (BG) (AU) (AG) (BU) (BU) (AG) (AG) (AU) (AG)
                 (BU) (BU) (BG) (AG) (BU) (AU) (AG) (BU) (AG) (BG)
                 (AU) (AG) (BG) (AU) (BU) (BG) (BU) (AU) (AG) (BU)
                 (BG) (BU) (BU) (AG) (AU) (BG) (AG) (AU) (BU) (AG)
                 (BG) (AU) (AG) (BU) (BG) (BU) (AG) (BU) (AU) (AG)
                 (BG) (BU) (AG) (AU) (BG) (BU) (AG) (AG) (BU) (AU)
                 (AG) (BG) (BU) (AG) (BU) (AG) (AU) (AG) (BU) (BG)
                 (BU) (BG) (AU) (AG) (BU) (BG) (AU) (AU) (BU) (BU)
                 (BG) (AG) (BG) (AU) (AG) (BU) (AG) (AU) (AG) (BG)
                 (BG) (BU) (AG) (AU) (BU) (BU) (AG) (AG) (BU) (AG)
                 (BU) (BU) (AG) (AG) (BU)
 Keep R1 ints in memory in symmetry-blocked form, NReq=296266819.
 Requested convergence on RMS density matrix=1.00D-08 within 128 cycles.
 Requested convergence on MAX density matrix=1.00D-06.
 Requested convergence on             energy=1.00D-06.
 No special actions if energy rises.
 SCF Done:  E(RB3LYP) =  -378.497826219     A.U. after    8 cycles
            NFock=  8  Conv=0.26D-08     -V/T= 2.0029
 Calling FoFJK, ICntrl=      2127 FMM=F ISym2X=1 I1Cent= 0 IOpClX= 0 NMat=1 NMatS=1 NMatT=0.
 ***** Axes restored to original set *****
 -------------------------------------------------------------------
 Center     Atomic                   Forces (Hartrees/Bohr)
 Number     Number              X              Y              Z
 -------------------------------------------------------------------
      1        6          -0.000667427    0.000233282   -0.000000000
      2        6           0.000667427   -0.000233282   -0.000000000
      3        8           0.000292219   -0.000612583   -0.000000000
      4        8          -0.000292219    0.000612583   -0.000000000
      5        8          -0.000078340   -0.000333400   -0.000000000
      6        8           0.000078340    0.000333400   -0.000000000
      7        1           0.000413884    0.000218877   -0.000000000
      8        1          -0.000413884   -0.000218877   -0.000000000
 -------------------------------------------------------------------
 Cartesian Forces:  Max     0.000667427 RMS     0.000328764

 GradGradGradGradGradGradGradGradGradGradGradGradGradGradGradGradGradGrad
 Berny optimization.
 Using GEDIIS/GDIIS optimizer.
 FormGI is forming the generalized inverse of G from B-inverse, IUseBI=4.
 Internal  Forces:  Max     0.000824177 RMS     0.000356831
 Search for a local minimum.
 Step number   2 out of a maximum of   33
 All quantities printed in internal units (Hartrees-Bohrs-Radians)
 Mixed Optimization -- En-DIIS/RFO-DIIS
 Update second derivatives using D2CorX and points    1    2
 DE= -2.95D-05 DEPred=-4.04D-05 R= 7.29D-01
 TightC=F SS=  1.41D+00  RLast= 1.55D-02 DXNew= 5.0454D-01 4.6555D-02
 Trust test= 7.29D-01 RLast= 1.55D-02 DXMaxT set to 3.00D-01
 ITU=  1  0
 Use linear search instead of GDIIS.
     Eigenvalues ---    0.00230   0.01098   0.01098   0.02689   0.02689
     Eigenvalues ---    0.16000   0.17774   0.24922   0.25000   0.25000
     Eigenvalues ---    0.26891   0.30870   0.52396   0.52419   0.60797
     Eigenvalues ---    0.63297   0.96187   1.03545
 RFO step:  Lambda=-4.67795592D-06 EMin= 2.30000000D-03
 Quartic linear search produced a step of -0.21336.
 Iteration  1 RMS(Cart)=  0.00186283 RMS(Int)=  0.00000255
 Iteration  2 RMS(Cart)=  0.00000218 RMS(Int)=  0.00000000
 Iteration  3 RMS(Cart)=  0.00000000 RMS(Int)=  0.00000000
 ClnCor:  largest displacement from symmetrization is 1.23D-12 for atom     8.
 Variable       Old X    -DE/DX   Delta X   Delta X   Delta X     New X
                                 (Linear)    (Quad)   (Total)
    R1        2.92162  -0.00049   0.00019  -0.00163  -0.00143   2.92019
    R2        2.50029   0.00045   0.00061  -0.00020   0.00041   2.50070
    R3        2.26912  -0.00008   0.00072  -0.00099  -0.00026   2.26886
    R4        2.50029   0.00045   0.00061  -0.00020   0.00041   2.50070
    R5        2.26912  -0.00008   0.00072  -0.00099  -0.00026   2.26886
    R6        1.83996   0.00014   0.00048  -0.00041   0.00007   1.84003
    R7        1.83996   0.00014   0.00048  -0.00041   0.00007   1.84003
    A1        1.97916  -0.00032  -0.00098   0.00024  -0.00074   1.97842
    A2        2.11865  -0.00022  -0.00032  -0.00027  -0.00059   2.11806
    A3        2.18537   0.00054   0.00130   0.00003   0.00133   2.18670
    A4        1.97916  -0.00032  -0.00098   0.00024  -0.00074   1.97842
    A5        2.11865  -0.00022  -0.00032  -0.00027  -0.00059   2.11806
    A6        2.18537   0.00054   0.00130   0.00003   0.00133   2.18670
    A7        1.87538   0.00082   0.00126   0.00244   0.00370   1.87908
    A8        1.87538   0.00082   0.00126   0.00244   0.00370   1.87908
    D1        3.14159  -0.00000   0.00000   0.00000   0.00000   3.14159
    D2        0.00000   0.00000   0.00000   0.00000   0.00000   0.00000
    D3        0.00000  -0.00000   0.00000   0.00000   0.00000   0.00000
    D4        3.14159   0.00000   0.00000   0.00000   0.00000   3.14159
    D5        0.00000  -0.00000   0.00000  -0.00000   0.00000   0.00000
    D6        3.14159   0.00000   0.00000  -0.00000   0.00000   3.14159
    D7        0.00000   0.00000   0.00000   0.00000   0.00000   0.00000
    D8        3.14159   0.00000   0.00000   0.00000   0.00000   3.14159
         Item               Value     Threshold  Converged?
 Maximum Force            0.000824     0.000450     NO 
 RMS     Force            0.000357     0.000300     NO 
 Maximum Displacement     0.005026     0.001800     NO 
 RMS     Displacement     0.001862     0.001200     NO 
 Predicted change in Energy=-4.706023D-06
 GradGradGradGradGradGradGradGradGradGradGradGradGradGradGradGradGradGrad

                          Input orientation:                          
 ---------------------------------------------------------------------
 Center     Atomic      Atomic             Coordinates (Angstroms)
 Number     Number       Type             X           Y           Z
 ---------------------------------------------------------------------
      1          6           0       -0.053267    0.770811    0.000000
      2          6           0        0.053267   -0.770811    0.000000
      3          8           0        1.122560    1.377920    0.000000
      4          8           0       -1.122560   -1.377920    0.000000
      5          8           0       -1.119177    1.323394    0.000000
      6          8           0        1.119177   -1.323394    0.000000
      7          1           0        1.810730    0.689069    0.000000
      8          1           0       -1.810730   -0.689069    0.000000
 ---------------------------------------------------------------------
                    Distance matrix (angstroms):
                    1          2          3          4          5
     1  C    0.000000
     2  C    1.545299   0.000000
     3  O    1.323311   2.400090   0.000000
     4  O    2.400090   1.323311   3.554606   0.000000
     5  O    1.200629   2.400067   2.242401   2.701316   0.000000
     6  O    2.400067   1.200629   2.701316   2.242401   3.466369
     7  H    1.865789   2.284715   0.973701   3.588403   2.997786
     8  H    2.284715   1.865789   3.588403   0.973701   2.127969
                    6          7          8
     6  O    0.000000
     7  H    2.127969   0.000000
     8  H    2.997786   3.874821   0.000000
 Stoichiometry    C2H2O4
 Framework group  C2H[SGH(C2H2O4)]
 Deg. of freedom     7
 Full point group                 C2H     NOp   4
 Largest Abelian subgroup         C2H     NOp   4
 Largest concise Abelian subgroup C2      NOp   2
                         Standard orientation:                         
 ---------------------------------------------------------------------
 Center     Atomic      Atomic             Coordinates (Angstroms)
 Number     Number       Type             X           Y           Z
 ---------------------------------------------------------------------
      1          6           0       -0.054233    0.770744    0.000000
      2          6           0        0.054233   -0.770744    0.000000
      3          8           0        1.120834    1.379325    0.000000
      4          8           0       -1.120834   -1.379325    0.000000
      5          8           0       -1.120834    1.321991    0.000000
      6          8           0        1.120834   -1.321991    0.000000
      7          1           0        1.809865    0.691336    0.000000
      8          1           0       -1.809865   -0.691336    0.000000
 ---------------------------------------------------------------------
 Rotational constants (GHZ):           5.8246103           3.8207501           2.3072627
 Basis read from rwf:  (5D, 7F)
 There are    83 symmetry adapted cartesian basis functions of AG  symmetry.
 There are    37 symmetry adapted cartesian basis functions of BG  symmetry.
 There are    37 symmetry adapted cartesian basis functions of AU  symmetry.
 There are    83 symmetry adapted cartesian basis functions of BU  symmetry.
 There are    70 symmetry adapted basis functions of AG  symmetry.
 There are    34 symmetry adapted basis functions of BG  symmetry.
 There are    34 symmetry adapted basis functions of AU  symmetry.
 There are    70 symmetry adapted basis functions of BU  symmetry.
   208 basis functions,   342 primitive gaussians,   240 cartesian basis functions
    23 alpha electrons       23 beta electrons
       nuclear repulsion energy       234.1187184856 Hartrees.
 NAtoms=    8 NActive=    8 NUniq=    4 SFac= 4.00D+00 NAtFMM=   60 NAOKFM=F Big=F
 Integral buffers will be    131072 words long.
 Raffenetti 2 integral format.
 Two-electron integral symmetry is turned on.
 One-electron integrals computed using PRISM.
 NBasis=   208 RedAO= T EigKep=  4.94D-04  NBF=    70    34    34    70
 NBsUse=   208 1.00D-06 EigRej= -1.00D+00 NBFU=    70    34    34    70
 Initial guess from the checkpoint file:  "/wrk/irikura/Gau-29116.chk"
 B after Tr=    -0.000000   -0.000000    0.000000
         Rot=    1.000000    0.000000    0.000000   -0.000033 Ang=  -0.00 deg.
 Initial guess orbital symmetries:
       Occupied  (AG) (BU) (BU) (AG) (AG) (BU) (AG) (BU) (BU) (AG)
                 (AG) (BU) (AG) (AU) (BU) (AG) (BU) (BG) (AG) (BU)
                 (BG) (AU) (AG)
       Virtual   (AU) (AG) (BU) (BG) (BU) (AG) (AU) (BU) (AG) (BG)
                 (BU) (AG) (AG) (BU) (BU) (AG) (BG) (BU) (BU) (BU)
                 (AU) (AG) (BU) (AU) (AG) (AG) (BU) (BG) (AG) (BU)
                 (AG) (AU) (AG) (BU) (BG) (AG) (BU) (BG) (AG) (BU)
                 (AU) (AG) (AU) (AG) (BU) (BG) (AU) (BU) (BU) (BG)
                 (AG) (BU) (AG) (AG) (BU) (AU) (AG) (BU) (BG) (BU)
                 (AG) (AU) (BG) (AG) (BU) (BU) (BG) (AU) (AG) (AG)
                 (BU) (BG) (BU) (AU) (AG) (BU) (AG) (AG) (BG) (BU)
                 (AU) (BG) (AU) (AG) (BU) (BU) (AG) (AG) (AU) (AG)
                 (BU) (BU) (BG) (AG) (BU) (AU) (AG) (BU) (AG) (BG)
                 (AU) (AG) (BG) (AU) (BU) (BG) (BU) (AU) (AG) (BU)
                 (BG) (BU) (BU) (AG) (AU) (BG) (AG) (AU) (BU) (AG)
                 (BG) (AU) (AG) (BU) (BG) (BU) (AG) (BU) (AU) (AG)
                 (BG) (BU) (AG) (AU) (BG) (BU) (AG) (AG) (BU) (AU)
                 (AG) (BG) (BU) (AG) (BU) (AG) (AU) (AG) (BU) (BG)
                 (BU) (BG) (AU) (AG) (BU) (BG) (AU) (BU) (AU) (BG)
                 (BU) (AG) (AU) (BG) (AG) (BU) (AG) (AU) (AG) (BG)
                 (BG) (BU) (AG) (AU) (BU) (BU) (AG) (AG) (BU) (AG)
                 (BU) (BU) (AG) (AG) (BU)
 Keep R1 ints in memory in symmetry-blocked form, NReq=296266819.
 Requested convergence on RMS density matrix=1.00D-08 within 128 cycles.
 Requested convergence on MAX density matrix=1.00D-06.
 Requested convergence on             energy=1.00D-06.
 No special actions if energy rises.
 SCF Done:  E(RB3LYP) =  -378.497830744     A.U. after    7 cycles
            NFock=  7  Conv=0.46D-08     -V/T= 2.0029
 Calling FoFJK, ICntrl=      2127 FMM=F ISym2X=1 I1Cent= 0 IOpClX= 0 NMat=1 NMatS=1 NMatT=0.
 ***** Axes restored to original set *****
 -------------------------------------------------------------------
 Center     Atomic                   Forces (Hartrees/Bohr)
 Number     Number              X              Y              Z
 -------------------------------------------------------------------
      1        6          -0.000113485   -0.000079513   -0.000000000
      2        6           0.000113485    0.000079513   -0.000000000
      3        8           0.000118044   -0.000007440   -0.000000000
      4        8          -0.000118044    0.000007440   -0.000000000
      5        8          -0.000046023    0.000102193   -0.000000000
      6        8           0.000046023   -0.000102193   -0.000000000
      7        1          -0.000053416    0.000053085   -0.000000000
      8        1           0.000053416   -0.000053085   -0.000000000
 -------------------------------------------------------------------
 Cartesian Forces:  Max     0.000118044 RMS     0.000065462

 GradGradGradGradGradGradGradGradGradGradGradGradGradGradGradGradGradGrad
 Berny optimization.
 Using GEDIIS/GDIIS optimizer.
 FormGI is forming the generalized inverse of G from B-inverse, IUseBI=4.
 Internal  Forces:  Max     0.000096359 RMS     0.000056417
 Search for a local minimum.
 Step number   3 out of a maximum of   33
 All quantities printed in internal units (Hartrees-Bohrs-Radians)
 Mixed Optimization -- En-DIIS/RFO-DIIS
 Swapping is turned off.
 Update second derivatives using D2CorX and points    1    2    3
 DE= -4.53D-06 DEPred=-4.71D-06 R= 9.62D-01
 TightC=F SS=  1.41D+00  RLast= 5.93D-03 DXNew= 5.0454D-01 1.7792D-02
 Trust test= 9.62D-01 RLast= 5.93D-03 DXMaxT set to 3.00D-01
 ITU=  1  1  0
     Eigenvalues ---    0.00230   0.01100   0.01100   0.02689   0.02689
     Eigenvalues ---    0.16000   0.16927   0.25000   0.25000   0.25085
     Eigenvalues ---    0.26909   0.33644   0.52396   0.52864   0.60797
     Eigenvalues ---    0.62256   0.98171   1.03545
 En-DIIS/RFO-DIIS/Sim-DIIS IScMMF=       -3 using points:     3    2
 RFO step:  Lambda=-1.75080723D-07.
 DidBck=F Rises=F RFO-DIIS coefs:    0.99085    0.00915
 Iteration  1 RMS(Cart)=  0.00020362 RMS(Int)=  0.00000002
 Iteration  2 RMS(Cart)=  0.00000002 RMS(Int)=  0.00000000
 ClnCor:  largest displacement from symmetrization is 6.07D-13 for atom     8.
 Variable       Old X    -DE/DX   Delta X   Delta X   Delta X     New X
                                 (Linear)    (Quad)   (Total)
    R1        2.92019   0.00007   0.00001   0.00021   0.00022   2.92042
    R2        2.50070   0.00008  -0.00000   0.00014   0.00014   2.50083
    R3        2.26886   0.00009   0.00000   0.00008   0.00008   2.26894
    R4        2.50070   0.00008  -0.00000   0.00014   0.00014   2.50083
    R5        2.26886   0.00009   0.00000   0.00008   0.00008   2.26894
    R6        1.84003  -0.00008  -0.00000  -0.00013  -0.00013   1.83990
    R7        1.84003  -0.00008  -0.00000  -0.00013  -0.00013   1.83990
    A1        1.97842  -0.00003   0.00001  -0.00016  -0.00016   1.97827
    A2        2.11806   0.00010   0.00001   0.00035   0.00035   2.11841
    A3        2.18670  -0.00006  -0.00001  -0.00018  -0.00020   2.18651
    A4        1.97842  -0.00003   0.00001  -0.00016  -0.00016   1.97827
    A5        2.11806   0.00010   0.00001   0.00035   0.00035   2.11841
    A6        2.18670  -0.00006  -0.00001  -0.00018  -0.00020   2.18651
    A7        1.87908  -0.00000  -0.00003   0.00012   0.00009   1.87917
    A8        1.87908  -0.00000  -0.00003   0.00012   0.00009   1.87917
    D1        3.14159  -0.00000   0.00000  -0.00000   0.00000   3.14159
    D2        0.00000   0.00000   0.00000  -0.00000   0.00000   0.00000
    D3        0.00000  -0.00000   0.00000  -0.00000   0.00000   0.00000
    D4        3.14159   0.00000   0.00000  -0.00000   0.00000   3.14159
    D5        0.00000  -0.00000   0.00000   0.00000   0.00000   0.00000
    D6        3.14159  -0.00000   0.00000  -0.00000   0.00000   3.14159
    D7        0.00000   0.00000   0.00000   0.00000   0.00000   0.00000
    D8        3.14159  -0.00000   0.00000  -0.00000   0.00000   3.14159
         Item               Value     Threshold  Converged?
 Maximum Force            0.000096     0.000450     YES
 RMS     Force            0.000056     0.000300     YES
 Maximum Displacement     0.000612     0.001800     YES
 RMS     Displacement     0.000204     0.001200     YES
 Predicted change in Energy=-8.754040D-08
 Optimization completed.
    -- Stationary point found.
                           ----------------------------
                           !   Optimized Parameters   !
                           ! (Angstroms and Degrees)  !
 --------------------------                            --------------------------
 ! Name  Definition              Value          Derivative Info.                !
 --------------------------------------------------------------------------------
 ! R1    R(1,2)                  1.5453         -DE/DX =    0.0001              !
 ! R2    R(1,3)                  1.3233         -DE/DX =    0.0001              !
 ! R3    R(1,5)                  1.2006         -DE/DX =    0.0001              !
 ! R4    R(2,4)                  1.3233         -DE/DX =    0.0001              !
 ! R5    R(2,6)                  1.2006         -DE/DX =    0.0001              !
 ! R6    R(3,7)                  0.9737         -DE/DX =   -0.0001              !
 ! R7    R(4,8)                  0.9737         -DE/DX =   -0.0001              !
 ! A1    A(2,1,3)              113.3552         -DE/DX =    0.0                 !
 ! A2    A(2,1,5)              121.356          -DE/DX =    0.0001              !
 ! A3    A(3,1,5)              125.2887         -DE/DX =   -0.0001              !
 ! A4    A(1,2,4)              113.3552         -DE/DX =    0.0                 !
 ! A5    A(1,2,6)              121.356          -DE/DX =    0.0001              !
 ! A6    A(4,2,6)              125.2887         -DE/DX =   -0.0001              !
 ! A7    A(1,3,7)              107.6632         -DE/DX =    0.0                 !
 ! A8    A(2,4,8)              107.6632         -DE/DX =    0.0                 !
 ! D1    D(3,1,2,4)            180.0            -DE/DX =    0.0                 !
 ! D2    D(3,1,2,6)              0.0            -DE/DX =    0.0                 !
 ! D3    D(5,1,2,4)              0.0            -DE/DX =    0.0                 !
 ! D4    D(5,1,2,6)            180.0            -DE/DX =    0.0                 !
 ! D5    D(2,1,3,7)              0.0            -DE/DX =    0.0                 !
 ! D6    D(5,1,3,7)            180.0            -DE/DX =    0.0                 !
 ! D7    D(1,2,4,8)              0.0            -DE/DX =    0.0                 !
 ! D8    D(6,2,4,8)            180.0            -DE/DX =    0.0                 !
 --------------------------------------------------------------------------------
 GradGradGradGradGradGradGradGradGradGradGradGradGradGradGradGradGradGrad

                          Input orientation:                          
 ---------------------------------------------------------------------
 Center     Atomic      Atomic             Coordinates (Angstroms)
 Number     Number       Type             X           Y           Z
 ---------------------------------------------------------------------
      1          6           0       -0.053267    0.770811    0.000000
      2          6           0        0.053267   -0.770811    0.000000
      3          8           0        1.122560    1.377920    0.000000
      4          8           0       -1.122560   -1.377920    0.000000
      5          8           0       -1.119177    1.323394    0.000000
      6          8           0        1.119177   -1.323394    0.000000
      7          1           0        1.810730    0.689069    0.000000
      8          1           0       -1.810730   -0.689069    0.000000
 ---------------------------------------------------------------------
                    Distance matrix (angstroms):
                    1          2          3          4          5
     1  C    0.000000
     2  C    1.545299   0.000000
     3  O    1.323311   2.400090   0.000000
     4  O    2.400090   1.323311   3.554606   0.000000
     5  O    1.200629   2.400067   2.242401   2.701316   0.000000
     6  O    2.400067   1.200629   2.701316   2.242401   3.466369
     7  H    1.865789   2.284715   0.973701   3.588403   2.997786
     8  H    2.284715   1.865789   3.588403   0.973701   2.127969
                    6          7          8
     6  O    0.000000
     7  H    2.127969   0.000000
     8  H    2.997786   3.874821   0.000000
 Stoichiometry    C2H2O4
 Framework group  C2H[SGH(C2H2O4)]
 Deg. of freedom     7
 Full point group                 C2H     NOp   4
 Largest Abelian subgroup         C2H     NOp   4
 Largest concise Abelian subgroup C2      NOp   2
                         Standard orientation:                         
 ---------------------------------------------------------------------
 Center     Atomic      Atomic             Coordinates (Angstroms)
 Number     Number       Type             X           Y           Z
 ---------------------------------------------------------------------
      1          6           0       -0.054233    0.770744    0.000000
      2          6           0        0.054233   -0.770744    0.000000
      3          8           0        1.120834    1.379325    0.000000
      4          8           0       -1.120834   -1.379325    0.000000
      5          8           0       -1.120834    1.321991    0.000000
      6          8           0        1.120834   -1.321991    0.000000
      7          1           0        1.809865    0.691336    0.000000
      8          1           0       -1.809865   -0.691336    0.000000
 ---------------------------------------------------------------------
 Rotational constants (GHZ):           5.8246103           3.8207501           2.3072627

 **********************************************************************

            Population analysis using the SCF Density.

 **********************************************************************

 Orbital symmetries:
       Occupied  (AG) (BU) (BU) (AG) (AG) (BU) (AG) (BU) (BU) (AG)
                 (AG) (BU) (AG) (AU) (BU) (AG) (BU) (BG) (AG) (BU)
                 (BG) (AU) (AG)
       Virtual   (AU) (AG) (BU) (BG) (BU) (AG) (AU) (BU) (AG) (BG)
                 (AG) (BU) (AG) (BU) (BU) (AG) (BG) (BU) (BU) (BU)
                 (AU) (AG) (BU) (AU) (AG) (AG) (BU) (BG) (AG) (BU)
                 (AG) (AU) (AG) (BU) (BG) (AG) (BU) (BG) (AG) (BU)
                 (AU) (AG) (AU) (AG) (BU) (BG) (AU) (BU) (BU) (BG)
                 (AG) (BU) (AG) (AG) (BU) (AU) (AG) (BU) (BG) (BU)
                 (AG) (AU) (BG) (AG) (BU) (BU) (BG) (AU) (AG) (AG)
                 (BU) (BG) (BU) (AU) (AG) (BU) (AG) (AG) (BG) (BU)
                 (AU) (BG) (AU) (AG) (BU) (BU) (AG) (AG) (AU) (AG)
                 (BU) (BU) (BG) (AG) (BU) (AU) (AG) (BU) (AG) (BG)
                 (AU) (AG) (BG) (AU) (BU) (BG) (BU) (AU) (AG) (BU)
                 (BG) (BU) (BU) (AG) (AU) (BG) (AG) (AU) (BU) (AG)
                 (BG) (AU) (AG) (BU) (BG) (BU) (AG) (BU) (AU) (AG)
                 (BG) (BU) (AG) (AU) (BG) (BU) (AG) (AG) (BU) (AU)
                 (AG) (BG) (BU) (AG) (BU) (AG) (AU) (AG) (BU) (BG)
                 (BU) (BG) (AU) (AG) (BU) (BG) (AU) (BU) (AU) (BG)
                 (BU) (AG) (AU) (BG) (AG) (BU) (AG) (AU) (AG) (BG)
                 (BG) (BU) (AG) (AU) (BU) (BU) (AG) (AG) (BU) (AG)
                 (BU) (BU) (AG) (AG) (BU)
 The electronic state is 1-AG.
 Alpha  occ. eigenvalues --  -19.21524 -19.21524 -19.16496 -19.16496 -10.35479
 Alpha  occ. eigenvalues --  -10.35458  -1.17250  -1.14156  -1.09062  -1.06804
 Alpha  occ. eigenvalues --   -0.71517  -0.65682  -0.65152  -0.52516  -0.51660
 Alpha  occ. eigenvalues --   -0.49475  -0.48647  -0.46897  -0.41690  -0.38383
 Alpha  occ. eigenvalues --   -0.37905  -0.36888  -0.31262
 Alpha virt. eigenvalues --   -0.09956  -0.00491   0.02586   0.04484   0.09566
 Alpha virt. eigenvalues --    0.11756   0.13108   0.17608   0.18272   0.19990
 Alpha virt. eigenvalues --    0.20061   0.20065   0.24060   0.24483   0.27305
 Alpha virt. eigenvalues --    0.30556   0.30924   0.31504   0.33201   0.37241
 Alpha virt. eigenvalues --    0.40134   0.42885   0.43023   0.44621   0.45026
 Alpha virt. eigenvalues --    0.46274   0.53790   0.53954   0.55590   0.59230
 Alpha virt. eigenvalues --    0.64285   0.66168   0.67348   0.72675   0.78529
 Alpha virt. eigenvalues --    0.79381   0.81780   0.87564   0.88917   0.90846
 Alpha virt. eigenvalues --    0.91941   1.02034   1.08788   1.10145   1.12207
 Alpha virt. eigenvalues --    1.14763   1.15506   1.15575   1.24937   1.28710
 Alpha virt. eigenvalues --    1.31094   1.36107   1.40653   1.42508   1.45508
 Alpha virt. eigenvalues --    1.47668   1.52005   1.64737   1.65201   1.67378
 Alpha virt. eigenvalues --    1.69501   1.72177   1.76976   1.78188   1.82099
 Alpha virt. eigenvalues --    1.85324   1.86347   1.88192   1.93937   1.97425
 Alpha virt. eigenvalues --    1.97811   2.05714   2.06712   2.06903   2.07412
 Alpha virt. eigenvalues --    2.14907   2.18979   2.25429   2.27750   2.36133
 Alpha virt. eigenvalues --    2.38912   2.44861   2.59425   2.60206   2.71628
 Alpha virt. eigenvalues --    2.79589   2.79943   2.97584   2.98811   3.02899
 Alpha virt. eigenvalues --    3.03489   3.15532   3.20705   3.24419   3.32279
 Alpha virt. eigenvalues --    3.32658   3.36920   3.45891   3.51516   3.56377
 Alpha virt. eigenvalues --    3.56650   3.61643   3.61905   3.62228   3.64095
 Alpha virt. eigenvalues --    3.72203   3.73484   3.81457   3.85760   3.86066
 Alpha virt. eigenvalues --    3.88125   3.90353   3.91493   3.92066   3.95900
 Alpha virt. eigenvalues --    3.96530   3.97722   4.06252   4.08639   4.08717
 Alpha virt. eigenvalues --    4.13229   4.20182   4.20739   4.22859   4.24363
 Alpha virt. eigenvalues --    4.30541   4.32590   4.39087   4.42102   4.43015
 Alpha virt. eigenvalues --    4.43255   4.43579   4.49344   4.50243   4.54097
 Alpha virt. eigenvalues --    4.57252   4.59474   4.69543   4.76237   4.80188
 Alpha virt. eigenvalues --    4.86230   4.89789   4.92262   4.93857   4.97073
 Alpha virt. eigenvalues --    5.02854   5.11721   5.17172   5.23443   5.30587
 Alpha virt. eigenvalues --    5.39854   5.52123   5.58653   5.60718   5.88071
 Alpha virt. eigenvalues --    6.01190   6.01828   6.04000   6.04058   6.08803
 Alpha virt. eigenvalues --    6.08942   6.09930   6.17302   6.17343   6.23672
 Alpha virt. eigenvalues --    6.27461   6.32818   6.37299   6.40991   6.42500
 Alpha virt. eigenvalues --    6.43769   6.48106   6.54302   6.55628   6.59527
 Alpha virt. eigenvalues --    6.70907   6.81212   6.84903   7.00423   7.10668
 Alpha virt. eigenvalues --    7.24250   7.33001   7.34712   7.50296   7.88165
          Condensed to atoms (all electrons):
               1          2          3          4          5          6
     1  C    4.456872   0.356416   0.320120  -0.063332   0.556043  -0.058257
     2  C    0.356416   4.456872  -0.063332   0.320120  -0.058257   0.556043
     3  O    0.320120  -0.063332   7.807034   0.004113  -0.084460  -0.013678
     4  O   -0.063332   0.320120   0.004113   7.807034  -0.013678  -0.084460
     5  O    0.556043  -0.058257  -0.084460  -0.013678   7.967094   0.003785
     6  O   -0.058257   0.556043  -0.013678  -0.084460   0.003785   7.967094
     7  H   -0.015953  -0.015642   0.315717   0.002141   0.004426   0.032253
     8  H   -0.015642  -0.015953   0.002141   0.315717   0.032253   0.004426
               7          8
     1  C   -0.015953  -0.015642
     2  C   -0.015642  -0.015953
     3  O    0.315717   0.002141
     4  O    0.002141   0.315717
     5  O    0.004426   0.032253
     6  O    0.032253   0.004426
     7  H    0.446127  -0.000196
     8  H   -0.000196   0.446127
 Mulliken charges:
               1
     1  C    0.463733
     2  C    0.463733
     3  O   -0.287654
     4  O   -0.287654
     5  O   -0.407206
     6  O   -0.407206
     7  H    0.231127
     8  H    0.231127
 Sum of Mulliken charges =  -0.00000
 Mulliken charges with hydrogens summed into heavy atoms:
               1
     1  C    0.463733
     2  C    0.463733
     3  O   -0.056527
     4  O   -0.056527
     5  O   -0.407206
     6  O   -0.407206
 Electronic spatial extent (au):  <R**2>=            483.1429
 Charge=             -0.0000 electrons
 Dipole moment (field-independent basis, Debye):
    X=              0.0000    Y=             -0.0000    Z=              0.0000  Tot=              0.0000
 Quadrupole moment (field-independent basis, Debye-Ang):
   XX=            -30.9726   YY=            -42.8444   ZZ=            -31.9453
   XY=              3.9787   XZ=              0.0000   YZ=              0.0000
 Traceless Quadrupole moment (field-independent basis, Debye-Ang):
   XX=              4.2814   YY=             -7.5903   ZZ=              3.3088
   XY=              3.9787   XZ=              0.0000   YZ=              0.0000
 Octapole moment (field-independent basis, Debye-Ang**2):
  XXX=              0.0000  YYY=              0.0000  ZZZ=              0.0000  XYY=              0.0000
  XXY=              0.0000  XXZ=              0.0000  XZZ=              0.0000  YZZ=              0.0000
  YYZ=              0.0000  XYZ=              0.0000
 Hexadecapole moment (field-independent basis, Debye-Ang**3):
 XXXX=           -181.9223 YYYY=           -340.2623 ZZZZ=            -27.0980 XXXY=             13.2806
 XXXZ=              0.0000 YYYX=             -4.6158 YYYZ=              0.0000 ZZZX=              0.0000
 ZZZY=              0.0000 XXYY=           -102.5272 XXZZ=            -40.9781 YYZZ=            -56.2651
 XXYZ=              0.0000 YYXZ=              0.0000 ZZXY=             -2.0122
 N-N= 2.341187184856D+02 E-N=-1.359297695347D+03  KE= 3.774145868844D+02
 Symmetry AG   KE= 1.823789903683D+02
 Symmetry BG   KE= 8.633166892358D+00
 Symmetry AU   KE= 8.156769687957D+00
 Symmetry BU   KE= 1.782456599358D+02
 1\1\GINC-GAMBA\FOpt\RB3LYP\Gen\C2H2O4\IRIKURA\16-Jun-2022\0\\# b3lyp/g
 en opt freq\\oxalic acid, B3LYP/pcseg-2\\0,1\C,-0.0532674593,0.7708111
 227,0.\C,0.0532674593,-0.7708111227,0.\O,1.1225603273,1.3779201227,0.\
 O,-1.1225603273,-1.3779201227,0.\O,-1.1191772017,1.3233935147,0.\O,1.1
 191772017,-1.3233935147,0.\H,1.8107297846,0.6890691682,0.\H,-1.8107297
 846,-0.6890691682,0.\\Version=ES64L-G16RevB.01\State=1-AG\HF=-378.4978
 307\RMSD=4.558e-09\RMSF=6.546e-05\Dipole=0.,0.,0.\Quadrupole=3.1905402
 ,-5.6505771,2.4600369,2.9469963,0.,0.\PG=C02H [SGH(C2H2O4)]\\@


 THESE ARE THE TIMES THAT TRY MENS SOULS.
 THE SUMMER SOLDIER AND THE SUNSHINE PATRIOT WILL IN THIS CRISIS,
 SHRINK FROM THE SERVICE OF HIS COUNTRY.  BUT HE THAT STANDS NOW,
 DESERVES THE LOVE AND THANKS OF MAN AND WOMAN.
 TYRANNY, LIKE HELL, IS NOT EASILY CONQUERED,
 YET WE HAVE THIS CONSOLATION WITH US,
 THAT THE HARDER THE CONFLICT, THE MORE GLORIOUS THE TRIUMPH.
 WHAT WE OBTAIN TOO CHEAP, WE ESTEEM TOO LIGHTLY, 
 'TIS DEARNESS ONLY THAT GIVES EVERYTHING ITS VALUE.

                                              -- TOM PAINE
 Job cpu time:       0 days  0 hours  4 minutes 25.3 seconds.
 Elapsed time:       0 days  0 hours  0 minutes 22.9 seconds.
 File lengths (MBytes):  RWF=     23 Int=      0 D2E=      0 Chk=      4 Scr=      1
 Normal termination of Gaussian 16 at Thu Jun 16 16:08:20 2022.
[...]
     8   1     0.00   0.00  -0.70     0.00   0.00   0.71     0.13   0.40  -0.00
                     10                     11                     12
                     BG                     BU                     AG
 Frequencies --    838.2333              1203.0822              1220.5119
 Red. masses --     10.1497                 3.2607                 1.8036
 Frc consts  --      4.2018                 2.7807                 1.5830
 IR Inten    --      0.0000                23.3262                 0.0000
  Atom  AN      X      Y      Z        X      Y      Z        X      Y      Z
     1   6     0.00   0.00   0.61     0.12   0.18  -0.00    -0.09  -0.11   0.00
     2   6     0.00   0.00  -0.61     0.12   0.18   0.00     0.09   0.11   0.00
     3   8    -0.00  -0.00  -0.10    -0.16  -0.04   0.00     0.07  -0.03  -0.00
     4   8     0.00   0.00   0.10    -0.16  -0.04   0.00    -0.07   0.03  -0.00
     5   8    -0.00  -0.00  -0.15     0.10  -0.07  -0.00    -0.07   0.03  -0.00
     6   8    -0.00  -0.00   0.15     0.10  -0.07  -0.00     0.07  -0.03  -0.00
     7   1    -0.00  -0.00  -0.31    -0.49  -0.42   0.00     0.51   0.46   0.00
     8   1    -0.00  -0.00   0.31    -0.49  -0.42   0.00    -0.51  -0.46   0.00
                     13                     14                     15
                     BU                     AG                     AG
 Frequencies --   1329.9335              1429.3771              1826.8144
 Red. masses --      1.7153                 2.8957                11.3657
 Frc consts  --      1.7875                 3.4858                22.3478
 IR Inten    --    812.4425                 0.0000                 0.0000
  Atom  AN      X      Y      Z        X      Y      Z        X      Y      Z
     1   6     0.07   0.10  -0.00     0.13   0.21   0.00     0.50  -0.27   0.00
     2   6     0.07   0.10   0.00    -0.13  -0.21   0.00    -0.50   0.27   0.00
     3   8    -0.05  -0.10  -0.00    -0.08  -0.10  -0.00    -0.04   0.04  -0.00
     4   8    -0.05  -0.10  -0.00     0.08   0.10  -0.00     0.04  -0.04  -0.00
     5   8    -0.03  -0.00   0.00    -0.02  -0.02  -0.00    -0.29   0.16  -0.00
     6   8    -0.03  -0.00   0.00     0.02   0.02  -0.00     0.29  -0.16  -0.00
     7   1     0.49   0.49   0.00     0.45   0.47  -0.00    -0.16  -0.21   0.00
     8   1     0.49   0.49   0.00    -0.45  -0.47  -0.00     0.16   0.21   0.00
                     16                     17                     18
                     BU                     AG                     BU
 Frequencies --   1850.2278              3645.9332              3648.9193
 Red. masses --      9.0150                 1.0641                 1.0654
 Frc consts  --     18.1831                 8.3338                 8.3578
 IR Inten    --    503.6428                 0.0000               261.7999
  Atom  AN      X      Y      Z        X      Y      Z        X      Y      Z
     1   6     0.44  -0.19  -0.00    -0.01   0.00   0.00    -0.00   0.00  -0.00
     2   6     0.44  -0.19   0.00     0.01  -0.00   0.00    -0.00   0.00   0.00
     3   8    -0.05   0.01  -0.00    -0.03   0.03  -0.00    -0.03   0.03   0.00
     4   8    -0.05   0.01  -0.00     0.03  -0.03  -0.00    -0.03   0.03   0.00
     5   8    -0.27   0.15   0.00     0.00  -0.00  -0.00     0.00   0.00  -0.00
     6   8    -0.27   0.15   0.00    -0.00   0.00  -0.00     0.00   0.00  -0.00
     7   1    -0.30  -0.29   0.00     0.53  -0.47   0.00     0.52  -0.47   0.00
     8   1    -0.30  -0.29  -0.00    -0.53   0.47   0.00     0.52  -0.47   0.00

 -------------------
 - Thermochemistry -
 -------------------
 Temperature   298.150 Kelvin.  Pressure   1.00000 Atm.
 Atom     1 has atomic number  6 and mass  12.00000
 Atom     2 has atomic number  6 and mass  12.00000
 Atom     3 has atomic number  8 and mass  15.99491
 Atom     4 has atomic number  8 and mass  15.99491
 Atom     5 has atomic number  8 and mass  15.99491
 Atom     6 has atomic number  8 and mass  15.99491
 Atom     7 has atomic number  1 and mass   1.00783
 Atom     8 has atomic number  1 and mass   1.00783
 Molecular mass:    89.99531 amu.
 Principal axes and moments of inertia in atomic units:
                           1         2         3
     Eigenvalues --   309.84755 472.35259 782.20014
           X            0.07880   0.99689   0.00000
           Y            0.99689  -0.07880   0.00000
           Z            0.00000  -0.00000   1.00000
 This molecule is an asymmetric top.
 Rotational symmetry number  2.
 Rotational temperatures (Kelvin)      0.27954     0.18337     0.11073
 Rotational constants (GHZ):           5.82461     3.82075     2.30726
 Zero-point vibrational energy     129864.4 (Joules/Mol)
                                   31.03833 (Kcal/Mol)
 Warning -- explicit consideration of   5 degrees of freedom as
           vibrations may cause significant error
 Vibrational temperatures:    175.63   373.59   582.23   668.80   808.07
          (Kelvin)            972.88  1009.11  1014.61  1184.09  1206.03
                             1730.97  1756.04  1913.48  2056.55  2628.38
                             2662.07  5245.68  5249.98
 
 Zero-point correction=                           0.049463 (Hartree/Particle)
 Thermal correction to Energy=                    0.054736
 Thermal correction to Enthalpy=                  0.055681
 Thermal correction to Gibbs Free Energy=         0.021163
 Sum of electronic and zero-point Energies=           -378.448368
 Sum of electronic and thermal Energies=              -378.443094
 Sum of electronic and thermal Enthalpies=            -378.442150
 Sum of electronic and thermal Free Energies=         -378.476668
 
                     E (Thermal)             CV                S
                      KCal/Mol        Cal/Mol-Kelvin    Cal/Mol-Kelvin
 Total                   34.348             17.934             72.648
 Electronic               0.000              0.000              0.000
 Translational            0.889              2.981             39.404
 Rotational               0.889              2.981             24.863
 Vibrational             32.570             11.973              8.382
 Vibration     1          0.610              1.931              3.067
 Vibration     2          0.668              1.746              1.664
 Vibration     3          0.770              1.460              0.946
 Vibration     4          0.822              1.328              0.752
 Vibration     5          0.917              1.114              0.521
                       Q            Log10(Q)             Ln(Q)
 Total Bot       0.184369D-09         -9.734313        -22.414084
 Total V=0       0.103979D+14         13.016944         29.972622
 Vib (Bot)       0.907239D-22        -22.042278        -50.754221
 Vib (Bot)    1  0.167333D+01          0.223583          0.514818
 Vib (Bot)    2  0.748160D+00         -0.126006         -0.290139
 Vib (Bot)    3  0.438940D+00         -0.357594         -0.823392
 Vib (Bot)    4  0.364435D+00         -0.438380         -1.009406
 Vib (Bot)    5  0.276291D+00         -0.558633         -1.286301
 Vib (V=0)       0.511657D+01          0.708979          1.632484
 Vib (V=0)    1  0.224644D+01          0.351494          0.809346
 Vib (V=0)    2  0.139986D+01          0.146084          0.336370
 Vib (V=0)    3  0.116533D+01          0.066450          0.153007
 Vib (V=0)    4  0.111872D+01          0.048721          0.112184
 Vib (V=0)    5  0.107126D+01          0.029894          0.068834
 Electronic      0.100000D+01          0.000000          0.000000
 Translational   0.335570D+08          7.525784         17.328757
 Rotational      0.605594D+05          4.782182         11.011380
 ***** Axes restored to original set *****
 -------------------------------------------------------------------
 Center     Atomic                   Forces (Hartrees/Bohr)
 Number     Number              X              Y              Z
 -------------------------------------------------------------------
      1        6          -0.000113454   -0.000079478   -0.000000000
      2        6           0.000113454    0.000079478   -0.000000000
      3        8           0.000118032   -0.000007472   -0.000000000
      4        8          -0.000118032    0.000007472   -0.000000000
      5        8          -0.000046003    0.000102176   -0.000000000
      6        8           0.000046003   -0.000102176   -0.000000000
      7        1          -0.000053439    0.000053103   -0.000000000
      8        1           0.000053439   -0.000053103   -0.000000000
 -------------------------------------------------------------------
 Cartesian Forces:  Max     0.000118032 RMS     0.000065452
 FormGI is forming the generalized inverse of G from B-inverse, IUseBI=4.

 GradGradGradGradGradGradGradGradGradGradGradGradGradGradGradGradGradGrad
 Berny optimization.
 Internal  Forces:  Max     0.000096347 RMS     0.000056410
 Search for a local minimum.
 Step number   1 out of a maximum of    2
 All quantities printed in internal units (Hartrees-Bohrs-Radians)
 Second derivative matrix not updated -- analytic derivatives used.
 ITU=  0
     Eigenvalues ---    0.00909   0.02579   0.03166   0.05103   0.06790
     Eigenvalues ---    0.15707   0.16045   0.19149   0.23321   0.23425
     Eigenvalues ---    0.25182   0.34186   0.44669   0.44982   0.50174
     Eigenvalues ---    0.50762   0.86769   0.89587
 Angle between quadratic step and forces=  29.12 degrees.
 Linear search not attempted -- first point.
 Iteration  1 RMS(Cart)=  0.00024327 RMS(Int)=  0.00000003
 Iteration  2 RMS(Cart)=  0.00000003 RMS(Int)=  0.00000000
 ClnCor:  largest displacement from symmetrization is 1.47D-12 for atom     8.
 Variable       Old X    -DE/DX   Delta X   Delta X   Delta X     New X
                                 (Linear)    (Quad)   (Total)
    R1        2.92019   0.00007   0.00000   0.00022   0.00022   2.92041
    R2        2.50070   0.00008   0.00000   0.00026   0.00026   2.50095
    R3        2.26886   0.00009   0.00000   0.00003   0.00003   2.26889
    R4        2.50070   0.00008   0.00000   0.00026   0.00026   2.50095
    R5        2.26886   0.00009   0.00000   0.00003   0.00003   2.26889
    R6        1.84003  -0.00008   0.00000  -0.00018  -0.00018   1.83984
    R7        1.84003  -0.00008   0.00000  -0.00018  -0.00018   1.83984
    A1        1.97842  -0.00003   0.00000  -0.00017  -0.00017   1.97826
    A2        2.11806   0.00010   0.00000   0.00042   0.00042   2.11848
    A3        2.18670  -0.00006   0.00000  -0.00026  -0.00026   2.18644
    A4        1.97842  -0.00003   0.00000  -0.00017  -0.00017   1.97826
    A5        2.11806   0.00010   0.00000   0.00042   0.00042   2.11848
    A6        2.18670  -0.00006   0.00000  -0.00026  -0.00026   2.18644
    A7        1.87908  -0.00000   0.00000   0.00010   0.00010   1.87918
    A8        1.87908  -0.00000   0.00000   0.00010   0.00010   1.87918
    D1        3.14159  -0.00000   0.00000  -0.00000   0.00000   3.14159
    D2        0.00000   0.00000   0.00000  -0.00000   0.00000   0.00000
    D3        0.00000  -0.00000   0.00000  -0.00000   0.00000   0.00000
    D4        3.14159   0.00000   0.00000  -0.00000   0.00000   3.14159
    D5        0.00000  -0.00000   0.00000   0.00000   0.00000   0.00000
    D6        3.14159   0.00000   0.00000   0.00000   0.00000   3.14159
    D7        0.00000   0.00000   0.00000   0.00000   0.00000   0.00000
    D8        3.14159  -0.00000   0.00000   0.00000   0.00000   3.14159
         Item               Value     Threshold  Converged?
 Maximum Force            0.000096     0.000450     YES
 RMS     Force            0.000056     0.000300     YES
 Maximum Displacement     0.000686     0.001800     YES
 RMS     Displacement     0.000243     0.001200     YES
 Predicted change in Energy=-1.063457D-07
 Optimization completed.
    -- Stationary point found.
                           ----------------------------
                           !   Optimized Parameters   !
                           ! (Angstroms and Degrees)  !
 --------------------------                            --------------------------
 ! Name  Definition              Value          Derivative Info.                !
 --------------------------------------------------------------------------------
 ! R1    R(1,2)                  1.5453         -DE/DX =    0.0001              !
 ! R2    R(1,3)                  1.3233         -DE/DX =    0.0001              !
 ! R3    R(1,5)                  1.2006         -DE/DX =    0.0001              !
 ! R4    R(2,4)                  1.3233         -DE/DX =    0.0001              !
 ! R5    R(2,6)                  1.2006         -DE/DX =    0.0001              !
 ! R6    R(3,7)                  0.9737         -DE/DX =   -0.0001              !
 ! R7    R(4,8)                  0.9737         -DE/DX =   -0.0001              !
 ! A1    A(2,1,3)              113.3552         -DE/DX =    0.0                 !
 ! A2    A(2,1,5)              121.356          -DE/DX =    0.0001              !
 ! A3    A(3,1,5)              125.2887         -DE/DX =   -0.0001              !
 ! A4    A(1,2,4)              113.3552         -DE/DX =    0.0                 !
 ! A5    A(1,2,6)              121.356          -DE/DX =    0.0001              !
 ! A6    A(4,2,6)              125.2887         -DE/DX =   -0.0001              !
 ! A7    A(1,3,7)              107.6632         -DE/DX =    0.0                 !
 ! A8    A(2,4,8)              107.6632         -DE/DX =    0.0                 !
 ! D1    D(3,1,2,4)            180.0            -DE/DX =    0.0                 !
 ! D2    D(3,1,2,6)              0.0            -DE/DX =    0.0                 !
 ! D3    D(5,1,2,4)              0.0            -DE/DX =    0.0                 !
 ! D4    D(5,1,2,6)            180.0            -DE/DX =    0.0                 !
 ! D5    D(2,1,3,7)              0.0            -DE/DX =    0.0                 !
 ! D6    D(5,1,3,7)            180.0            -DE/DX =    0.0                 !
 ! D7    D(1,2,4,8)              0.0            -DE/DX =    0.0                 !
 ! D8    D(6,2,4,8)            180.0            -DE/DX =    0.0                 !
 --------------------------------------------------------------------------------
 GradGradGradGradGradGradGradGradGradGradGradGradGradGradGradGradGradGrad

 Dipole is zero, so no output in dipole orientation.

 ----------------------------------------------------------------------

 Electric dipole moment (input orientation):
 (Debye = 10**-18 statcoulomb cm , SI units = C m)
                  (au)            (Debye)         (10**-30 SI)
   Tot        0.000000D+00      0.000000D+00      0.000000D+00
   x          0.000000D+00      0.000000D+00      0.000000D+00
   y          0.000000D+00      0.000000D+00      0.000000D+00
   z          0.000000D+00      0.000000D+00      0.000000D+00

 Dipole polarizability, Alpha (input orientation).
 (esu units = cm**3 , SI units = C**2 m**2 J**-1)
 Alpha(0;0):
               (au)            (10**-24 esu)      (10**-40 SI)
   iso        0.365448D+02      0.541538D+01      0.602542D+01
   aniso      0.221761D+02      0.328615D+01      0.365634D+01
   xx         0.478811D+02      0.709525D+01      0.789453D+01
   yx        -0.214484D+01     -0.317833D+00     -0.353637D+00
   yy         0.388102D+02      0.575108D+01      0.639894D+01
   zx         0.000000D+00      0.000000D+00      0.000000D+00
   zy         0.000000D+00      0.000000D+00      0.000000D+00
   zz         0.229431D+02      0.339981D+01      0.378280D+01

 ----------------------------------------------------------------------
 1\1\GINC-GAMBA\Freq\RB3LYP\Gen\C2H2O4\IRIKURA\16-Jun-2022\0\\#N Geom=A
 llCheck Guess=TCheck SCRF=Check GenChk RB3LYP/ChkBas Freq\\oxalic acid
 , B3LYP/pcseg-2\\0,1\C,-0.0532674593,0.7708111227,0.\C,0.0532674593,-0
 .7708111227,0.\O,1.1225603273,1.3779201227,0.\O,-1.1225603273,-1.37792
 01227,0.\O,-1.1191772017,1.3233935147,0.\O,1.1191772017,-1.3233935147,
 0.\H,1.8107297846,0.6890691682,0.\H,-1.8107297846,-0.6890691682,0.\\Ve
 rsion=ES64L-G16RevB.01\State=1-AG\HF=-378.4978307\RMSD=9.502e-10\RMSF=
 6.545e-05\ZeroPoint=0.0494627\Thermal=0.0547364\Dipole=0.,0.,0.\Dipole
 Deriv=1.7750137,0.0730789,0.,0.0653206,0.9232237,0.,0.,0.,0.3761451,1.
 7750138,0.0730789,0.,0.0653206,0.9232237,0.,0.,0.,0.3761451,-1.1567436
 ,-0.179173,0.,-0.4250717,-0.5593628,0.,0.,0.,-0.3360999,-1.1567436,-0.
 179173,0.,-0.4250717,-0.5593628,0.,0.,0.,-0.3360999,-1.0179757,0.07968
 05,0.,0.2999172,-0.7422571,0.,0.,0.,-0.3649346,-1.0179758,0.0796805,0.
 ,0.2999173,-0.7422571,0.,0.,0.,-0.3649346,0.3997056,0.0264137,0.,0.059
 8338,0.3783962,0.,0.,0.,0.3248894,0.3997056,0.0264137,0.,0.0598338,0.3
 783962,0.,0.,0.,0.3248894\Polar=47.8811373,-2.1448446,38.8101996,0.,0.
 ,22.9430873\Quadrupole=3.1905384,-5.650576,2.4600376,2.9469976,0.,0.\P
 G=C02H [SGH(C2H2O4)]\NImag=0\\0.98024844,-0.16192125,0.61621154,0.,0.,
 0.17792974,-0.04439489,-0.01848508,0.,0.98024844,-0.01848508,-0.145700
 74,0.,-0.16192125,0.61621154,0.,0.,-0.10486201,0.,0.,0.17792974,-0.251
 14307,-0.13201234,0.,-0.02857475,-0.00322969,0.,0.60135136,-0.06971829
 ,-0.19375666,0.,-0.03351569,-0.01979486,0.,-0.08902265,0.46151644,0.,0
 .,-0.04827861,0.,0.,0.02074421,0.,0.,0.03445160,-0.02857475,-0.0032296
 9,0.,-0.25114307,-0.13201234,0.,0.00713009,-0.00614469,0.,0.60135136,-
 0.03351569,-0.01979486,0.,-0.06971829,-0.19375666,0.,-0.00614469,-0.01
 147409,0.,-0.08902265,0.46151644,0.,0.,0.02074421,0.,0.,-0.04827861,0.
 ,0.,-0.00131694,0.,0.,0.03445160,-0.57480207,0.27867213,0.,-0.03171449
 ,0.01116813,0.,-0.10459182,0.01556861,0.,0.01543605,-0.00294401,0.,0.6
 9204289,0.27098588,-0.26951494,0.,0.03457840,-0.01218154,0.,-0.0053067
 0,0.03838772,0.,0.00185374,-0.00712362,0.,-0.31035895,0.26760771,0.,0.
 ,-0.06511077,0.,0.,0.02525338,0.,0.,0.01090171,0.,0.,-0.00088195,0.,0.
 ,0.03042661,-0.03171449,0.01116813,0.,-0.57480207,0.27867213,0.,0.0154
 3605,-0.00294401,0.,-0.10459182,0.01556861,0.,0.00584649,0.01014694,0.
 ,0.69204289,0.03457840,-0.01218154,0.,0.27098588,-0.26951494,0.,0.0018
 5374,-0.00712362,0.,-0.00530670,0.03838772,0.,0.01014694,-0.01526923,0
 .,-0.31035895,0.26760771,0.,0.,0.02525338,0.,0.,-0.06511077,0.,0.,-0.0
 0088195,0.,0.,0.01090171,0.,0.,-0.00399849,0.,0.,0.03042661,-0.0474241
 6,0.03059124,0.,-0.00219500,-0.00478315,0.,-0.24088876,0.18335941,0.,0
 .00128090,0.00241731,0.,-0.00152685,-0.00601033,0.,-0.00069020,0.00411
 101,0.,0.29218972,-0.00243729,0.02296431,0.,-0.01948668,0.00177289,0.,
 0.22729273,-0.26704677,0.,0.00656959,-0.00070816,0.,-0.01263387,-0.002
 87131,0.,0.01038101,0.00096521,0.,-0.20987939,0.24337485,0.,0.,-0.0051
 9311,0.,0.,-0.00048284,0.,0.,-0.01628623,0.,0.,0.00066620,0.,0.,0.0073
 6872,0.,0.,-0.00395921,0.,0.,0.01763537,-0.00219500,-0.00478315,0.,-0.
 04742416,0.03059124,0.,0.00128090,0.00241731,0.,-0.24088876,0.18335941
 ,0.,-0.00069020,0.00411101,0.,-0.00152685,-0.00601033,0.,-0.00074564,0
 .00019390,0.,0.29218972,-0.01948668,0.00177289,0.,-0.00243729,0.022964
 31,0.,0.00656959,-0.00070816,0.,0.22729273,-0.26704677,0.,0.01038101,0
 .00096521,0.,-0.01263387,-0.00287131,0.,0.00019390,0.00154897,0.,-0.20
 987939,0.24337485,0.,0.,-0.00048284,0.,0.,-0.00519311,0.,0.,0.00066620
 ,0.,0.,-0.01628623,0.,0.,-0.00395921,0.,0.,0.00736872,0.,0.,0.00025109
 ,0.,0.,0.01763537\\0.00011345,0.00007948,0.,-0.00011345,-0.00007948,0.
 ,-0.00011803,0.00000747,0.,0.00011803,-0.00000747,0.,0.00004600,-0.000
 10218,0.,-0.00004600,0.00010218,0.,0.00005344,-0.00005310,0.,-0.000053
 44,0.00005310,0.\\\@


 BETTER TO HUNT IN FIELDS, FOR HEALTH UNBOUGHT
 THAN FEE THE DOCTOR FOR A NAUSEOUS DRAUGHT.
 THE WISE, FOR CURE, ON EXERCISE DEPEND;
 GOD NEVER MADE HIS WORK FOR MAN TO MEND.
     -- JOHN DRYDEN (1631-1700)
 Job cpu time:       0 days  0 hours  9 minutes 22.3 seconds.
 Elapsed time:       0 days  0 hours  0 minutes 46.9 seconds.
 File lengths (MBytes):  RWF=     28 Int=      0 D2E=      0 Chk=      5 Scr=      1
 Normal termination of Gaussian 16 at Thu Jun 16 16:09:08 2022.
