 Entering Gaussian System, Link 0=g16
 AtFile(1): pcseg2.gbs
            -H     0
            S   4   1.00
                  0.754732D+02           0.427821D-02
                  0.113575D+02           0.328672D-01
                  0.260081D+01           0.159578D+00
                  0.735503D+00           0.500000D+00
            S   1   1.00
                  0.231761D+00           1.0000000
            S   1   1.00
                  0.741675D-01           1.0000000
            P   1   1.00
                  0.160000D+01           1.0000000
            P   1   1.00
                  0.450000D+00           1.0000000
            D   1   1.00
                  0.125000D+01           1.0000000
            ****
            -C     0
            S   7   1.00
                  0.731999D+04           0.695369D-03
                  0.109818D+04           0.537138D-02
                  0.250014D+03           0.274734D-01
                  0.707586D+02           0.105078D+00
                  0.228595D+02           0.291262D+00
                  0.803936D+01           0.500000D+00
                  0.289309D+01           0.362224D+00
            S   2   1.00
                  0.521640D+01          -0.957844D-01
                  0.556124D+00           0.500000D+00
            S   1   1.00
                  0.228813D+00           1.0000000
            S   1   1.00
                  0.936338D-01           1.0000000
            P   4   1.00
                  0.339855D+02           0.818395D-02
                  0.772957D+01           0.586921D-01
                  0.224954D+01           0.222514D+00
                  0.767681D+00           0.500000D+00
            P   1   1.00
                  0.263283D+00           1.0000000
            P   1   1.00
                  0.848744D-01           1.0000000
            D   1   1.00
                  0.140000D+01           1.0000000
            D   1   1.00
                  0.450000D+00           1.0000000
            F   1   1.00
                  0.950000D+00           1.0000000
            ****
            -O     0
            S   7   1.00
                  0.135887D+05           0.665492D-03
                  0.203847D+04           0.514222D-02
                  0.464041D+03           0.263472D-01
                  0.131339D+03           0.101500D+00
                  0.425340D+02           0.285877D+00
                  0.150429D+02           0.500000D+00
                  0.546616D+01           0.368211D+00
            S   2   1.00
                  0.100915D+02          -0.100084D+00
                  0.110429D+01           0.500000D+00
            S   1   1.00
                  0.448082D+00           1.0000000
            S   1   1.00
                  0.175325D+00           1.0000000
            P   4   1.00
                  0.608220D+02           0.908253D-02
                  0.140332D+02           0.645878D-01
                  0.418244D+01           0.241502D+00
                  0.142490D+01           0.500000D+00
            P   1   1.00
                  0.478741D+00           1.0000000
            P   1   1.00
                  0.146257D+00           1.0000000
            D   1   1.00
                  0.220000D+01           1.0000000
            D   1   1.00
                  0.650000D+00           1.0000000
            F   1   1.00
                  0.110000D+01           1.0000000
            ****
            -N     0
            S   7   1.00
                  0.101643D+05           0.682757D-03
                  0.152481D+04           0.527488D-02
                  0.347119D+03           0.270037D-01
                  0.982389D+02           0.103673D+00
                  0.317799D+02           0.289575D+00
                  0.112240D+02           0.500000D+00
                  0.406611D+01           0.364621D+00
            S   2   1.00
                  0.747898D+01          -0.975681D-01
                  0.805040D+00           0.500000D+00
            S   1   1.00
                  0.324626D+00           1.0000000
            S   1   1.00
                  0.128132D+00           1.0000000
            P   4   1.00
                  0.482704D+02           0.829547D-02
                  0.110815D+02           0.596223D-01
                  0.326643D+01           0.227889D+00
                  0.111680D+01           0.500000D+00
            P   1   1.00
                  0.382049D+00           1.0000000
            P   1   1.00
                  0.121222D+00           1.0000000
            D   1   1.00
                  0.180000D+01           1.0000000
            D   1   1.00
                  0.550000D+00           1.0000000
            F   1   1.00
                  0.102000D+01           1.0000000
            ****
            -F     0
            S   7   1.00
                  0.174507D+05           0.655972D-03
                  0.261768D+04           0.506944D-02
                  0.595857D+03           0.259899D-01
                  0.168651D+03           0.100353D+00
                  0.546654D+02           0.284095D+00
                  0.193717D+02           0.500000D+00
                  0.706202D+01           0.370721D+00
            S   2   1.00
                  0.131197D+02          -0.101997D+00
                  0.145046D+01           0.500000D+00
            S   1   1.00
                  0.588255D+00           1.0000000
            S   1   1.00
                  0.227960D+00           1.0000000
            P   4   1.00
                  0.779407D+02           0.931135D-02
                  0.180425D+02           0.663964D-01
                  0.542342D+01           0.246386D+00
                  0.184876D+01           0.500000D+00
            P   1   1.00
                  0.617455D+00           1.0000000
            P   1   1.00
                  0.185496D+00           1.0000000
            D   1   1.00
                  0.280000D+01           1.0000000
            D   1   1.00
                  0.800000D+00           1.0000000
            F   1   1.00
                  0.120000D+01           1.0000000
            ****
            -Cl     0
            S   8   1.00
                  0.154272D+06           0.222473D-03
                  0.231232D+05           0.172590D-02
                  0.526257D+04           0.899286D-02
                  0.148995D+04           0.367724D-01
                  0.485417D+03           0.121446D+00
                  0.174634D+03           0.304148D+00
                  0.672393D+02           0.500000D+00
                  0.265780D+02           0.360252D+00
            S   3   1.00
                  0.131826D+03          -0.531330D-01
                  0.400703D+02          -0.233346D+00
                  0.789448D+01           0.500000D+00
            S   2   1.00
                  0.427711D+01           0.500000D+00
                  0.196233D+01           0.370517D+00
            S   1   1.00
                  0.520793D+00           1.0000000
            S   1   1.00
                  0.181633D+00           1.0000000
            P   7   1.00
                  0.124440D+04           0.988206D-03
                  0.295109D+03           0.829674D-02
                  0.947224D+02           0.430906D-01
                  0.352588D+02           0.148443D+00
                  0.144211D+02           0.344744D+00
                  0.610371D+01           0.500000D+00
                  0.258886D+01           0.348278D+00
            P   2   1.00
                  0.109447D+02          -0.196768D-01
                  0.104413D+01           0.500000D+00
            P   1   1.00
                  0.376184D+00           1.0000000
            P   1   1.00
                  0.120613D+00           1.0000000
            D   1   1.00
                  0.231000D+01           1.0000000
            D   1   1.00
                  0.520000D+00           1.0000000
            F   1   1.00
                  0.720000D+00           1.0000000
            ****
            -S     0
            S   8   1.00
                  0.134700D+06           0.226231D-03
                  0.201904D+05           0.175488D-02
                  0.459528D+04           0.914190D-02
                  0.130109D+04           0.373551D-01
                  0.423902D+03           0.123121D+00
                  0.152485D+03           0.306801D+00
                  0.586925D+02           0.500000D+00
                  0.231461D+02           0.354358D+00
            S   3   1.00
                  0.116327D+03          -0.491772D-01
                  0.352841D+02          -0.215962D+00
                  0.677831D+01           0.500000D+00
            S   2   1.00
                  0.360404D+01           0.500000D+00
                  0.164871D+01           0.366278D+00
            S   1   1.00
                  0.421821D+00           1.0000000
            S   1   1.00
                  0.147554D+00           1.0000000
            P   7   1.00
                  0.104863D+04           0.105273D-02
                  0.248717D+03           0.879338D-02
                  0.797887D+02           0.453358D-01
                  0.296023D+02           0.154476D+00
                  0.120627D+02           0.352366D+00
                  0.507628D+01           0.500000D+00
                  0.213375D+01           0.346429D+00
            P   2   1.00
                  0.928958D+01          -0.185932D-01
                  0.837819D+00           0.500000D+00
            P   1   1.00
                  0.301495D+00           1.0000000
            P   1   1.00
                  0.974740D-01           1.0000000
            D   1   1.00
                  0.210000D+01           1.0000000
            D   1   1.00
                  0.480000D+00           1.0000000
            F   1   1.00
                  0.660000D+00           1.0000000
            ****
            -Br     0
            S    10   1.00
                  0.233625D+07           0.532336D-04
                  0.349961D+06           0.413715D-03
                  0.796444D+05           0.217123D-02
                  0.225555D+05           0.910109D-02
                  0.735546D+04           0.323789D-01
                  0.265352D+04           0.988755D-01
                  0.103517D+04           0.248138D+00
                  0.422205D+03           0.474328D+00
                  0.180035D+03           0.500000D+00
                  0.793308D+02           0.187769D+00
            S    4   1.00
                  0.620834D+03          -0.226511D-01
                  0.190829D+03          -0.109497D+00
                  0.312505D+02           0.500000D+00
                  0.135270D+02           0.492812D+00
            S    2   1.00
                  0.216097D+02          -0.165418D+00
                  0.372566D+01           0.500000D+00
            S    1   1.00
                  0.169770D+01           1.0000000
            S    1   1.00
                  0.489332D+00           1.0000000
            S    1   1.00
                  0.175712D+00           1.0000000
            P    8   1.00
                  0.960829D+04           0.478974D-03
                  0.227618D+04           0.417853D-02
                  0.736723D+03           0.229315D-01
                  0.281579D+03           0.892653D-01
                  0.118395D+03           0.255288D+00
                  0.527481D+02           0.479074D+00
                  0.245098D+02           0.500000D+00
                  0.112009D+02           0.200944D+00
            P    4   1.00
                  0.587849D+02          -0.189674D-01
                  0.918962D+01           0.264104D+00
                  0.413895D+01           0.500000D+00
                  0.184225D+01           0.319316D+00
            P    1   1.00
                  0.713862D+00           1.0000000
            P    1   1.00
                  0.274232D+00           1.0000000
            P    1   1.00
                  0.944411D-01           1.0000000
            D    7   1.00
                  0.398470D+03           0.204066D-02
                  0.118967D+03           0.175171D-01
                  0.450197D+02           0.829708D-01
                  0.190320D+02           0.236284D+00
                  0.855686D+01           0.428468D+00
                  0.382950D+01           0.500000D+00
                  0.166291D+01           0.349360D+00
            D    1   1.00
                  0.672953D+00           1.0000000
            D    1   1.00
                  0.252000D+00           1.0000000
            F    1   1.00
                  0.530000D+00           1.0000000
            ****
            -Si     0
            S    8   1.00
                  0.996133D+05           0.235546D-03
                  0.149311D+05           0.182707D-02
                  0.339820D+04           0.951425D-02
                  0.962140D+03           0.388172D-01
                  0.313430D+03           0.127328D+00
                  0.112683D+03           0.313522D+00
                  0.433372D+02           0.500000D+00
                  0.170029D+02           0.340347D+00
            S    3   1.00
                  0.884208D+02          -0.404451D-01
                  0.266756D+02          -0.178059D+00
                  0.479640D+01           0.500000D+00
            S    2   1.00
                  0.239385D+01           0.500000D+00
                  0.108333D+01           0.338016D+00
            S    1   1.00
                  0.252420D+00           1.0000000
            S    1   1.00
                  0.891210D-01           1.0000000
            P    7   1.00
                  0.709901D+03           0.123028D-02
                  0.168426D+03           0.101366D-01
                  0.539946D+02           0.511840D-01
                  0.198646D+02           0.169967D+00
                  0.801369D+01           0.370717D+00
                  0.331870D+01           0.500000D+00
                  0.136112D+01           0.344128D+00
            P    2   1.00
                  0.622158D+01          -0.166609D-01
                  0.503049D+00           0.500000D+00
            P    1   1.00
                  0.179848D+00           1.0000000
            P    1   1.00
                  0.591912D-01           1.0000000
            D    1   1.00
                  0.168000D+01           1.0000000
            D    1   1.00
                  0.380000D+00           1.0000000
            F    1   1.00
                  0.540000D+00           1.0000000
            ****
            -P     0
            S    8   1.00
                  0.116416D+06           0.230715D-03
                  0.174500D+05           0.178960D-02
                  0.397149D+04           0.932116D-02
                  0.112447D+04           0.380591D-01
                  0.366347D+03           0.125148D+00
                  0.131757D+03           0.310022D+00
                  0.506988D+02           0.500000D+00
                  0.199436D+02           0.347528D+00
            S    3   1.00
                  0.101878D+03          -0.446755D-01
                  0.308249D+02          -0.196376D+00
                  0.573688D+01           0.500000D+00
            S    2   1.00
                  0.296868D+01           0.500000D+00
                  0.135315D+01           0.355098D+00
            S    1   1.00
                  0.332196D+00           1.0000000
            S    1   1.00
                  0.116229D+00           1.0000000
            P    7   1.00
                  0.873928D+03           0.112375D-02
                  0.207298D+03           0.933330D-02
                  0.664628D+02           0.477213D-01
                  0.245665D+02           0.160733D+00
                  0.996820D+01           0.359760D+00
                  0.416536D+01           0.500000D+00
                  0.173022D+01           0.346593D+00
            P    2   1.00
                  0.772530D+01          -0.175718D-01
                  0.657252D+00           0.500000D+00
            P    1   1.00
                  0.239903D+00           1.0000000
            P    1   1.00
                  0.800988D-01           1.0000000
            D    1   1.00
                  0.189000D+01           1.0000000
            D    1   1.00
                  0.430000D+00           1.0000000
            F    1   1.00
                  0.600000D+00           1.0000000
            ****
            
 Initial command:
 /usr/local/apps/g16_b01_avx/g16/l1.exe "/wrk/irikura/Gau-361299.inp" -scrdir="/wrk/irikura/"
 Entering Link 1 = /usr/local/apps/g16_b01_avx/g16/l1.exe PID=    361301.
  
 Copyright (c) 1988-2017, Gaussian, Inc.  All Rights Reserved.
  
 This is part of the Gaussian(R) 16 program.  It is based on
 the Gaussian(R) 09 system (copyright 2009, Gaussian, Inc.),
 the Gaussian(R) 03 system (copyright 2003, Gaussian, Inc.),
 the Gaussian(R) 98 system (copyright 1998, Gaussian, Inc.),
 the Gaussian(R) 94 system (copyright 1995, Gaussian, Inc.),
 the Gaussian 92(TM) system (copyright 1992, Gaussian, Inc.),
 the Gaussian 90(TM) system (copyright 1990, Gaussian, Inc.),
 the Gaussian 88(TM) system (copyright 1988, Gaussian, Inc.),
 the Gaussian 86(TM) system (copyright 1986, Carnegie Mellon
 University), and the Gaussian 82(TM) system (copyright 1983,
 Carnegie Mellon University). Gaussian is a federally registered
 trademark of Gaussian, Inc.
  
 This software contains proprietary and confidential information,
 including trade secrets, belonging to Gaussian, Inc.
  
 This software is provided under written license and may be
 used, copied, transmitted, or stored only in accord with that
 written license.
  
 The following legend is applicable only to US Government
 contracts under FAR:
  
                    RESTRICTED RIGHTS LEGEND
  
 Use, reproduction and disclosure by the US Government is
 subject to restrictions as set forth in subparagraphs (a)
 and (c) of the Commercial Computer Software - Restricted
 Rights clause in FAR 52.227-19.
  
 Gaussian, Inc.
 340 Quinnipiac St., Bldg. 40, Wallingford CT 06492
  
  
 ---------------------------------------------------------------
 Warning -- This program may not be used in any manner that
 competes with the business of Gaussian, Inc. or will provide
 assistance to any competitor of Gaussian, Inc.  The licensee
 of this program is prohibited from giving any competitor of
 Gaussian, Inc. access to this program.  By using this program,
 the user acknowledges that Gaussian, Inc. is engaged in the
 business of creating and licensing software in the field of
 computational chemistry and represents and warrants to the
 licensee that it is not a competitor of Gaussian, Inc. and that
 it will not use this program in any manner prohibited above.
 ---------------------------------------------------------------
  

 Cite this work as:
 Gaussian 16, Revision B.01,
 M. J. Frisch, G. W. Trucks, H. B. Schlegel, G. E. Scuseria, 
 M. A. Robb, J. R. Cheeseman, G. Scalmani, V. Barone, 
 G. A. Petersson, H. Nakatsuji, X. Li, M. Caricato, A. V. Marenich, 
 J. Bloino, B. G. Janesko, R. Gomperts, B. Mennucci, H. P. Hratchian, 
 J. V. Ortiz, A. F. Izmaylov, J. L. Sonnenberg, D. Williams-Young, 
 F. Ding, F. Lipparini, F. Egidi, J. Goings, B. Peng, A. Petrone, 
 T. Henderson, D. Ranasinghe, V. G. Zakrzewski, J. Gao, N. Rega, 
 G. Zheng, W. Liang, M. Hada, M. Ehara, K. Toyota, R. Fukuda, 
 J. Hasegawa, M. Ishida, T. Nakajima, Y. Honda, O. Kitao, H. Nakai, 
 T. Vreven, K. Throssell, J. A. Montgomery, Jr., J. E. Peralta, 
 F. Ogliaro, M. J. Bearpark, J. J. Heyd, E. N. Brothers, K. N. Kudin, 
 V. N. Staroverov, T. A. Keith, R. Kobayashi, J. Normand, 
 K. Raghavachari, A. P. Rendell, J. C. Burant, S. S. Iyengar, 
 J. Tomasi, M. Cossi, J. M. Millam, M. Klene, C. Adamo, R. Cammi, 
 J. W. Ochterski, R. L. Martin, K. Morokuma, O. Farkas, 
 J. B. Foresman, and D. J. Fox, Gaussian, Inc., Wallingford CT, 2016.
 
 ******************************************
 Gaussian 16:  ES64L-G16RevB.01 20-Dec-2017
                29-Sep-2023 
 ******************************************
 %chk=c3h2o.chk
 %mem=500mw
 %nprocs=4
 Will use up to    4 processors via shared memory.
 ---------------------------------------
 # b3lyp/gen opt freq CPHF(Grid=OneStep)
 ---------------------------------------
 1/18=20,19=15,26=3,38=1/1,3;
 2/9=110,12=2,17=6,18=5,40=1/2;
 3/5=7,11=2,25=1,30=1,71=1,74=-5/1,2,3;
 4//1;
 5/5=2,38=5/2;
 6/7=2,8=2,9=2,10=2,28=1/1;
 7//1,2,3,16;
 1/18=20,19=15,26=3/3(2);
 2/9=110/2;
 99//99;
 2/9=110/2;
 3/5=7,6=1,11=2,25=1,30=1,71=1,74=-5,82=7/1,2,3;
 4/5=5,16=3,69=1/1;
 5/5=2,38=5/2;
 7//1,2,3,16;
 1/18=20,19=15,26=3/3(-5);
 2/9=110/2;
 6/7=2,8=2,9=2,10=2,19=2,28=1/1;
 99/9=1/99;
 -----------------------------
 cyclopropenone, B3LYP/pcseg-2
 -----------------------------
 Symbolic Z-matrix:
 Charge =  0 Multiplicity = 1
 C                     0.        0.        0.33224 
 O                     0.        0.        1.53243 
 C                     0.        0.66955  -0.92759 
 C                     0.       -0.66955  -0.92759 
 H                     0.        1.54486  -1.5609 
 H                     0.       -1.54486  -1.5609 
 

 GradGradGradGradGradGradGradGradGradGradGradGradGradGradGradGradGradGrad
 Berny optimization.
 Initialization pass.
                           ----------------------------
                           !    Initial Parameters    !
                           ! (Angstroms and Degrees)  !
 --------------------------                            --------------------------
 ! Name  Definition              Value          Derivative Info.                !
 --------------------------------------------------------------------------------
 ! R1    R(1,2)                  1.2002         estimate D2E/DX2                !
 ! R2    R(1,3)                  1.4267         estimate D2E/DX2                !
 ! R3    R(1,4)                  1.4267         estimate D2E/DX2                !
 ! R4    R(3,4)                  1.3391         estimate D2E/DX2                !
 ! R5    R(3,5)                  1.0804         estimate D2E/DX2                !
 ! R6    R(4,6)                  1.0804         estimate D2E/DX2                !
 ! A1    A(2,1,3)              152.0111         estimate D2E/DX2                !
 ! A2    A(2,1,4)              152.0111         estimate D2E/DX2                !
 ! A3    A(1,3,5)              153.8756         estimate D2E/DX2                !
 ! A4    A(4,3,5)              144.1133         estimate D2E/DX2                !
 ! A5    A(1,4,6)              153.8756         estimate D2E/DX2                !
 ! A6    A(3,4,6)              144.1133         estimate D2E/DX2                !
 ! D1    D(2,1,3,4)            180.0            estimate D2E/DX2                !
 ! D2    D(2,1,3,5)              0.0            estimate D2E/DX2                !
 ! D3    D(2,1,4,6)              0.0            estimate D2E/DX2                !
 ! D4    D(5,3,4,6)              0.0            estimate D2E/DX2                !
 ! D5    D(6,3,4,1)            180.0            estimate D2E/DX2                !
 --------------------------------------------------------------------------------
 Trust Radius=3.00D-01 FncErr=1.00D-07 GrdErr=1.00D-06 EigMax=2.50D+02 EigMin=1.00D-04
 Number of steps in this run=     27 maximum allowed number of steps=    100.
 GradGradGradGradGradGradGradGradGradGradGradGradGradGradGradGradGradGrad

                          Input orientation:                          
 ---------------------------------------------------------------------
 Center     Atomic      Atomic             Coordinates (Angstroms)
 Number     Number       Type             X           Y           Z
 ---------------------------------------------------------------------
      1          6           0        0.000000    0.000000    0.332236
      2          8           0        0.000000    0.000000    1.532432
      3          6           0        0.000000    0.669548   -0.927589
      4          6           0        0.000000   -0.669548   -0.927589
      5          1           0        0.000000    1.544863   -1.560901
      6          1           0        0.000000   -1.544863   -1.560901
 ---------------------------------------------------------------------
                    Distance matrix (angstroms):
                    1          2          3          4          5
     1  C    0.000000
     2  O    1.200196   0.000000
     3  C    1.426693   2.549509   0.000000
     4  C    1.426693   2.549509   1.339096   0.000000
     5  H    2.443475   3.457645   1.080398   2.303193   0.000000
     6  H    2.443475   3.457645   2.303193   1.080398   3.089726
                    6
     6  H    0.000000
 Stoichiometry    C3H2O
 Framework group  C2V[C2(CO),SGV(C2H2)]
 Deg. of freedom     5
 Full point group                 C2V     NOp   4
 Largest Abelian subgroup         C2V     NOp   4
 Largest concise Abelian subgroup C2      NOp   2
                         Standard orientation:                         
 ---------------------------------------------------------------------
 Center     Atomic      Atomic             Coordinates (Angstroms)
 Number     Number       Type             X           Y           Z
 ---------------------------------------------------------------------
      1          6           0        0.000000   -0.000000    0.332236
      2          8           0        0.000000   -0.000000    1.532432
      3          6           0        0.000000    0.669548   -0.927589
      4          6           0       -0.000000   -0.669548   -0.927589
      5          1           0        0.000000    1.544863   -1.560901
      6          1           0       -0.000000   -1.544863   -1.560901
 ---------------------------------------------------------------------
 Rotational constants (GHZ):          32.4592976           7.8633093           6.3298858
 General basis read from cards:  (5D, 7F)
 There are    67 symmetry adapted cartesian basis functions of A1  symmetry.
 There are    21 symmetry adapted cartesian basis functions of A2  symmetry.
 There are    31 symmetry adapted cartesian basis functions of B1  symmetry.
 There are    51 symmetry adapted cartesian basis functions of B2  symmetry.
 There are    56 symmetry adapted basis functions of A1  symmetry.
 There are    20 symmetry adapted basis functions of A2  symmetry.
 There are    28 symmetry adapted basis functions of B1  symmetry.
 There are    44 symmetry adapted basis functions of B2  symmetry.
   148 basis functions,   240 primitive gaussians,   170 cartesian basis functions
    14 alpha electrons       14 beta electrons
       nuclear repulsion energy        95.8748567852 Hartrees.
 NAtoms=    6 NActive=    6 NUniq=    4 SFac= 2.25D+00 NAtFMM=   60 NAOKFM=F Big=F
 Integral buffers will be    131072 words long.
 Raffenetti 2 integral format.
 Two-electron integral symmetry is turned on.
 One-electron integrals computed using PRISM.
 NBasis=   148 RedAO= T EigKep=  2.39D-04  NBF=    56    20    28    44
 NBsUse=   148 1.00D-06 EigRej= -1.00D+00 NBFU=    56    20    28    44
 ExpMin= 7.42D-02 ExpMax= 1.36D+04 ExpMxC= 4.64D+02 IAcc=3 IRadAn=         5 AccDes= 0.00D+00
 Harris functional with IExCor=  402 and IRadAn=       5 diagonalized for initial guess.
 HarFok:  IExCor=  402 AccDes= 0.00D+00 IRadAn=         5 IDoV= 1 UseB2=F ITyADJ=14
 ICtDFT=  3500011 ScaDFX=  1.000000  1.000000  1.000000  1.000000
 FoFCou: FMM=F IPFlag=           0 FMFlag=      100000 FMFlg1=           0
         NFxFlg=           0 DoJE=T BraDBF=F KetDBF=T FulRan=T
         wScrn=  0.000000 ICntrl=       500 IOpCl=  0 I1Cent=   200000004 NGrid=           0
         NMat0=    1 NMatS0=      1 NMatT0=    0 NMatD0=    1 NMtDS0=    0 NMtDT0=    0
 Petite list used in FoFCou.
 Initial guess orbital symmetries:
       Occupied  (A1) (A1) (B2) (A1) (A1) (A1) (B2) (A1) (A1) (B1)
                 (B2) (A1) (B1) (B2)
       Virtual   (A2) (B1) (A1) (B2) (A1) (A1) (B2) (A1) (B1) (B2)
                 (B1) (B2) (A1) (A2) (A1) (B2) (A1) (B2) (A1) (A1)
                 (B2) (B1) (B2) (B2) (A1) (B1) (A2) (A1) (A1) (B1)
                 (A1) (A1) (B2) (A2) (B2) (A1) (B1) (B2) (B1) (B2)
                 (A2) (A1) (B1) (A1) (A2) (A1) (B2) (B2) (A1) (A2)
                 (A1) (B1) (B2) (A1) (B2) (A2) (A1) (B2) (B1) (A1)
                 (B2) (A1) (A1) (B1) (B2) (B2) (B1) (A1) (A1) (B1)
                 (B2) (A2) (A1) (B1) (B2) (A1) (B1) (A2) (A1) (B2)
                 (B1) (A1) (A2) (B2) (A2) (B1) (B2) (A1) (B1) (A1)
                 (B2) (B2) (A2) (A1) (B1) (B2) (A2) (A1) (A1) (B2)
                 (A2) (B1) (B2) (B1) (A1) (A2) (A1) (B2) (B1) (A1)
                 (A2) (B2) (A1) (B2) (A1) (A2) (B2) (A1) (B1) (A1)
                 (A1) (B2) (B1) (A2) (A2) (A1) (B2) (B2) (B1) (B2)
                 (B2) (A1) (A1) (A1)
 The electronic state of the initial guess is 1-A1.
 Keep R1 ints in memory in symmetry-blocked form, NReq=76286241.
 Requested convergence on RMS density matrix=1.00D-08 within 128 cycles.
 Requested convergence on MAX density matrix=1.00D-06.
 Requested convergence on             energy=1.00D-06.
 No special actions if energy rises.
 Integral accuracy reduced to 1.0D-05 until final iterations.
 Initial convergence to 1.0D-05 achieved.  Increase integral accuracy.
 SCF Done:  E(RB3LYP) =  -190.722511179     A.U. after   12 cycles
            NFock= 12  Conv=0.34D-08     -V/T= 2.0034

 **********************************************************************

            Population analysis using the SCF Density.

 **********************************************************************

 Orbital symmetries:
       Occupied  (A1) (A1) (A1) (B2) (A1) (A1) (B2) (A1) (A1) (B1)
                 (B2) (A1) (B1) (B2)
       Virtual   (A2) (A1) (B1) (B2) (A1) (A1) (B2) (B1) (A1) (B2)
                 (B1) (A2) (B2) (A1) (A1) (B2) (B2) (A1) (A1) (A1)
                 (B2) (B1) (B2) (B2) (B1) (A1) (A2) (A1) (A1) (A1)
                 (B1) (B2) (A1) (A2) (B2) (B1) (A1) (B2) (B1) (A1)
                 (A2) (B2) (B1) (A1) (A2) (A1) (B2) (B2) (A1) (A2)
                 (A1) (B1) (B2) (B2) (A1) (A2) (A1) (B2) (B1) (A1)
                 (B2) (A1) (A1) (B1) (B2) (B2) (B1) (A1) (A1) (B2)
                 (B1) (A2) (A1) (B1) (B2) (A1) (B1) (A2) (A1) (B2)
                 (B1) (A1) (A2) (B2) (A2) (B1) (B2) (A1) (B1) (A1)
                 (B2) (A2) (B1) (A1) (B2) (B2) (A2) (A1) (A1) (B2)
                 (A2) (B1) (B2) (B1) (A2) (A1) (A1) (B2) (B1) (A1)
                 (A2) (B2) (A1) (B2) (A1) (A2) (B2) (A1) (B1) (A1)
                 (A2) (A1) (B1) (B2) (B2) (A2) (A1) (B2) (B1) (B2)
                 (B2) (A1) (A1) (A1)
 The electronic state is 1-A1.
 Alpha  occ. eigenvalues --  -19.10879 -10.28468 -10.23776 -10.23688  -1.04529
 Alpha  occ. eigenvalues --   -0.92807  -0.61249  -0.59496  -0.47840  -0.44216
 Alpha  occ. eigenvalues --   -0.43386  -0.40007  -0.31329  -0.25115
 Alpha virt. eigenvalues --   -0.05584   0.01516   0.02277   0.03342   0.07176
 Alpha virt. eigenvalues --    0.10391   0.11422   0.13933   0.15716   0.20558
 Alpha virt. eigenvalues --    0.22041   0.22708   0.24772   0.25602   0.27013
 Alpha virt. eigenvalues --    0.31083   0.33519   0.33583   0.38594   0.45799
 Alpha virt. eigenvalues --    0.45900   0.49409   0.56509   0.60791   0.70511
 Alpha virt. eigenvalues --    0.70669   0.73876   0.77643   0.85985   0.87647
 Alpha virt. eigenvalues --    0.89701   0.95300   0.97200   1.02591   1.03101
 Alpha virt. eigenvalues --    1.12736   1.13656   1.17369   1.21846   1.26074
 Alpha virt. eigenvalues --    1.27782   1.28163   1.29114   1.31315   1.36797
 Alpha virt. eigenvalues --    1.44972   1.45844   1.53351   1.59931   1.62051
 Alpha virt. eigenvalues --    1.63577   1.65549   1.73331   1.78325   1.78335
 Alpha virt. eigenvalues --    1.87951   2.02037   2.07807   2.13615   2.21910
 Alpha virt. eigenvalues --    2.34144   2.37513   2.52305   2.56101   2.59191
 Alpha virt. eigenvalues --    2.72393   2.92413   3.01350   3.06775   3.11423
 Alpha virt. eigenvalues --    3.12244   3.15035   3.30775   3.31316   3.53982
 Alpha virt. eigenvalues --    3.56634   3.63789   3.67433   3.70166   3.72319
 Alpha virt. eigenvalues --    3.80097   3.81302   3.81689   3.83225   3.92706
 Alpha virt. eigenvalues --    3.93402   3.97453   3.97931   4.02084   4.03439
 Alpha virt. eigenvalues --    4.07297   4.11589   4.12054   4.12255   4.13387
 Alpha virt. eigenvalues --    4.15083   4.18161   4.24252   4.25586   4.26052
 Alpha virt. eigenvalues --    4.33979   4.39117   4.40041   4.45344   4.49999
 Alpha virt. eigenvalues --    4.50063   4.59418   4.65967   4.71962   4.84736
 Alpha virt. eigenvalues --    4.90546   4.94303   4.98180   5.01304   5.04346
 Alpha virt. eigenvalues --    5.22506   5.25121   5.42926   5.43402   5.70986
 Alpha virt. eigenvalues --    5.74388   5.75884   5.76519   5.78667   6.06129
 Alpha virt. eigenvalues --    6.11090   6.13862   6.26429   6.52984   6.56901
 Alpha virt. eigenvalues --    6.81400   6.93855   6.98152   7.65140
          Condensed to atoms (all electrons):
               1          2          3          4          5          6
     1  C    4.540661   0.630857   0.271539   0.271539  -0.009596  -0.009596
     2  O    0.630857   7.930978  -0.072864  -0.072864  -0.000080  -0.000080
     3  C    0.271539  -0.072864   5.456042  -0.003219   0.376004  -0.001933
     4  C    0.271539  -0.072864  -0.003219   5.456042  -0.001933   0.376004
     5  H   -0.009596  -0.000080   0.376004  -0.001933   0.554800  -0.000438
     6  H   -0.009596  -0.000080  -0.001933   0.376004  -0.000438   0.554800
 Mulliken charges:
               1
     1  C    0.304597
     2  O   -0.415947
     3  C   -0.025569
     4  C   -0.025569
     5  H    0.081244
     6  H    0.081244
 Sum of Mulliken charges =   0.00000
 Mulliken charges with hydrogens summed into heavy atoms:
               1
     1  C    0.304597
     2  O   -0.415947
     3  C    0.055675
     4  C    0.055675
 Electronic spatial extent (au):  <R**2>=            210.3576
 Charge=              0.0000 electrons
 Dipole moment (field-independent basis, Debye):
    X=             -0.0000    Y=              0.0000    Z=             -4.3070  Tot=              4.3070
 Quadrupole moment (field-independent basis, Debye-Ang):
   XX=            -22.5370   YY=            -19.7317   ZZ=            -25.4874
   XY=              0.0000   XZ=              0.0000   YZ=              0.0000
 Traceless Quadrupole moment (field-independent basis, Debye-Ang):
   XX=              0.0483   YY=              2.8537   ZZ=             -2.9020
   XY=              0.0000   XZ=              0.0000   YZ=              0.0000
 Octapole moment (field-independent basis, Debye-Ang**2):
  XXX=              0.0000  YYY=              0.0000  ZZZ=             -7.5783  XYY=              0.0000
  XXY=              0.0000  XXZ=              2.1692  XZZ=              0.0000  YZZ=              0.0000
  YYZ=             -4.8078  XYZ=             -0.0000
 Hexadecapole moment (field-independent basis, Debye-Ang**3):
 XXXX=            -22.9753 YYYY=            -61.5658 ZZZZ=           -190.1159 XXXY=             -0.0000
 XXXZ=             -0.0000 YYYX=             -0.0000 YYYZ=              0.0000 ZZZX=             -0.0000
 ZZZY=              0.0000 XXYY=            -15.7641 XXZZ=            -35.0881 YYZZ=            -33.4080
 XXYZ=             -0.0000 YYXZ=             -0.0000 ZZXY=              0.0000
 N-N= 9.587485678515D+01 E-N=-6.376625382546D+02  KE= 1.900798706682D+02
 Symmetry A1   KE= 1.418389423195D+02
 Symmetry A2   KE= 1.965639001718D-20
 Symmetry B1   KE= 6.214124978611D+00
 Symmetry B2   KE= 4.202680337006D+01
 Calling FoFJK, ICntrl=      2127 FMM=F ISym2X=1 I1Cent= 0 IOpClX= 0 NMat=1 NMatS=1 NMatT=0.
 ***** Axes restored to original set *****
 -------------------------------------------------------------------
 Center     Atomic                   Forces (Hartrees/Bohr)
 Number     Number              X              Y              Z
 -------------------------------------------------------------------
      1        6          -0.000000000    0.000000000   -0.000326323
      2        8          -0.000000000   -0.000000000    0.000303700
      3        6          -0.000000000    0.000000664   -0.000012933
      4        6           0.000000000   -0.000000664   -0.000012933
      5        1           0.000000000    0.000027110    0.000024244
      6        1           0.000000000   -0.000027110    0.000024244
 -------------------------------------------------------------------
 Cartesian Forces:  Max     0.000326323 RMS     0.000105856

 GradGradGradGradGradGradGradGradGradGradGradGradGradGradGradGradGradGrad
 Berny optimization.
 FormGI is forming the generalized inverse of G from B-inverse, IUseBI=4.
 Internal  Forces:  Max     0.000303700 RMS     0.000076814
 Search for a local minimum.
 Step number   1 out of a maximum of   27
 All quantities printed in internal units (Hartrees-Bohrs-Radians)
 Mixed Optimization -- En-DIIS/RFO-DIIS
 Second derivative matrix not updated -- first step.
 The second derivative matrix:
                          R1        R2        R3        R4        R5
           R1           1.04725
           R2           0.00000   0.41468
           R3           0.00000   0.00000   0.41468
           R4           0.00000   0.00000   0.00000   0.57408
           R5           0.00000   0.00000   0.00000   0.00000   0.35946
           R6           0.00000   0.00000   0.00000   0.00000   0.00000
           A1           0.00000   0.00000   0.00000   0.00000   0.00000
           A2           0.00000   0.00000   0.00000   0.00000   0.00000
           A3           0.00000   0.00000   0.00000   0.00000   0.00000
           A4           0.00000   0.00000   0.00000   0.00000   0.00000
           A5           0.00000   0.00000   0.00000   0.00000   0.00000
           A6           0.00000   0.00000   0.00000   0.00000   0.00000
           D1           0.00000   0.00000   0.00000   0.00000   0.00000
           D2           0.00000   0.00000   0.00000   0.00000   0.00000
           D3           0.00000   0.00000   0.00000   0.00000   0.00000
           D4           0.00000   0.00000   0.00000   0.00000   0.00000
           D5           0.00000   0.00000   0.00000   0.00000   0.00000
                          R6        A1        A2        A3        A4
           R6           0.35946
           A1           0.00000   0.25000
           A2           0.00000   0.00000   0.25000
           A3           0.00000   0.00000   0.00000   0.16000
           A4           0.00000   0.00000   0.00000   0.00000   0.16000
           A5           0.00000   0.00000   0.00000   0.00000   0.00000
           A6           0.00000   0.00000   0.00000   0.00000   0.00000
           D1           0.00000   0.00000   0.00000   0.00000   0.00000
           D2           0.00000   0.00000   0.00000   0.00000   0.00000
           D3           0.00000   0.00000   0.00000   0.00000   0.00000
           D4           0.00000   0.00000   0.00000   0.00000   0.00000
           D5           0.00000   0.00000   0.00000   0.00000   0.00000
                          A5        A6        D1        D2        D3
           A5           0.16000
           A6           0.00000   0.16000
           D1           0.00000   0.00000   0.01736
           D2           0.00000   0.00000   0.00000   0.01736
           D3           0.00000   0.00000   0.00000   0.00000   0.01736
           D4           0.00000   0.00000   0.00000   0.00000   0.00000
           D5           0.00000   0.00000   0.00000   0.00000   0.00000
                          D4        D5
           D4           0.02894
           D5           0.00000   0.02894
 ITU=  0
     Eigenvalues ---    0.01736   0.02154   0.02464   0.16000   0.16000
     Eigenvalues ---    0.25000   0.35946   0.35946   0.36480   0.40232
     Eigenvalues ---    0.53756   1.04725
 RFO step:  Lambda=-1.26949586D-07 EMin= 1.73565564D-02
 Linear search not attempted -- first point.
 Iteration  1 RMS(Cart)=  0.00016211 RMS(Int)=  0.00000002
 Iteration  2 RMS(Cart)=  0.00000002 RMS(Int)=  0.00000000
 ClnCor:  largest displacement from symmetrization is 1.12D-12 for atom     1.
 Variable       Old X    -DE/DX   Delta X   Delta X   Delta X     New X
                                 (Linear)    (Quad)   (Total)
    R1        2.26804   0.00030   0.00000   0.00029   0.00029   2.26833
    R2        2.69606  -0.00002   0.00000  -0.00004  -0.00004   2.69602
    R3        2.69606  -0.00002   0.00000  -0.00004  -0.00004   2.69602
    R4        2.53052   0.00004   0.00000   0.00008   0.00008   2.53060
    R5        2.04166   0.00001   0.00000   0.00002   0.00002   2.04168
    R6        2.04166   0.00001   0.00000   0.00002   0.00002   2.04168
    A1        2.65309  -0.00001   0.00000  -0.00003  -0.00003   2.65307
    A2        2.65309  -0.00001   0.00000  -0.00003  -0.00003   2.65307
    A3        2.68564  -0.00003   0.00000  -0.00021  -0.00021   2.68542
    A4        2.51525   0.00004   0.00000   0.00024   0.00024   2.51549
    A5        2.68564  -0.00003   0.00000  -0.00021  -0.00021   2.68542
    A6        2.51525   0.00004   0.00000   0.00024   0.00024   2.51549
    D1        3.14159  -0.00000   0.00000  -0.00000   0.00000   3.14159
    D2        0.00000   0.00000   0.00000   0.00000   0.00000   0.00000
    D3        0.00000   0.00000   0.00000   0.00000   0.00000   0.00000
    D4        0.00000  -0.00000   0.00000  -0.00000  -0.00000   0.00000
    D5        3.14159  -0.00000   0.00000  -0.00000   0.00000   3.14159
         Item               Value     Threshold  Converged?
 Maximum Force            0.000304     0.000450     YES
 RMS     Force            0.000077     0.000300     YES
 Maximum Displacement     0.000344     0.001800     YES
 RMS     Displacement     0.000162     0.001200     YES
 Predicted change in Energy=-6.347480D-08
 Optimization completed.
    -- Stationary point found.
                           ----------------------------
                           !   Optimized Parameters   !
                           ! (Angstroms and Degrees)  !
 --------------------------                            --------------------------
 ! Name  Definition              Value          Derivative Info.                !
 --------------------------------------------------------------------------------
 ! R1    R(1,2)                  1.2002         -DE/DX =    0.0003              !
 ! R2    R(1,3)                  1.4267         -DE/DX =    0.0                 !
 ! R3    R(1,4)                  1.4267         -DE/DX =    0.0                 !
 ! R4    R(3,4)                  1.3391         -DE/DX =    0.0                 !
 ! R5    R(3,5)                  1.0804         -DE/DX =    0.0                 !
 ! R6    R(4,6)                  1.0804         -DE/DX =    0.0                 !
 ! A1    A(2,1,3)              152.0111         -DE/DX =    0.0                 !
 ! A2    A(2,1,4)              152.0111         -DE/DX =    0.0                 !
 ! A3    A(1,3,5)              153.8756         -DE/DX =    0.0                 !
 ! A4    A(4,3,5)              144.1133         -DE/DX =    0.0                 !
 ! A5    A(1,4,6)              153.8756         -DE/DX =    0.0                 !
 ! A6    A(3,4,6)              144.1133         -DE/DX =    0.0                 !
 ! D1    D(2,1,3,4)            180.0            -DE/DX =    0.0                 !
 ! D2    D(2,1,3,5)              0.0            -DE/DX =    0.0                 !
 ! D3    D(2,1,4,6)              0.0            -DE/DX =    0.0                 !
 ! D4    D(5,3,4,6)              0.0            -DE/DX =    0.0                 !
 ! D5    D(6,3,4,1)            180.0            -DE/DX =    0.0                 !
 --------------------------------------------------------------------------------
 GradGradGradGradGradGradGradGradGradGradGradGradGradGradGradGradGradGrad

                          Input orientation:                          
 ---------------------------------------------------------------------
 Center     Atomic      Atomic             Coordinates (Angstroms)
 Number     Number       Type             X           Y           Z
 ---------------------------------------------------------------------
      1          6           0       -0.000000    0.000000    0.332236
      2          8           0       -0.000000   -0.000000    1.532432
      3          6           0        0.000000    0.669548   -0.927589
      4          6           0       -0.000000   -0.669548   -0.927589
      5          1           0        0.000000    1.544863   -1.560901
      6          1           0       -0.000000   -1.544863   -1.560901
 ---------------------------------------------------------------------
                    Distance matrix (angstroms):
                    1          2          3          4          5
     1  C    0.000000
     2  O    1.200196   0.000000
     3  C    1.426693   2.549509   0.000000
     4  C    1.426693   2.549509   1.339096   0.000000
     5  H    2.443475   3.457645   1.080398   2.303193   0.000000
     6  H    2.443475   3.457645   2.303193   1.080398   3.089726
                    6
     6  H    0.000000
 Stoichiometry    C3H2O
 Framework group  C2V[C2(CO),SGV(C2H2)]
 Deg. of freedom     5
 Full point group                 C2V     NOp   4
 Largest Abelian subgroup         C2V     NOp   4
 Largest concise Abelian subgroup C2      NOp   2
                         Standard orientation:                         
 ---------------------------------------------------------------------
 Center     Atomic      Atomic             Coordinates (Angstroms)
 Number     Number       Type             X           Y           Z
 ---------------------------------------------------------------------
      1          6           0        0.000000    0.000000    0.332236
      2          8           0        0.000000    0.000000    1.532432
      3          6           0        0.000000    0.669548   -0.927589
      4          6           0       -0.000000   -0.669548   -0.927589
      5          1           0        0.000000    1.544863   -1.560901
      6          1           0       -0.000000   -1.544863   -1.560901
 ---------------------------------------------------------------------
 Rotational constants (GHZ):          32.4592976           7.8633093           6.3298858
 1\1\GINC-GAMBA\FOpt\RB3LYP\Gen\C3H2O1\IRIKURA\29-Sep-2023\0\\# b3lyp/g
 en opt freq CPHF(Grid=OneStep)\\cyclopropenone, B3LYP/pcseg-2\\0,1\C,0
 .,0.,0.332236\O,0.,0.,1.532432\C,0.,0.669548,-0.927589\C,0.,-0.669548,
 -0.927589\H,0.,1.544863,-1.560901\H,0.,-1.544863,-1.560901\\Version=ES
 64L-G16RevB.01\State=1-A1\HF=-190.7225112\RMSD=3.406e-09\RMSF=1.059e-0
 4\Dipole=0.,0.,-1.6945239\Quadrupole=0.0359363,2.1216215,-2.1575578,0.
 ,0.,0.\PG=C02V [C2(C1O1),SGV(C2H2)]\\@


 If fifty million people say a stupid thing,
 it is still a stupid thing.
                   -- Anatole France
 Job cpu time:       0 days  0 hours  0 minutes 29.1 seconds.
 Elapsed time:       0 days  0 hours  0 minutes  7.4 seconds.
 File lengths (MBytes):  RWF=     15 Int=      0 D2E=      0 Chk=      3 Scr=      1
 Normal termination of Gaussian 16 at Fri Sep 29 09:26:08 2023.
 Link1:  Proceeding to internal job step number  2.
 ------------------------------------------------------------------
 #N Geom=AllCheck Guess=TCheck SCRF=Check GenChk RB3LYP/ChkBas Freq
 ------------------------------------------------------------------
 1/10=4,29=7,30=1,38=1,40=1/1,3;
 2/12=2,40=1/2;
 3/5=7,6=2,11=2,14=-4,25=1,30=1,67=1,70=2,71=2,74=-5,82=7,116=1,140=1/1,2,3;
 4/5=101/1;
 5/5=2,38=6,98=1/2;
 8/6=4,10=90,11=11/1;
 11/6=1,8=1,9=11,15=111,16=1/1,2,10;
 10/6=1,60=-420/2;
 6/7=2,8=2,9=2,10=2,28=1/1;
 7/8=1,10=1,25=1/1,2,3,16;
 1/10=4,30=1/3;
 99//99;
 Structure from the checkpoint file:  "c3h2o.chk"
 -----------------------------
 cyclopropenone, B3LYP/pcseg-2
 -----------------------------
 Charge =  0 Multiplicity = 1
 Redundant internal coordinates found in file.  (old form).
 C,0,0.,0.,0.332236
 O,0,0.,0.,1.532432
 C,0,0.,0.669548,-0.927589
 C,0,0.,-0.669548,-0.927589
 H,0,0.,1.544863,-1.560901
 H,0,0.,-1.544863,-1.560901
 Recover connectivity data from disk.

 GradGradGradGradGradGradGradGradGradGradGradGradGradGradGradGradGradGrad
 Berny optimization.
 Initialization pass.
                           ----------------------------
                           !    Initial Parameters    !
                           ! (Angstroms and Degrees)  !
 --------------------------                            --------------------------
 ! Name  Definition              Value          Derivative Info.                !
 --------------------------------------------------------------------------------
 ! R1    R(1,2)                  1.2002         calculate D2E/DX2 analytically  !
 ! R2    R(1,3)                  1.4267         calculate D2E/DX2 analytically  !
 ! R3    R(1,4)                  1.4267         calculate D2E/DX2 analytically  !
 ! R4    R(3,4)                  1.3391         calculate D2E/DX2 analytically  !
 ! R5    R(3,5)                  1.0804         calculate D2E/DX2 analytically  !
 ! R6    R(4,6)                  1.0804         calculate D2E/DX2 analytically  !
 ! A1    A(2,1,3)              152.0111         calculate D2E/DX2 analytically  !
 ! A2    A(2,1,4)              152.0111         calculate D2E/DX2 analytically  !
 ! A3    A(1,3,5)              153.8756         calculate D2E/DX2 analytically  !
 ! A4    A(4,3,5)              144.1133         calculate D2E/DX2 analytically  !
 ! A5    A(1,4,6)              153.8756         calculate D2E/DX2 analytically  !
 ! A6    A(3,4,6)              144.1133         calculate D2E/DX2 analytically  !
 ! D1    D(2,1,3,4)            180.0            calculate D2E/DX2 analytically  !
 ! D2    D(2,1,3,5)              0.0            calculate D2E/DX2 analytically  !
 ! D3    D(2,1,4,6)              0.0            calculate D2E/DX2 analytically  !
 ! D4    D(5,3,4,6)              0.0            calculate D2E/DX2 analytically  !
 ! D5    D(6,3,4,1)            180.0            calculate D2E/DX2 analytically  !
 --------------------------------------------------------------------------------
 Trust Radius=3.00D-01 FncErr=1.00D-07 GrdErr=1.00D-07 EigMax=2.50D+02 EigMin=1.00D-04
 Number of steps in this run=      2 maximum allowed number of steps=      2.
 GradGradGradGradGradGradGradGradGradGradGradGradGradGradGradGradGradGrad

                          Input orientation:                          
 ---------------------------------------------------------------------
 Center     Atomic      Atomic             Coordinates (Angstroms)
 Number     Number       Type             X           Y           Z
 ---------------------------------------------------------------------
      1          6           0       -0.000000   -0.000000    0.332236
      2          8           0       -0.000000   -0.000000    1.532432
      3          6           0        0.000000    0.669548   -0.927589
      4          6           0       -0.000000   -0.669548   -0.927589
      5          1           0        0.000000    1.544863   -1.560901
      6          1           0       -0.000000   -1.544863   -1.560901
 ---------------------------------------------------------------------
                    Distance matrix (angstroms):
                    1          2          3          4          5
     1  C    0.000000
     2  O    1.200196   0.000000
     3  C    1.426693   2.549509   0.000000
     4  C    1.426693   2.549509   1.339096   0.000000
     5  H    2.443475   3.457645   1.080398   2.303193   0.000000
     6  H    2.443475   3.457645   2.303193   1.080398   3.089726
                    6
     6  H    0.000000
 Stoichiometry    C3H2O
 Framework group  C2V[C2(CO),SGV(C2H2)]
 Deg. of freedom     5
 Full point group                 C2V     NOp   4
 Largest Abelian subgroup         C2V     NOp   4
 Largest concise Abelian subgroup C2      NOp   2
                         Standard orientation:                         
 ---------------------------------------------------------------------
 Center     Atomic      Atomic             Coordinates (Angstroms)
 Number     Number       Type             X           Y           Z
 ---------------------------------------------------------------------
      1          6           0        0.000000   -0.000000    0.332236
      2          8           0        0.000000   -0.000000    1.532432
      3          6           0        0.000000    0.669548   -0.927589
      4          6           0       -0.000000   -0.669548   -0.927589
      5          1           0        0.000000    1.544863   -1.560901
      6          1           0       -0.000000   -1.544863   -1.560901
 ---------------------------------------------------------------------
 Rotational constants (GHZ):          32.4592976           7.8633093           6.3298858
 Basis read from chk: "c3h2o.chk" (5D, 7F)
 There are    67 symmetry adapted cartesian basis functions of A1  symmetry.
 There are    21 symmetry adapted cartesian basis functions of A2  symmetry.
 There are    31 symmetry adapted cartesian basis functions of B1  symmetry.
 There are    51 symmetry adapted cartesian basis functions of B2  symmetry.
 There are    56 symmetry adapted basis functions of A1  symmetry.
 There are    20 symmetry adapted basis functions of A2  symmetry.
 There are    28 symmetry adapted basis functions of B1  symmetry.
 There are    44 symmetry adapted basis functions of B2  symmetry.
   148 basis functions,   240 primitive gaussians,   170 cartesian basis functions
    14 alpha electrons       14 beta electrons
       nuclear repulsion energy        95.8748567852 Hartrees.
 NAtoms=    6 NActive=    6 NUniq=    4 SFac= 2.25D+00 NAtFMM=   60 NAOKFM=F Big=F
 Integral buffers will be    131072 words long.
 Raffenetti 2 integral format.
 Two-electron integral symmetry is turned on.
 One-electron integrals computed using PRISM.
 NBasis=   148 RedAO= T EigKep=  2.39D-04  NBF=    56    20    28    44
 NBsUse=   148 1.00D-06 EigRej= -1.00D+00 NBFU=    56    20    28    44
 Initial guess from the checkpoint file:  "c3h2o.chk"
 B after Tr=    -0.000000    0.000000    0.000000
         Rot=    1.000000    0.000000    0.000000    0.000000 Ang=   0.00 deg.
 Initial guess orbital symmetries:
       Occupied  (A1) (A1) (A1) (B2) (A1) (A1) (B2) (A1) (A1) (B1)
                 (B2) (A1) (B1) (B2)
       Virtual   (A2) (A1) (B1) (B2) (A1) (A1) (B2) (B1) (A1) (B2)
                 (B1) (A2) (B2) (A1) (A1) (B2) (B2) (A1) (A1) (A1)
                 (B2) (B1) (B2) (B2) (B1) (A1) (A2) (A1) (A1) (A1)
                 (B1) (B2) (A1) (A2) (B2) (B1) (A1) (B2) (B1) (A1)
                 (A2) (B2) (B1) (A1) (A2) (A1) (B2) (B2) (A1) (A2)
                 (A1) (B1) (B2) (B2) (A1) (A2) (A1) (B2) (B1) (A1)
                 (B2) (A1) (A1) (B1) (B2) (B2) (B1) (A1) (A1) (B2)
                 (B1) (A2) (A1) (B1) (B2) (A1) (B1) (A2) (A1) (B2)
                 (B1) (A1) (A2) (B2) (A2) (B1) (B2) (A1) (B1) (A1)
                 (B2) (A2) (B1) (A1) (B2) (B2) (A2) (A1) (A1) (B2)
                 (A2) (B1) (B2) (B1) (A2) (A1) (A1) (B2) (B1) (A1)
                 (A2) (B2) (A1) (B2) (A1) (A2) (B2) (A1) (B1) (A1)
                 (A2) (A1) (B1) (B2) (B2) (A2) (A1) (B2) (B1) (B2)
                 (B2) (A1) (A1) (A1)
 Keep R1 ints in memory in symmetry-blocked form, NReq=76286241.
 Requested convergence on RMS density matrix=1.00D-08 within 128 cycles.
 Requested convergence on MAX density matrix=1.00D-06.
 Requested convergence on             energy=1.00D-06.
 No special actions if energy rises.
 SCF Done:  E(RB3LYP) =  -190.722511179     A.U. after    1 cycles
            NFock=  1  Conv=0.17D-08     -V/T= 2.0034
 DoSCS=F DFT=T ScalE2(SS,OS)=  1.000000  1.000000
 Range of M.O.s used for correlation:     1   148
 NBasis=   148 NAE=    14 NBE=    14 NFC=     0 NFV=     0
 NROrb=    148 NOA=    14 NOB=    14 NVA=   134 NVB=   134

 **** Warning!!: The largest alpha MO coefficient is  0.22104825D+02

 Symmetrizing basis deriv contribution to polar:
 IMax=3 JMax=2 DiffMx= 0.00D+00
 G2DrvN: will do     7 centers at a time, making    1 passes.
 Calling FoFCou, ICntrl=  3107 FMM=F I1Cent=   0 AccDes= 0.00D+00.
 End of G2Drv F.D. properties file   721 does not exist.
 End of G2Drv F.D. properties file   722 does not exist.
 End of G2Drv F.D. properties file   788 does not exist.
          IDoAtm=111111
          Differentiating once with respect to electric field.
                with respect to dipole field.
          Differentiating once with respect to nuclear coordinates.
 Keep R1 ints in memory in symmetry-blocked form, NReq=76290082.
          There are    15 degrees of freedom in the 1st order CPHF.  IDoFFX=4 NUNeed=    15.
     15 vectors produced by pass  0 Test12= 1.25D-14 6.67D-09 XBig12= 4.16D+01 4.64D+00.
 AX will form    15 AO Fock derivatives at one time.
     15 vectors produced by pass  1 Test12= 1.25D-14 6.67D-09 XBig12= 1.45D+01 1.06D+00.
     15 vectors produced by pass  2 Test12= 1.25D-14 6.67D-09 XBig12= 4.47D-01 1.92D-01.
     15 vectors produced by pass  3 Test12= 1.25D-14 6.67D-09 XBig12= 2.68D-03 1.12D-02.
     15 vectors produced by pass  4 Test12= 1.25D-14 6.67D-09 XBig12= 1.20D-05 9.31D-04.
     15 vectors produced by pass  5 Test12= 1.25D-14 6.67D-09 XBig12= 2.29D-08 3.51D-05.
      9 vectors produced by pass  6 Test12= 1.25D-14 6.67D-09 XBig12= 3.05D-11 1.18D-06.
      2 vectors produced by pass  7 Test12= 1.25D-14 6.67D-09 XBig12= 4.17D-14 3.66D-08.
 InvSVY:  IOpt=1 It=  1 EMax= 8.88D-16
 Solved reduced A of dimension   101 with    15 vectors.
 Isotropic polarizability for W=    0.000000       33.38 Bohr**3.
 End of Minotr F.D. properties file   721 does not exist.
 End of Minotr F.D. properties file   722 does not exist.
 End of Minotr F.D. properties file   788 does not exist.

 **********************************************************************

            Population analysis using the SCF Density.

 **********************************************************************

 Orbital symmetries:
       Occupied  (A1) (A1) (A1) (B2) (A1) (A1) (B2) (A1) (A1) (B1)
                 (B2) (A1) (B1) (B2)
       Virtual   (A2) (A1) (B1) (B2) (A1) (A1) (B2) (B1) (A1) (B2)
                 (B1) (A2) (B2) (A1) (A1) (B2) (B2) (A1) (A1) (A1)
                 (B2) (B1) (B2) (B2) (B1) (A1) (A2) (A1) (A1) (A1)
                 (B1) (B2) (A1) (A2) (B2) (B1) (A1) (B2) (B1) (A1)
                 (A2) (B2) (B1) (A1) (A2) (A1) (B2) (B2) (A1) (A2)
                 (A1) (B1) (B2) (B2) (A1) (A2) (A1) (B2) (B1) (A1)
                 (B2) (A1) (A1) (B1) (B2) (B2) (B1) (A1) (A1) (B2)
                 (B1) (A2) (A1) (B1) (B2) (A1) (B1) (A2) (A1) (B2)
                 (B1) (A1) (A2) (B2) (A2) (B1) (B2) (A1) (B1) (A1)
                 (B2) (A2) (B1) (A1) (B2) (B2) (A2) (A1) (A1) (B2)
                 (A2) (B1) (B2) (B1) (A2) (A1) (A1) (B2) (B1) (A1)
                 (A2) (B2) (A1) (B2) (A1) (A2) (B2) (A1) (B1) (A1)
                 (A2) (A1) (B1) (B2) (B2) (A2) (A1) (B2) (B1) (B2)
                 (B2) (A1) (A1) (A1)
 The electronic state is 1-A1.
 Alpha  occ. eigenvalues --  -19.10879 -10.28468 -10.23776 -10.23688  -1.04529
 Alpha  occ. eigenvalues --   -0.92807  -0.61249  -0.59496  -0.47840  -0.44216
 Alpha  occ. eigenvalues --   -0.43386  -0.40007  -0.31329  -0.25115
 Alpha virt. eigenvalues --   -0.05584   0.01516   0.02277   0.03342   0.07176
 Alpha virt. eigenvalues --    0.10391   0.11422   0.13933   0.15716   0.20558
 Alpha virt. eigenvalues --    0.22041   0.22708   0.24772   0.25602   0.27013
 Alpha virt. eigenvalues --    0.31083   0.33519   0.33583   0.38594   0.45799
 Alpha virt. eigenvalues --    0.45900   0.49409   0.56509   0.60791   0.70511
 Alpha virt. eigenvalues --    0.70669   0.73876   0.77643   0.85985   0.87647
 Alpha virt. eigenvalues --    0.89701   0.95300   0.97200   1.02591   1.03101
 Alpha virt. eigenvalues --    1.12736   1.13656   1.17369   1.21846   1.26074
 Alpha virt. eigenvalues --    1.27782   1.28163   1.29114   1.31315   1.36797
 Alpha virt. eigenvalues --    1.44972   1.45844   1.53351   1.59931   1.62051
 Alpha virt. eigenvalues --    1.63577   1.65549   1.73331   1.78325   1.78335
 Alpha virt. eigenvalues --    1.87951   2.02037   2.07807   2.13615   2.21910
 Alpha virt. eigenvalues --    2.34144   2.37513   2.52305   2.56101   2.59191
 Alpha virt. eigenvalues --    2.72393   2.92413   3.01350   3.06775   3.11423
 Alpha virt. eigenvalues --    3.12244   3.15035   3.30775   3.31316   3.53982
 Alpha virt. eigenvalues --    3.56634   3.63789   3.67433   3.70166   3.72319
 Alpha virt. eigenvalues --    3.80097   3.81302   3.81689   3.83225   3.92706
 Alpha virt. eigenvalues --    3.93402   3.97453   3.97931   4.02084   4.03439
 Alpha virt. eigenvalues --    4.07297   4.11589   4.12054   4.12255   4.13387
 Alpha virt. eigenvalues --    4.15083   4.18161   4.24252   4.25586   4.26052
 Alpha virt. eigenvalues --    4.33979   4.39117   4.40041   4.45344   4.49999
 Alpha virt. eigenvalues --    4.50063   4.59418   4.65967   4.71962   4.84736
 Alpha virt. eigenvalues --    4.90546   4.94303   4.98180   5.01304   5.04346
 Alpha virt. eigenvalues --    5.22506   5.25121   5.42926   5.43402   5.70986
 Alpha virt. eigenvalues --    5.74388   5.75884   5.76519   5.78667   6.06129
 Alpha virt. eigenvalues --    6.11090   6.13862   6.26429   6.52984   6.56901
 Alpha virt. eigenvalues --    6.81400   6.93855   6.98152   7.65140
          Condensed to atoms (all electrons):
               1          2          3          4          5          6
     1  C    4.540661   0.630857   0.271539   0.271539  -0.009596  -0.009596
     2  O    0.630857   7.930979  -0.072864  -0.072864  -0.000080  -0.000080
     3  C    0.271539  -0.072864   5.456042  -0.003219   0.376004  -0.001933
     4  C    0.271539  -0.072864  -0.003219   5.456042  -0.001933   0.376004
     5  H   -0.009596  -0.000080   0.376004  -0.001933   0.554800  -0.000438
     6  H   -0.009596  -0.000080  -0.001933   0.376004  -0.000438   0.554800
 Mulliken charges:
               1
     1  C    0.304597
     2  O   -0.415947
     3  C   -0.025569
     4  C   -0.025569
     5  H    0.081244
     6  H    0.081244
 Sum of Mulliken charges =   0.00000
 Mulliken charges with hydrogens summed into heavy atoms:
               1
     1  C    0.304597
     2  O   -0.415947
     3  C    0.055675
     4  C    0.055675
 APT charges:
               1
     1  C    0.993972
     2  O   -0.794734
     3  C   -0.199539
     4  C   -0.199539
     5  H    0.099920
     6  H    0.099920
 Sum of APT charges =   0.00000
 APT charges with hydrogens summed into heavy atoms:
               1
     1  C    0.993972
     2  O   -0.794734
     3  C   -0.099619
     4  C   -0.099619
 Electronic spatial extent (au):  <R**2>=            210.3576
 Charge=              0.0000 electrons
 Dipole moment (field-independent basis, Debye):
    X=             -0.0000    Y=              0.0000    Z=             -4.3071  Tot=              4.3071
 Quadrupole moment (field-independent basis, Debye-Ang):
   XX=            -22.5370   YY=            -19.7317   ZZ=            -25.4874
   XY=              0.0000   XZ=              0.0000   YZ=              0.0000
 Traceless Quadrupole moment (field-independent basis, Debye-Ang):
   XX=              0.0483   YY=              2.8537   ZZ=             -2.9020
   XY=              0.0000   XZ=              0.0000   YZ=              0.0000
 Octapole moment (field-independent basis, Debye-Ang**2):
  XXX=              0.0000  YYY=             -0.0000  ZZZ=             -7.5783  XYY=              0.0000
  XXY=             -0.0000  XXZ=              2.1692  XZZ=              0.0000  YZZ=              0.0000
  YYZ=             -4.8078  XYZ=             -0.0000
 Hexadecapole moment (field-independent basis, Debye-Ang**3):
 XXXX=            -22.9753 YYYY=            -61.5658 ZZZZ=           -190.1159 XXXY=             -0.0000
 XXXZ=             -0.0000 YYYX=             -0.0000 YYYZ=              0.0000 ZZZX=             -0.0000
 ZZZY=              0.0000 XXYY=            -15.7641 XXZZ=            -35.0881 YYZZ=            -33.4080
 XXYZ=             -0.0000 YYXZ=             -0.0000 ZZXY=              0.0000
 N-N= 9.587485678515D+01 E-N=-6.376625395259D+02  KE= 1.900798711650D+02
 Symmetry A1   KE= 1.418389425225D+02
 Symmetry A2   KE= 1.344074014655D-19
 Symmetry B1   KE= 6.214125143278D+00
 Symmetry B2   KE= 4.202680349923D+01
  Exact polarizability:  20.231   0.000  35.538   0.000  -0.000  44.374
 Approx polarizability:  29.469   0.000  56.845   0.000  -0.000  69.601
 Calling FoFJK, ICntrl=    100127 FMM=F ISym2X=1 I1Cent= 0 IOpClX= 0 NMat=1 NMatS=1 NMatT=0.
 Full mass-weighted force constant matrix:
 Low frequencies ---   -9.3448   -8.6070   -8.3606   -0.0013   -0.0010   -0.0009
 Low frequencies ---  470.9371  523.7866  766.8826
 Diagonal vibrational polarizability:
        4.0255367       1.7010790       5.3337461
 Harmonic frequencies (cm**-1), IR intensities (KM/Mole), Raman scattering
 activities (A**4/AMU), depolarization ratios for plane and unpolarized
 incident light, reduced masses (AMU), force constants (mDyne/A),
 and normal coordinates:
                      1                      2                      3
                     B1                     B2                     B1
 Frequencies --    470.9369               523.7866               766.8826
 Red. masses --      1.9486                 3.2198                 2.2200
 Frc consts  --      0.2546                 0.5205                 0.7692
 IR Inten    --     12.2232                 0.1957                55.5600
  Atom  AN      X      Y      Z        X      Y      Z        X      Y      Z
     1   6     0.26  -0.00   0.00    -0.00  -0.21   0.00     0.26   0.00   0.00
     2   8    -0.12   0.00   0.00     0.00   0.22   0.00    -0.08  -0.00   0.00
     3   6     0.01  -0.00   0.00    -0.00  -0.06   0.20    -0.13  -0.00  -0.00
     4   6     0.01  -0.00  -0.00    -0.00  -0.06  -0.20    -0.13  -0.00   0.00
     5   1    -0.68   0.00   0.00     0.00   0.22   0.60     0.67   0.00   0.00
     6   1    -0.68   0.00  -0.00     0.00   0.22  -0.60     0.67   0.00  -0.00
                      4                      5                      6
                     B2                     A1                     A2
 Frequencies --    827.3558               854.3948               985.9607
 Red. masses --      3.1320                 1.5681                 1.4057
 Frc consts  --      1.2632                 0.6744                 0.8051
 IR Inten    --     34.9459                 0.0854                 0.0000
  Atom  AN      X      Y      Z        X      Y      Z        X      Y      Z
     1   6    -0.00   0.37   0.00     0.00   0.00  -0.09    -0.00  -0.00  -0.00
     2   8     0.00  -0.07   0.00    -0.00  -0.00  -0.13     0.00   0.00  -0.00
     3   6     0.00  -0.15   0.03     0.00   0.03   0.09    -0.13   0.00   0.00
     4   6     0.00  -0.15  -0.03    -0.00  -0.03   0.09     0.13   0.00   0.00
     5   1    -0.00   0.23   0.59    -0.00   0.38   0.58     0.69   0.00   0.00
     6   1    -0.00   0.23  -0.59     0.00  -0.38   0.58    -0.69  -0.00   0.00
                      7                      8                      9
                     A1                     B2                     A1
 Frequencies --   1045.3330              1156.7372              1564.1127
 Red. masses --      2.4595                 2.2313                 5.9968
 Frc consts  --      1.5834                 1.7590                 8.6439
 IR Inten    --      3.7347                15.0839                11.3721
  Atom  AN      X      Y      Z        X      Y      Z        X      Y      Z
     1   6    -0.00   0.00   0.05     0.00   0.12  -0.00    -0.00  -0.00  -0.03
     2   8     0.00  -0.00   0.20    -0.00  -0.01   0.00     0.00   0.00   0.08
     3   6    -0.00  -0.01  -0.20    -0.00  -0.01   0.22    -0.00   0.47   0.00
     4   6     0.00   0.01  -0.20     0.00  -0.01  -0.22    -0.00  -0.47   0.00
     5   1     0.00   0.48   0.46     0.00  -0.49  -0.45     0.00   0.31  -0.42
     6   1    -0.00  -0.48   0.46    -0.00  -0.49   0.45     0.00  -0.31  -0.42
                     10                     11                     12
                     A1                     B2                     A1
 Frequencies --   1921.1895              3187.7703              3219.7911
 Red. masses --     10.8782                 1.0884                 1.1326
 Frc consts  --     23.6564                 6.5165                 6.9182
 IR Inten    --    700.9212                 1.7534                 1.1720
  Atom  AN      X      Y      Z        X      Y      Z        X      Y      Z
     1   6    -0.00  -0.00   0.79     0.00   0.00   0.00    -0.00  -0.00  -0.01
     2   8     0.00  -0.00  -0.42    -0.00   0.00  -0.00     0.00   0.00   0.00
     3   6    -0.00   0.05  -0.12    -0.00  -0.05   0.04     0.00  -0.06   0.04
     4   6     0.00  -0.05  -0.12     0.00  -0.05  -0.04    -0.00   0.06   0.04
     5   1     0.00   0.29  -0.01    -0.00   0.57  -0.41     0.00   0.57  -0.41
     6   1     0.00  -0.29  -0.01    -0.00   0.57   0.41     0.00  -0.57  -0.41

 -------------------
 - Thermochemistry -
 -------------------
 Temperature   298.150 Kelvin.  Pressure   1.00000 Atm.
 Atom     1 has atomic number  6 and mass  12.00000
 Atom     2 has atomic number  8 and mass  15.99491
 Atom     3 has atomic number  6 and mass  12.00000
 Atom     4 has atomic number  6 and mass  12.00000
 Atom     5 has atomic number  1 and mass   1.00783
 Atom     6 has atomic number  1 and mass   1.00783
 Molecular mass:    54.01056 amu.
 Principal axes and moments of inertia in atomic units:
                           1         2         3
     Eigenvalues --    55.60013 229.51421 285.11434
           X            0.00000   0.00000   1.00000
           Y            0.00000   1.00000   0.00000
           Z            1.00000   0.00000   0.00000
 This molecule is an asymmetric top.
 Rotational symmetry number  2.
 Rotational temperatures (Kelvin)      1.55780     0.37738     0.30379
 Rotational constants (GHZ):          32.45930     7.86331     6.32989
 Zero-point vibrational energy      98837.0 (Joules/Mol)
                                   23.62260 (Kcal/Mol)
 Warning -- explicit consideration of   2 degrees of freedom as
           vibrations may cause significant error
 Vibrational temperatures:    677.57   753.61  1103.37  1190.38  1229.28
          (Kelvin)           1418.58  1504.00  1664.29  2250.41  2764.16
                             4586.49  4632.56
 
 Zero-point correction=                           0.037645 (Hartree/Particle)
 Thermal correction to Energy=                    0.041249
 Thermal correction to Enthalpy=                  0.042193
 Thermal correction to Gibbs Free Energy=         0.012982
 Sum of electronic and zero-point Energies=           -190.684866
 Sum of electronic and thermal Energies=              -190.681262
 Sum of electronic and thermal Enthalpies=            -190.680318
 Sum of electronic and thermal Free Energies=         -190.709529
 
                     E (Thermal)             CV                S
                      KCal/Mol        Cal/Mol-Kelvin    Cal/Mol-Kelvin
 Total                   25.884             11.386             61.481
 Electronic               0.000              0.000              0.000
 Translational            0.889              2.981             37.882
 Rotational               0.889              2.981             21.436
 Vibrational             24.107              5.425              2.163
 Vibration     1          0.828              1.315              0.735
 Vibration     2          0.879              1.197              0.601
                       Q            Log10(Q)             Ln(Q)
 Total Bot       0.106862D-05         -5.971175        -13.749140
 Total V=0       0.220960D+12         11.344314         26.121247
 Vib (Bot)       0.634431D-17        -17.197615        -39.598973
 Vib (Bot)    1  0.357884D+00         -0.446258         -1.027546
 Vib (Bot)    2  0.307095D+00         -0.512727         -1.180597
 Vib (V=0)       0.131182D+01          0.117874          0.271415
 Vib (V=0)    1  0.111488D+01          0.047229          0.108749
 Vib (V=0)    2  0.108678D+01          0.036141          0.083217
 Electronic      0.100000D+01          0.000000          0.000000
 Translational   0.156017D+08          7.193172         16.562891
 Rotational      0.107961D+05          4.033268          9.286942
 ***** Axes restored to original set *****
 -------------------------------------------------------------------
 Center     Atomic                   Forces (Hartrees/Bohr)
 Number     Number              X              Y              Z
 -------------------------------------------------------------------
      1        6          -0.000000000    0.000000000   -0.000326500
      2        8          -0.000000000   -0.000000000    0.000303826
      3        6          -0.000000000    0.000000663   -0.000012923
      4        6           0.000000000   -0.000000663   -0.000012923
      5        1           0.000000000    0.000027101    0.000024260
      6        1           0.000000000   -0.000027101    0.000024260
 -------------------------------------------------------------------
 Cartesian Forces:  Max     0.000326500 RMS     0.000105907
 FormGI is forming the generalized inverse of G from B-inverse, IUseBI=4.

 GradGradGradGradGradGradGradGradGradGradGradGradGradGradGradGradGradGrad
 Berny optimization.
 Internal  Forces:  Max     0.000303826 RMS     0.000076845
 Search for a local minimum.
 Step number   1 out of a maximum of    2
 All quantities printed in internal units (Hartrees-Bohrs-Radians)
 Second derivative matrix not updated -- analytic derivatives used.
 The second derivative matrix:
                          R1        R2        R3        R4        R5
           R1           0.83891
           R2           0.05097   0.25031
           R3           0.05097   0.06463   0.25031
           R4          -0.00335   0.02052   0.02052   0.45189
           R5           0.00507   0.00017  -0.00717   0.00560   0.35768
           R6           0.00507  -0.00717   0.00017   0.00560  -0.00001
           A1           0.01075   0.03842   0.01505  -0.09086  -0.00422
           A2           0.01075   0.01505   0.03842  -0.09086   0.00049
           A3           0.00290   0.01173  -0.03846   0.03992  -0.00087
           A4          -0.01365   0.02634  -0.05306   0.05094   0.00529
           A5           0.00290  -0.03846   0.01173   0.03992   0.00189
           A6          -0.01365  -0.05306   0.02634   0.05094  -0.00259
           D1           0.00000  -0.00000   0.00000  -0.00000   0.00000
           D2           0.00000  -0.00000   0.00000  -0.00000   0.00000
           D3          -0.00000  -0.00000   0.00000   0.00000   0.00000
           D4           0.00000   0.00000  -0.00000  -0.00000  -0.00000
           D5           0.00000  -0.00000   0.00000  -0.00000   0.00000
                          R6        A1        A2        A3        A4
           R6           0.35768
           A1           0.00049   0.09083
           A2          -0.00422  -0.04213   0.09083
           A3           0.00189  -0.00357  -0.01847   0.04323
           A4          -0.00259  -0.01262  -0.01404  -0.01470   0.05574
           A5          -0.00087  -0.01847  -0.00357   0.00111  -0.00760
           A6           0.00529  -0.01404  -0.01262  -0.00760  -0.00677
           D1          -0.00000  -0.00000   0.00000  -0.00000  -0.00000
           D2           0.00000   0.00000  -0.00000   0.00000  -0.00000
           D3          -0.00000   0.00000  -0.00000  -0.00000  -0.00000
           D4           0.00000  -0.00000   0.00000  -0.00000   0.00000
           D5          -0.00000  -0.00000   0.00000  -0.00000  -0.00000
                          A5        A6        D1        D2        D3
           A5           0.04323
           A6          -0.01470   0.05574
           D1           0.00000  -0.00000   0.02110
           D2          -0.00000   0.00000  -0.00227   0.00632
           D3           0.00000   0.00000  -0.00366  -0.00063   0.00412
           D4          -0.00000  -0.00000   0.00445  -0.00427  -0.00262
           D5           0.00000   0.00000   0.01310  -0.00218   0.00035
                          D4        D5
           D4           0.00518
           D5           0.00138   0.01010
 ITU=  0
     Eigenvalues ---    0.00639   0.00886   0.03157   0.05409   0.06828
     Eigenvalues ---    0.12918   0.23916   0.31858   0.35854   0.35891
     Eigenvalues ---    0.50954   0.85010
 Angle between quadratic step and forces=  56.79 degrees.
 Linear search not attempted -- first point.
 Iteration  1 RMS(Cart)=  0.00037003 RMS(Int)=  0.00000012
 Iteration  2 RMS(Cart)=  0.00000011 RMS(Int)=  0.00000000
 ClnCor:  largest displacement from symmetrization is 3.50D-12 for atom     6.
 Variable       Old X    -DE/DX   Delta X   Delta X   Delta X     New X
                                 (Linear)    (Quad)   (Total)
    R1        2.26804   0.00030   0.00000   0.00040   0.00040   2.26844
    R2        2.69606  -0.00002   0.00000  -0.00011  -0.00011   2.69595
    R3        2.69606  -0.00002   0.00000  -0.00011  -0.00011   2.69595
    R4        2.53052   0.00004   0.00000   0.00006   0.00006   2.53058
    R5        2.04166   0.00001   0.00000   0.00001   0.00001   2.04167
    R6        2.04166   0.00001   0.00000   0.00001   0.00001   2.04167
    A1        2.65309  -0.00001   0.00000  -0.00003  -0.00003   2.65306
    A2        2.65309  -0.00001   0.00000  -0.00003  -0.00003   2.65306
    A3        2.68564  -0.00003   0.00000  -0.00055  -0.00055   2.68508
    A4        2.51525   0.00004   0.00000   0.00058   0.00058   2.51584
    A5        2.68564  -0.00003   0.00000  -0.00055  -0.00055   2.68508
    A6        2.51525   0.00004   0.00000   0.00058   0.00058   2.51584
    D1        3.14159  -0.00000   0.00000  -0.00000   0.00000   3.14159
    D2        0.00000   0.00000   0.00000   0.00000  -0.00000   0.00000
    D3        0.00000   0.00000   0.00000   0.00000   0.00000   0.00000
    D4       -0.00000  -0.00000   0.00000  -0.00000   0.00000   0.00000
    D5        3.14159  -0.00000   0.00000  -0.00000   0.00000   3.14159
         Item               Value     Threshold  Converged?
 Maximum Force            0.000304     0.000450     YES
 RMS     Force            0.000077     0.000300     YES
 Maximum Displacement     0.000736     0.001800     YES
 RMS     Displacement     0.000370     0.001200     YES
 Predicted change in Energy=-1.056001D-07
 Optimization completed.
    -- Stationary point found.
                           ----------------------------
                           !   Optimized Parameters   !
                           ! (Angstroms and Degrees)  !
 --------------------------                            --------------------------
 ! Name  Definition              Value          Derivative Info.                !
 --------------------------------------------------------------------------------
 ! R1    R(1,2)                  1.2002         -DE/DX =    0.0003              !
 ! R2    R(1,3)                  1.4267         -DE/DX =    0.0                 !
 ! R3    R(1,4)                  1.4267         -DE/DX =    0.0                 !
 ! R4    R(3,4)                  1.3391         -DE/DX =    0.0                 !
 ! R5    R(3,5)                  1.0804         -DE/DX =    0.0                 !
 ! R6    R(4,6)                  1.0804         -DE/DX =    0.0                 !
 ! A1    A(2,1,3)              152.0111         -DE/DX =    0.0                 !
 ! A2    A(2,1,4)              152.0111         -DE/DX =    0.0                 !
 ! A3    A(1,3,5)              153.8756         -DE/DX =    0.0                 !
[...]
 ---------------------------------------------------------------------
 Center     Atomic      Atomic             Coordinates (Angstroms)
 Number     Number       Type             X           Y           Z
 ---------------------------------------------------------------------
      1          6           0       -0.000000   -0.000000    0.332236
      2          8           0       -0.000000   -0.000000    1.532432
      3          6           0        0.000000    0.669548   -0.927589
      4          6           0       -0.000000   -0.669548   -0.927589
      5          1           0        0.000000    1.544863   -1.560901
      6          1           0       -0.000000   -1.544863   -1.560901
 ---------------------------------------------------------------------
                    Distance matrix (angstroms):
                    1          2          3          4          5
     1  C    0.000000
     2  O    1.200196   0.000000
     3  C    1.426693   2.549509   0.000000
     4  C    1.426693   2.549509   1.339096   0.000000
     5  H    2.443475   3.457645   1.080398   2.303193   0.000000
     6  H    2.443475   3.457645   2.303193   1.080398   3.089726
                    6
     6  H    0.000000
 Stoichiometry    C3H2O
 Framework group  C2V[C2(CO),SGV(C2H2)]
 Deg. of freedom     5
 Full point group                 C2V     NOp   4
 Largest Abelian subgroup         C2V     NOp   4
 Largest concise Abelian subgroup C2      NOp   2
                         Standard orientation:                         
 ---------------------------------------------------------------------
 Center     Atomic      Atomic             Coordinates (Angstroms)
 Number     Number       Type             X           Y           Z
 ---------------------------------------------------------------------
      1          6           0        0.000000    0.000000    0.332236
      2          8           0        0.000000    0.000000    1.532432
      3          6           0        0.000000    0.669548   -0.927589
      4          6           0       -0.000000   -0.669548   -0.927589
      5          1           0        0.000000    1.544863   -1.560901
      6          1           0       -0.000000   -1.544863   -1.560901
 ---------------------------------------------------------------------
 Rotational constants (GHZ):          32.4592976           7.8633093           6.3298858
 General basis read from cards:  (5D, 7F)
 There are   110 symmetry adapted cartesian basis functions of A1  symmetry.
 There are    35 symmetry adapted cartesian basis functions of A2  symmetry.
 There are    55 symmetry adapted cartesian basis functions of B1  symmetry.
 There are    86 symmetry adapted cartesian basis functions of B2  symmetry.
 There are    92 symmetry adapted basis functions of A1  symmetry.
 There are    33 symmetry adapted basis functions of A2  symmetry.
 There are    49 symmetry adapted basis functions of B1  symmetry.
 There are    74 symmetry adapted basis functions of B2  symmetry.
   248 basis functions,   354 primitive gaussians,   286 cartesian basis functions
    14 alpha electrons       14 beta electrons
       nuclear repulsion energy        95.8748567852 Hartrees.
 NAtoms=    6 NActive=    6 NUniq=    4 SFac= 2.25D+00 NAtFMM=   60 NAOKFM=F Big=F
 Integral buffers will be    131072 words long.
 Raffenetti 2 integral format.
 Two-electron integral symmetry is turned on.
 One-electron integrals computed using PRISM.
 NBasis=   248 RedAO= T EigKep=  5.31D-05  NBF=    92    33    49    74
 NBsUse=   248 1.00D-06 EigRej= -1.00D+00 NBFU=    92    33    49    74
 Initial guess from the checkpoint file:  "c3h2o.chk"
 B after Tr=    -0.000000   -0.000000    0.000000
         Rot=    1.000000   -0.000000    0.000000    0.000000 Ang=   0.00 deg.
 Initial guess orbital symmetries:
       Occupied  (A1) (A1) (A1) (B2) (A1) (A1) (B2) (A1) (A1) (B1)
                 (B2) (A1) (B1) (B2)
       Virtual   (A2) (A1) (B1) (B2) (A1) (A1) (B2) (B1) (A1) (B2)
                 (B1) (A2) (B2) (A1) (A1) (B2) (B2) (A1) (A1) (A1)
                 (B2) (B1) (B2) (B2) (B1) (A1) (A2) (A1) (A1) (A1)
                 (B1) (B2) (A1) (A2) (B2) (B1) (A1) (B2) (B1) (A1)
                 (A2) (B2) (B1) (A1) (A2) (A1) (B2) (B2) (A1) (A2)
                 (A1) (B1) (B2) (B2) (A1) (A2) (A1) (B2) (B1) (A1)
                 (B2) (A1) (A1) (B1) (B2) (B2) (B1) (A1) (A1) (B2)
                 (B1) (A2) (A1) (B1) (B2) (A1) (B1) (A2) (A1) (B2)
                 (B1) (A1) (A2) (B2) (A2) (B1) (B2) (A1) (B1) (A1)
                 (B2) (A2) (B1) (A1) (B2) (B2) (A2) (A1) (A1) (B2)
                 (A2) (B1) (B2) (B1) (A2) (A1) (A1) (B2) (B1) (A1)
                 (A2) (B2) (A1) (B2) (A1) (A2) (B2) (A1) (B1) (A1)
                 (A2) (A1) (B1) (B2) (B2) (A2) (A1) (B2) (B1) (B2)
                 (B2) (A1) (A1) (A1) (A1) (A1) (A1) (A1) (A1) (A1)
                 (A1) (A1) (A1) (A1) (A1) (A1) (A1) (A1) (A1) (A1)
                 (A1) (A1) (A1) (A1) (A1) (A1) (A1) (A1) (A1) (A1)
                 (A1) (A1) (A1) (A1) (A1) (A1) (A1) (A1) (A1) (A1)
                 (A2) (A2) (A2) (A2) (A2) (A2) (A2) (A2) (A2) (A2)
                 (A2) (A2) (A2) (B1) (B1) (B1) (B1) (B1) (B1) (B1)
                 (B1) (B1) (B1) (B1) (B1) (B1) (B1) (B1) (B1) (B1)
                 (B1) (B1) (B1) (B1) (B2) (B2) (B2) (B2) (B2) (B2)
                 (B2) (B2) (B2) (B2) (B2) (B2) (B2) (B2) (B2) (B2)
                 (B2) (B2) (B2) (B2) (B2) (B2) (B2) (B2) (B2) (B2)
                 (B2) (B2) (B2) (B2)
 Requested convergence on RMS density matrix=1.00D-08 within 128 cycles.
 Requested convergence on MAX density matrix=1.00D-06.
 Requested convergence on             energy=1.00D-06.
 No special actions if energy rises.
 SCF Done:  E(ROHF) =  -189.616119916     A.U. after   12 cycles
            NFock= 12  Conv=0.34D-08     -V/T= 2.0013
 <Sx>= 0.0000 <Sy>= 0.0000 <Sz>= 0.0000 <S**2>=-0.0000 S=-0.0000
 <L.S>=  0.00000000000    
 Annihilation of the first spin contaminant:
 S**2 before annihilation    -0.0000,   after    -0.0000

 **********************************************************************

            Population analysis using the SCF Density.

 **********************************************************************

 Orbital symmetries:
       Occupied  (A1) (A1) (A1) (B2) (A1) (A1) (B2) (A1) (A1) (B2)
                 (B1) (A1) (B1) (B2)
       Virtual   (A1) (B2) (B1) (A1) (A2) (B2) (A1) (B1) (A1) (B2)
                 (A2) (A1) (B2) (B1) (A1) (A1) (B2) (B1) (B2) (A1)
                 (A1) (B2) (A1) (B1) (B2) (A1) (A2) (B1) (A1) (B2)
                 (A1) (A2) (B1) (B2) (B2) (A1) (B2) (A1) (A1) (B2)
                 (B2) (A1) (B1) (B1) (A1) (A2) (B2) (A1) (B1) (A1)
                 (B2) (A2) (A1) (B2) (A1) (A2) (B2) (A1) (B1) (A1)
                 (A1) (B2) (B1) (A2) (A1) (B2) (B1) (B2) (A1) (B1)
                 (A2) (B2) (A1) (B2) (A1) (B1) (A2) (B1) (B2) (A1)
                 (A1) (A2) (B2) (B1) (A1) (B2) (A1) (B2) (B1) (A1)
                 (B1) (B2) (A2) (A1) (B1) (A1) (A2) (A2) (B2) (B2)
                 (B1) (B2) (A2) (B1) (A1) (A2) (B2) (A1) (B2) (A1)
                 (B1) (A1) (B2) (B1) (B2) (B1) (A1) (A1) (B2) (A1)
                 (A2) (B2) (A1) (A2) (A1) (B2) (B1) (B2) (A1) (A1)
                 (A2) (B1) (B2) (A1) (A2) (A1) (A1) (B2) (A2) (A1)
                 (A1) (B1) (B1) (B2) (A1) (B2) (B1) (B2) (A1) (B2)
                 (B1) (A2) (A1) (B1) (B2) (A1) (B1) (A2) (B2) (A1)
                 (A1) (B2) (B1) (A1) (B2) (A2) (B1) (A2) (B2) (A1)
                 (B2) (B1) (A2) (A1) (B1) (B2) (A1) (A1) (B2) (A2)
                 (A1) (B2) (A1) (B1) (B2) (B2) (A1) (A2) (A1) (B1)
                 (B2) (B1) (A2) (A1) (A1) (A2) (B2) (B2) (B1) (A2)
                 (B1) (A1) (A1) (B2) (A1) (B2) (A1) (B2) (A1) (B2)
                 (B1) (B2) (A1) (A2) (A1) (B1) (B2) (A1) (B1) (B1)
                 (A2) (B2) (A1) (A1) (B2) (B2) (A1) (A1) (B2) (A1)
                 (B1) (B2) (A1) (A1)
 The electronic state is 1-A1.
 Alpha  occ. eigenvalues --  -20.52793 -11.35592 -11.29774 -11.29609  -1.37963
 Alpha  occ. eigenvalues --   -1.21795  -0.82215  -0.79284  -0.67431  -0.60746
 Alpha  occ. eigenvalues --   -0.58256  -0.55693  -0.42071  -0.39319
 Alpha virt. eigenvalues --    0.03368   0.04449   0.06961   0.06968   0.06973
 Alpha virt. eigenvalues --    0.09143   0.09225   0.09846   0.11167   0.12315
 Alpha virt. eigenvalues --    0.14157   0.17096   0.17421   0.19807   0.20522
 Alpha virt. eigenvalues --    0.22606   0.23931   0.25406   0.25971   0.27693
 Alpha virt. eigenvalues --    0.31873   0.32780   0.37269   0.38785   0.41500
 Alpha virt. eigenvalues --    0.44389   0.46479   0.46527   0.47912   0.49106
 Alpha virt. eigenvalues --    0.50104   0.51434   0.51821   0.52418   0.55586
 Alpha virt. eigenvalues --    0.59218   0.60061   0.62723   0.65313   0.74127
 Alpha virt. eigenvalues --    0.75257   0.75429   0.77781   0.81877   0.83500
 Alpha virt. eigenvalues --    0.84949   0.85278   0.90734   0.96613   0.98569
 Alpha virt. eigenvalues --    1.01067   1.01261   1.07774   1.13182   1.15629
 Alpha virt. eigenvalues --    1.15762   1.21056   1.23624   1.25125   1.29071
 Alpha virt. eigenvalues --    1.30060   1.30377   1.35080   1.36894   1.38117
 Alpha virt. eigenvalues --    1.41333   1.41798   1.45063   1.45640   1.49144
 Alpha virt. eigenvalues --    1.49607   1.52260   1.54968   1.61033   1.61363
 Alpha virt. eigenvalues --    1.62298   1.69515   1.72637   1.75558   1.76543
 Alpha virt. eigenvalues --    1.83905   1.84750   1.85281   1.85954   1.86402
 Alpha virt. eigenvalues --    1.91525   1.94717   1.95112   1.96014   2.02055
 Alpha virt. eigenvalues --    2.04899   2.12951   2.13161   2.15368   2.17878
 Alpha virt. eigenvalues --    2.20948   2.25115   2.27735   2.29916   2.35602
 Alpha virt. eigenvalues --    2.35690   2.37956   2.40712   2.44325   2.45155
 Alpha virt. eigenvalues --    2.46377   2.49961   2.50005   2.53775   2.57465
 Alpha virt. eigenvalues --    2.60404   2.69319   2.71377   2.75318   2.82542
 Alpha virt. eigenvalues --    2.84234   2.85785   2.88183   2.93432   3.00350
 Alpha virt. eigenvalues --    3.05477   3.13262   3.17762   3.19375   3.20471
 Alpha virt. eigenvalues --    3.27593   3.29284   3.30396   3.31723   3.32750
 Alpha virt. eigenvalues --    3.35924   3.41842   3.48346   3.48570   3.50660
 Alpha virt. eigenvalues --    3.60826   3.62700   3.76757   3.94308   3.96471
 Alpha virt. eigenvalues --    4.01763   4.09343   4.15725   4.16332   4.24802
 Alpha virt. eigenvalues --    4.24825   4.33444   4.36881   4.45991   4.46271
 Alpha virt. eigenvalues --    4.51177   4.53887   4.58216   4.70646   4.72446
 Alpha virt. eigenvalues --    4.82739   4.95168   5.01413   5.04533   5.09739
 Alpha virt. eigenvalues --    5.20366   5.25296   5.36027   5.39822   5.42420
 Alpha virt. eigenvalues --    5.44961   5.62415   5.77808   5.84187   5.93304
 Alpha virt. eigenvalues --    5.93383   5.95831   6.06618   6.10230   6.21679
 Alpha virt. eigenvalues --    6.32822   6.44659   6.45872   6.51066   6.51679
 Alpha virt. eigenvalues --    6.71270   6.90601   6.91014   6.96424   6.97761
 Alpha virt. eigenvalues --    7.16875   7.27228   7.32196   7.55089   7.59953
 Alpha virt. eigenvalues --    7.87843   7.90168   7.92221   8.03955   8.17132
 Alpha virt. eigenvalues --    8.17846   8.18350   8.29810   8.32127   8.42191
 Alpha virt. eigenvalues --    8.53585   8.62032   9.01012   9.07630   9.29231
 Alpha virt. eigenvalues --    9.62091   9.80421   9.96144   9.97252  10.05544
 Alpha virt. eigenvalues --   10.48927  10.73383  11.07157  11.26896  11.29927
 Alpha virt. eigenvalues --   11.74442  11.97739  12.56924  20.58391  21.14996
 Alpha virt. eigenvalues --   21.15422  21.36112  21.51815  21.78702  22.05494
 Alpha virt. eigenvalues --   22.32490  22.61859  23.20760  23.86522  24.43173
 Alpha virt. eigenvalues --   37.99894  38.22475  38.41129  44.11791
          Condensed to atoms (all electrons):
               1          2          3          4          5          6
     1  C    4.316490   0.601994   0.315233   0.315233  -0.010599  -0.010599
     2  O    0.601994   8.221828  -0.093486  -0.093486   0.000902   0.000902
     3  C    0.315233  -0.093486   5.216560   0.291665   0.381519   0.001481
     4  C    0.315233  -0.093486   0.291665   5.216560   0.001481   0.381519
     5  H   -0.010599   0.000902   0.381519   0.001481   0.430850  -0.000330
     6  H   -0.010599   0.000902   0.001481   0.381519  -0.000330   0.430850
          Atomic-Atomic Spin Densities.
               1          2          3          4          5          6
     1  C    0.000000   0.000000   0.000000   0.000000   0.000000   0.000000
     2  O    0.000000   0.000000   0.000000   0.000000   0.000000   0.000000
     3  C    0.000000   0.000000   0.000000   0.000000   0.000000   0.000000
     4  C    0.000000   0.000000   0.000000   0.000000   0.000000   0.000000
     5  H    0.000000   0.000000   0.000000   0.000000   0.000000   0.000000
     6  H    0.000000   0.000000   0.000000   0.000000   0.000000   0.000000
 Mulliken charges and spin densities:
               1          2
     1  C    0.472246   0.000000
     2  O   -0.638655   0.000000
     3  C   -0.112972   0.000000
     4  C   -0.112972   0.000000
     5  H    0.196176   0.000000
     6  H    0.196176   0.000000
 Sum of Mulliken charges =  -0.00000   0.00000
 Mulliken charges and spin densities with hydrogens summed into heavy atoms:
               1          2
     1  C    0.472246   0.000000
     2  O   -0.638655   0.000000
     3  C    0.083204   0.000000
     4  C    0.083204   0.000000
 Electronic spatial extent (au):  <R**2>=            210.3833
 Charge=             -0.0000 electrons
 Dipole moment (field-independent basis, Debye):
    X=             -0.0000    Y=              0.0000    Z=             -4.9588  Tot=              4.9588
 Quadrupole moment (field-independent basis, Debye-Ang):
   XX=            -22.7796   YY=            -19.1766   ZZ=            -25.8345
   XY=              0.0000   XZ=              0.0000   YZ=              0.0000
 Traceless Quadrupole moment (field-independent basis, Debye-Ang):
   XX=             -0.1827   YY=              3.4203   ZZ=             -3.2376
   XY=              0.0000   XZ=              0.0000   YZ=              0.0000
 Octapole moment (field-independent basis, Debye-Ang**2):
  XXX=              0.0000  YYY=              0.0000  ZZZ=             -9.8599  XYY=              0.0000
  XXY=             -0.0000  XXZ=              2.0658  XZZ=              0.0000  YZZ=              0.0000
  YYZ=             -5.7441  XYZ=             -0.0000
 Hexadecapole moment (field-independent basis, Debye-Ang**3):
 XXXX=            -23.0911 YYYY=            -58.1424 ZZZZ=           -188.2826 XXXY=             -0.0000
 XXXZ=             -0.0000 YYYX=             -0.0000 YYYZ=             -0.0000 ZZZX=             -0.0000
 ZZZY=             -0.0000 XXYY=            -15.3309 XXZZ=            -35.2363 YYZZ=            -31.4925
 XXYZ=              0.0000 YYXZ=              0.0000 ZZXY=              0.0000
 N-N= 9.587485678515D+01 E-N=-6.365022258579D+02  KE= 1.893711030916D+02
 Symmetry A1   KE= 1.415974239857D+02
 Symmetry A2   KE= 1.386138768280D-19
 Symmetry B1   KE= 5.889909460330D+00
 Symmetry B2   KE= 4.188376964554D+01
 Symmetry A1   SP= 0.000000000000D+00
 Symmetry A2   SP= 0.000000000000D+00
 Symmetry B1   SP= 0.000000000000D+00
 Symmetry B2   SP= 0.000000000000D+00
                          Isotropic Fermi Contact Couplings
        Atom                 a.u.       MegaHertz       Gauss      10(-4) cm-1
     1  C(13)              0.00000       0.00000       0.00000       0.00000
     2  O(17)              0.00000      -0.00000      -0.00000      -0.00000
     3  C(13)              0.00000       0.00000       0.00000       0.00000
     4  C(13)              0.00000       0.00000       0.00000       0.00000
     5  H(1)               0.00000       0.00000       0.00000       0.00000
     6  H(1)               0.00000       0.00000       0.00000       0.00000
 --------------------------------------------------------
       Center         ----  Spin Dipole Couplings  ----
                      3XX-RR        3YY-RR        3ZZ-RR
 --------------------------------------------------------
     1   Atom        0.000000      0.000000      0.000000
     2   Atom        0.000000      0.000000      0.000000
     3   Atom        0.000000      0.000000      0.000000
     4   Atom        0.000000      0.000000      0.000000
     5   Atom        0.000000      0.000000      0.000000
     6   Atom        0.000000      0.000000      0.000000
 --------------------------------------------------------
                        XY            XZ            YZ
 --------------------------------------------------------
     1   Atom        0.000000      0.000000      0.000000
     2   Atom        0.000000      0.000000      0.000000
     3   Atom        0.000000      0.000000      0.000000
     4   Atom        0.000000      0.000000      0.000000
     5   Atom        0.000000      0.000000      0.000000
     6   Atom        0.000000      0.000000      0.000000
 --------------------------------------------------------


 ---------------------------------------------------------------------------------
              Anisotropic Spin Dipole Couplings in Principal Axis System
 ---------------------------------------------------------------------------------

       Atom             a.u.   MegaHertz   Gauss  10(-4) cm-1        Axes

              Baa     0.0000     0.000     0.000     0.000  1.0000  0.0000  0.0000
     1 C(13)  Bbb     0.0000     0.000     0.000     0.000 -0.0000  1.0000  0.0000
              Bcc     0.0000     0.000     0.000     0.000  0.0000  0.0000  1.0000
 
              Baa     0.0000    -0.000    -0.000    -0.000  1.0000  0.0000  0.0000
     2 O(17)  Bbb     0.0000    -0.000    -0.000    -0.000 -0.0000  1.0000  0.0000
              Bcc     0.0000    -0.000    -0.000    -0.000  0.0000  0.0000  1.0000
 
              Baa     0.0000     0.000     0.000     0.000  1.0000  0.0000  0.0000
     3 C(13)  Bbb     0.0000     0.000     0.000     0.000 -0.0000  1.0000  0.0000
              Bcc     0.0000     0.000     0.000     0.000  0.0000  0.0000  1.0000
 
              Baa     0.0000     0.000     0.000     0.000  1.0000  0.0000  0.0000
     4 C(13)  Bbb     0.0000     0.000     0.000     0.000 -0.0000  1.0000  0.0000
              Bcc     0.0000     0.000     0.000     0.000  0.0000  0.0000  1.0000
 
              Baa     0.0000     0.000     0.000     0.000  1.0000  0.0000  0.0000
     5 H(1)   Bbb     0.0000     0.000     0.000     0.000 -0.0000  1.0000  0.0000
              Bcc     0.0000     0.000     0.000     0.000  0.0000  0.0000  1.0000
 
              Baa     0.0000     0.000     0.000     0.000  1.0000  0.0000  0.0000
     6 H(1)   Bbb     0.0000     0.000     0.000     0.000 -0.0000  1.0000  0.0000
              Bcc     0.0000     0.000     0.000     0.000  0.0000  0.0000  1.0000
 

 ---------------------------------------------------------------------------------

 1\1\GINC-GAMBA\SP\ROHF\Gen\C3H2O1\IRIKURA\29-Sep-2023\0\\# rohf/gen ge
 om=check guess=check\\cyclopropenone, ROHF/cc-pVTZ-F12\\0,1\C,0,0.,0.,
 0.332236\O,0,0.,0.,1.532432\C,0,0.,0.669548,-0.927589\C,0,0.,-0.669548
 ,-0.927589\H,0,0.,1.544863,-1.560901\H,0,0.,-1.544863,-1.560901\\Versi
 on=ES64L-G16RevB.01\State=1-A1\HF=-189.6161199\RMSD=3.368e-09\Dipole=0
 .,0.,-1.9509556\Quadrupole=-0.1358299,2.5429193,-2.4070894,0.,0.,0.\PG
 =C02V [C2(C1O1),SGV(C2H2)]\\@


 IT IS A SIMPLE TASK TO MAKE THINGS COMPLEX,
 BUT A COMPLEX TASK TO MAKE THEM SIMPLE.
 Job cpu time:       0 days  0 hours  2 minutes  5.0 seconds.
 Elapsed time:       0 days  0 hours  0 minutes 31.3 seconds.
 File lengths (MBytes):  RWF=     48 Int=      0 D2E=      0 Chk=      6 Scr=      1
 Normal termination of Gaussian 16 at Fri Sep 29 09:27:50 2023.
