 Entering Gaussian System, Link 0=g16
 AtFile(1): pcseg2.gbs
            -H     0
            S   4   1.00
                  0.754732D+02           0.427821D-02
                  0.113575D+02           0.328672D-01
                  0.260081D+01           0.159578D+00
                  0.735503D+00           0.500000D+00
            S   1   1.00
                  0.231761D+00           1.0000000
            S   1   1.00
                  0.741675D-01           1.0000000
            P   1   1.00
                  0.160000D+01           1.0000000
            P   1   1.00
                  0.450000D+00           1.0000000
            D   1   1.00
                  0.125000D+01           1.0000000
            ****
            -C     0
            S   7   1.00
                  0.731999D+04           0.695369D-03
                  0.109818D+04           0.537138D-02
                  0.250014D+03           0.274734D-01
                  0.707586D+02           0.105078D+00
                  0.228595D+02           0.291262D+00
                  0.803936D+01           0.500000D+00
                  0.289309D+01           0.362224D+00
            S   2   1.00
                  0.521640D+01          -0.957844D-01
                  0.556124D+00           0.500000D+00
            S   1   1.00
                  0.228813D+00           1.0000000
            S   1   1.00
                  0.936338D-01           1.0000000
            P   4   1.00
                  0.339855D+02           0.818395D-02
                  0.772957D+01           0.586921D-01
                  0.224954D+01           0.222514D+00
                  0.767681D+00           0.500000D+00
            P   1   1.00
                  0.263283D+00           1.0000000
            P   1   1.00
                  0.848744D-01           1.0000000
            D   1   1.00
                  0.140000D+01           1.0000000
            D   1   1.00
                  0.450000D+00           1.0000000
            F   1   1.00
                  0.950000D+00           1.0000000
            ****
            -O     0
            S   7   1.00
                  0.135887D+05           0.665492D-03
                  0.203847D+04           0.514222D-02
                  0.464041D+03           0.263472D-01
                  0.131339D+03           0.101500D+00
                  0.425340D+02           0.285877D+00
                  0.150429D+02           0.500000D+00
                  0.546616D+01           0.368211D+00
            S   2   1.00
                  0.100915D+02          -0.100084D+00
                  0.110429D+01           0.500000D+00
            S   1   1.00
                  0.448082D+00           1.0000000
            S   1   1.00
                  0.175325D+00           1.0000000
            P   4   1.00
                  0.608220D+02           0.908253D-02
                  0.140332D+02           0.645878D-01
                  0.418244D+01           0.241502D+00
                  0.142490D+01           0.500000D+00
            P   1   1.00
                  0.478741D+00           1.0000000
            P   1   1.00
                  0.146257D+00           1.0000000
            D   1   1.00
                  0.220000D+01           1.0000000
            D   1   1.00
                  0.650000D+00           1.0000000
            F   1   1.00
                  0.110000D+01           1.0000000
            ****
            -N     0
            S   7   1.00
                  0.101643D+05           0.682757D-03
                  0.152481D+04           0.527488D-02
                  0.347119D+03           0.270037D-01
                  0.982389D+02           0.103673D+00
                  0.317799D+02           0.289575D+00
                  0.112240D+02           0.500000D+00
                  0.406611D+01           0.364621D+00
            S   2   1.00
                  0.747898D+01          -0.975681D-01
                  0.805040D+00           0.500000D+00
            S   1   1.00
                  0.324626D+00           1.0000000
            S   1   1.00
                  0.128132D+00           1.0000000
            P   4   1.00
                  0.482704D+02           0.829547D-02
                  0.110815D+02           0.596223D-01
                  0.326643D+01           0.227889D+00
                  0.111680D+01           0.500000D+00
            P   1   1.00
                  0.382049D+00           1.0000000
            P   1   1.00
                  0.121222D+00           1.0000000
            D   1   1.00
                  0.180000D+01           1.0000000
            D   1   1.00
                  0.550000D+00           1.0000000
            F   1   1.00
                  0.102000D+01           1.0000000
            ****
            -F     0
            S   7   1.00
                  0.174507D+05           0.655972D-03
                  0.261768D+04           0.506944D-02
                  0.595857D+03           0.259899D-01
                  0.168651D+03           0.100353D+00
                  0.546654D+02           0.284095D+00
                  0.193717D+02           0.500000D+00
                  0.706202D+01           0.370721D+00
            S   2   1.00
                  0.131197D+02          -0.101997D+00
                  0.145046D+01           0.500000D+00
            S   1   1.00
                  0.588255D+00           1.0000000
            S   1   1.00
                  0.227960D+00           1.0000000
            P   4   1.00
                  0.779407D+02           0.931135D-02
                  0.180425D+02           0.663964D-01
                  0.542342D+01           0.246386D+00
                  0.184876D+01           0.500000D+00
            P   1   1.00
                  0.617455D+00           1.0000000
            P   1   1.00
                  0.185496D+00           1.0000000
            D   1   1.00
                  0.280000D+01           1.0000000
            D   1   1.00
                  0.800000D+00           1.0000000
            F   1   1.00
                  0.120000D+01           1.0000000
            ****
            -Cl     0
            S   8   1.00
                  0.154272D+06           0.222473D-03
                  0.231232D+05           0.172590D-02
                  0.526257D+04           0.899286D-02
                  0.148995D+04           0.367724D-01
                  0.485417D+03           0.121446D+00
                  0.174634D+03           0.304148D+00
                  0.672393D+02           0.500000D+00
                  0.265780D+02           0.360252D+00
            S   3   1.00
                  0.131826D+03          -0.531330D-01
                  0.400703D+02          -0.233346D+00
                  0.789448D+01           0.500000D+00
            S   2   1.00
                  0.427711D+01           0.500000D+00
                  0.196233D+01           0.370517D+00
            S   1   1.00
                  0.520793D+00           1.0000000
            S   1   1.00
                  0.181633D+00           1.0000000
            P   7   1.00
                  0.124440D+04           0.988206D-03
                  0.295109D+03           0.829674D-02
                  0.947224D+02           0.430906D-01
                  0.352588D+02           0.148443D+00
                  0.144211D+02           0.344744D+00
                  0.610371D+01           0.500000D+00
                  0.258886D+01           0.348278D+00
            P   2   1.00
                  0.109447D+02          -0.196768D-01
                  0.104413D+01           0.500000D+00
            P   1   1.00
                  0.376184D+00           1.0000000
            P   1   1.00
                  0.120613D+00           1.0000000
            D   1   1.00
                  0.231000D+01           1.0000000
            D   1   1.00
                  0.520000D+00           1.0000000
            F   1   1.00
                  0.720000D+00           1.0000000
            ****
            -S     0
            S   8   1.00
                  0.134700D+06           0.226231D-03
                  0.201904D+05           0.175488D-02
                  0.459528D+04           0.914190D-02
                  0.130109D+04           0.373551D-01
                  0.423902D+03           0.123121D+00
                  0.152485D+03           0.306801D+00
                  0.586925D+02           0.500000D+00
                  0.231461D+02           0.354358D+00
            S   3   1.00
                  0.116327D+03          -0.491772D-01
                  0.352841D+02          -0.215962D+00
                  0.677831D+01           0.500000D+00
            S   2   1.00
                  0.360404D+01           0.500000D+00
                  0.164871D+01           0.366278D+00
            S   1   1.00
                  0.421821D+00           1.0000000
            S   1   1.00
                  0.147554D+00           1.0000000
            P   7   1.00
                  0.104863D+04           0.105273D-02
                  0.248717D+03           0.879338D-02
                  0.797887D+02           0.453358D-01
                  0.296023D+02           0.154476D+00
                  0.120627D+02           0.352366D+00
                  0.507628D+01           0.500000D+00
                  0.213375D+01           0.346429D+00
            P   2   1.00
                  0.928958D+01          -0.185932D-01
                  0.837819D+00           0.500000D+00
            P   1   1.00
                  0.301495D+00           1.0000000
            P   1   1.00
                  0.974740D-01           1.0000000
            D   1   1.00
                  0.210000D+01           1.0000000
            D   1   1.00
                  0.480000D+00           1.0000000
            F   1   1.00
                  0.660000D+00           1.0000000
            ****
            -Br     0
            S    10   1.00
                  0.233625D+07           0.532336D-04
                  0.349961D+06           0.413715D-03
                  0.796444D+05           0.217123D-02
                  0.225555D+05           0.910109D-02
                  0.735546D+04           0.323789D-01
                  0.265352D+04           0.988755D-01
                  0.103517D+04           0.248138D+00
                  0.422205D+03           0.474328D+00
                  0.180035D+03           0.500000D+00
                  0.793308D+02           0.187769D+00
            S    4   1.00
                  0.620834D+03          -0.226511D-01
                  0.190829D+03          -0.109497D+00
                  0.312505D+02           0.500000D+00
                  0.135270D+02           0.492812D+00
            S    2   1.00
                  0.216097D+02          -0.165418D+00
                  0.372566D+01           0.500000D+00
            S    1   1.00
                  0.169770D+01           1.0000000
            S    1   1.00
                  0.489332D+00           1.0000000
            S    1   1.00
                  0.175712D+00           1.0000000
            P    8   1.00
                  0.960829D+04           0.478974D-03
                  0.227618D+04           0.417853D-02
                  0.736723D+03           0.229315D-01
                  0.281579D+03           0.892653D-01
                  0.118395D+03           0.255288D+00
                  0.527481D+02           0.479074D+00
                  0.245098D+02           0.500000D+00
                  0.112009D+02           0.200944D+00
            P    4   1.00
                  0.587849D+02          -0.189674D-01
                  0.918962D+01           0.264104D+00
                  0.413895D+01           0.500000D+00
                  0.184225D+01           0.319316D+00
            P    1   1.00
                  0.713862D+00           1.0000000
            P    1   1.00
                  0.274232D+00           1.0000000
            P    1   1.00
                  0.944411D-01           1.0000000
            D    7   1.00
                  0.398470D+03           0.204066D-02
                  0.118967D+03           0.175171D-01
                  0.450197D+02           0.829708D-01
                  0.190320D+02           0.236284D+00
                  0.855686D+01           0.428468D+00
                  0.382950D+01           0.500000D+00
                  0.166291D+01           0.349360D+00
            D    1   1.00
                  0.672953D+00           1.0000000
            D    1   1.00
                  0.252000D+00           1.0000000
            F    1   1.00
                  0.530000D+00           1.0000000
            ****
            -Si     0
            S    8   1.00
                  0.996133D+05           0.235546D-03
                  0.149311D+05           0.182707D-02
                  0.339820D+04           0.951425D-02
                  0.962140D+03           0.388172D-01
                  0.313430D+03           0.127328D+00
                  0.112683D+03           0.313522D+00
                  0.433372D+02           0.500000D+00
                  0.170029D+02           0.340347D+00
            S    3   1.00
                  0.884208D+02          -0.404451D-01
                  0.266756D+02          -0.178059D+00
                  0.479640D+01           0.500000D+00
            S    2   1.00
                  0.239385D+01           0.500000D+00
                  0.108333D+01           0.338016D+00
            S    1   1.00
                  0.252420D+00           1.0000000
            S    1   1.00
                  0.891210D-01           1.0000000
            P    7   1.00
                  0.709901D+03           0.123028D-02
                  0.168426D+03           0.101366D-01
                  0.539946D+02           0.511840D-01
                  0.198646D+02           0.169967D+00
                  0.801369D+01           0.370717D+00
                  0.331870D+01           0.500000D+00
                  0.136112D+01           0.344128D+00
            P    2   1.00
                  0.622158D+01          -0.166609D-01
                  0.503049D+00           0.500000D+00
            P    1   1.00
                  0.179848D+00           1.0000000
            P    1   1.00
                  0.591912D-01           1.0000000
            D    1   1.00
                  0.168000D+01           1.0000000
            D    1   1.00
                  0.380000D+00           1.0000000
            F    1   1.00
                  0.540000D+00           1.0000000
            ****
            -P     0
            S    8   1.00
                  0.116416D+06           0.230715D-03
                  0.174500D+05           0.178960D-02
                  0.397149D+04           0.932116D-02
                  0.112447D+04           0.380591D-01
                  0.366347D+03           0.125148D+00
                  0.131757D+03           0.310022D+00
                  0.506988D+02           0.500000D+00
                  0.199436D+02           0.347528D+00
            S    3   1.00
                  0.101878D+03          -0.446755D-01
                  0.308249D+02          -0.196376D+00
                  0.573688D+01           0.500000D+00
            S    2   1.00
                  0.296868D+01           0.500000D+00
                  0.135315D+01           0.355098D+00
            S    1   1.00
                  0.332196D+00           1.0000000
            S    1   1.00
                  0.116229D+00           1.0000000
            P    7   1.00
                  0.873928D+03           0.112375D-02
                  0.207298D+03           0.933330D-02
                  0.664628D+02           0.477213D-01
                  0.245665D+02           0.160733D+00
                  0.996820D+01           0.359760D+00
                  0.416536D+01           0.500000D+00
                  0.173022D+01           0.346593D+00
            P    2   1.00
                  0.772530D+01          -0.175718D-01
                  0.657252D+00           0.500000D+00
            P    1   1.00
                  0.239903D+00           1.0000000
            P    1   1.00
                  0.800988D-01           1.0000000
            D    1   1.00
                  0.189000D+01           1.0000000
            D    1   1.00
                  0.430000D+00           1.0000000
            F    1   1.00
                  0.600000D+00           1.0000000
            ****
            
 Initial command:
 /usr/local/apps/g16_b01_avx/g16/l1.exe "/wrk/irikura/Gau-7416.inp" -scrdir="/wrk/irikura/"
 Entering Link 1 = /usr/local/apps/g16_b01_avx/g16/l1.exe PID=      7418.
  
 Copyright (c) 1988-2017, Gaussian, Inc.  All Rights Reserved.
  
 This is part of the Gaussian(R) 16 program.  It is based on
 the Gaussian(R) 09 system (copyright 2009, Gaussian, Inc.),
 the Gaussian(R) 03 system (copyright 2003, Gaussian, Inc.),
 the Gaussian(R) 98 system (copyright 1998, Gaussian, Inc.),
 the Gaussian(R) 94 system (copyright 1995, Gaussian, Inc.),
 the Gaussian 92(TM) system (copyright 1992, Gaussian, Inc.),
 the Gaussian 90(TM) system (copyright 1990, Gaussian, Inc.),
 the Gaussian 88(TM) system (copyright 1988, Gaussian, Inc.),
 the Gaussian 86(TM) system (copyright 1986, Carnegie Mellon
 University), and the Gaussian 82(TM) system (copyright 1983,
 Carnegie Mellon University). Gaussian is a federally registered
 trademark of Gaussian, Inc.
  
 This software contains proprietary and confidential information,
 including trade secrets, belonging to Gaussian, Inc.
  
 This software is provided under written license and may be
 used, copied, transmitted, or stored only in accord with that
 written license.
  
 The following legend is applicable only to US Government
 contracts under FAR:
  
                    RESTRICTED RIGHTS LEGEND
  
 Use, reproduction and disclosure by the US Government is
 subject to restrictions as set forth in subparagraphs (a)
 and (c) of the Commercial Computer Software - Restricted
 Rights clause in FAR 52.227-19.
  
 Gaussian, Inc.
 340 Quinnipiac St., Bldg. 40, Wallingford CT 06492
  
  
 ---------------------------------------------------------------
 Warning -- This program may not be used in any manner that
 competes with the business of Gaussian, Inc. or will provide
 assistance to any competitor of Gaussian, Inc.  The licensee
 of this program is prohibited from giving any competitor of
 Gaussian, Inc. access to this program.  By using this program,
 the user acknowledges that Gaussian, Inc. is engaged in the
 business of creating and licensing software in the field of
 computational chemistry and represents and warrants to the
 licensee that it is not a competitor of Gaussian, Inc. and that
 it will not use this program in any manner prohibited above.
 ---------------------------------------------------------------
  

 Cite this work as:
 Gaussian 16, Revision B.01,
 M. J. Frisch, G. W. Trucks, H. B. Schlegel, G. E. Scuseria, 
 M. A. Robb, J. R. Cheeseman, G. Scalmani, V. Barone, 
 G. A. Petersson, H. Nakatsuji, X. Li, M. Caricato, A. V. Marenich, 
 J. Bloino, B. G. Janesko, R. Gomperts, B. Mennucci, H. P. Hratchian, 
 J. V. Ortiz, A. F. Izmaylov, J. L. Sonnenberg, D. Williams-Young, 
 F. Ding, F. Lipparini, F. Egidi, J. Goings, B. Peng, A. Petrone, 
 T. Henderson, D. Ranasinghe, V. G. Zakrzewski, J. Gao, N. Rega, 
 G. Zheng, W. Liang, M. Hada, M. Ehara, K. Toyota, R. Fukuda, 
 J. Hasegawa, M. Ishida, T. Nakajima, Y. Honda, O. Kitao, H. Nakai, 
 T. Vreven, K. Throssell, J. A. Montgomery, Jr., J. E. Peralta, 
 F. Ogliaro, M. J. Bearpark, J. J. Heyd, E. N. Brothers, K. N. Kudin, 
 V. N. Staroverov, T. A. Keith, R. Kobayashi, J. Normand, 
 K. Raghavachari, A. P. Rendell, J. C. Burant, S. S. Iyengar, 
 J. Tomasi, M. Cossi, J. M. Millam, M. Klene, C. Adamo, R. Cammi, 
 J. W. Ochterski, R. L. Martin, K. Morokuma, O. Farkas, 
 J. B. Foresman, and D. J. Fox, Gaussian, Inc., Wallingford CT, 2016.
 
 ******************************************
 Gaussian 16:  ES64L-G16RevB.01 20-Dec-2017
                15-Jun-2022 
 ******************************************
 %mem=1000mw
 %nprocs=12
 Will use up to   12 processors via shared memory.
 --------------------
 # b3lyp/gen opt freq
 --------------------
 1/18=20,19=15,26=3,38=1/1,3;
 2/9=110,12=2,17=6,18=5,40=1/2;
 3/5=7,11=2,25=1,30=1,71=1,74=-5/1,2,3;
 4//1;
 5/5=2,38=5/2;
 6/7=2,8=2,9=2,10=2,28=1/1;
 7//1,2,3,16;
 1/18=20,19=15,26=3/3(2);
 2/9=110/2;
 99//99;
 2/9=110/2;
 3/5=7,6=1,11=2,25=1,30=1,71=1,74=-5,82=7/1,2,3;
 4/5=5,16=3,69=1/1;
 5/5=2,38=5/2;
 7//1,2,3,16;
 1/18=20,19=15,26=3/3(-5);
 2/9=110/2;
 6/7=2,8=2,9=2,10=2,19=2,28=1/1;
 99/9=1/99;
 --------------------
 allyl, B3LYP/pcseg-2
 --------------------
 Symbolic Z-matrix:
 Charge =  0 Multiplicity = 2
 C                     0.        0.        0.44088 
 H                     0.        0.        1.52997 
 C                     0.        1.2275   -0.1951 
 C                     0.       -1.2275   -0.1951 
 H                     0.        2.15683   0.36123 
 H                     0.       -2.15683   0.36123 
 H                     0.        1.29707  -1.27826 
 H                     0.       -1.29707  -1.27826 
 

 GradGradGradGradGradGradGradGradGradGradGradGradGradGradGradGradGradGrad
 Berny optimization.
 Initialization pass.
                           ----------------------------
                           !    Initial Parameters    !
                           ! (Angstroms and Degrees)  !
 --------------------------                            --------------------------
 ! Name  Definition              Value          Derivative Info.                !
 --------------------------------------------------------------------------------
 ! R1    R(1,2)                  1.0891         estimate D2E/DX2                !
 ! R2    R(1,3)                  1.3825         estimate D2E/DX2                !
 ! R3    R(1,4)                  1.3825         estimate D2E/DX2                !
 ! R4    R(3,5)                  1.0831         estimate D2E/DX2                !
 ! R5    R(3,7)                  1.0854         estimate D2E/DX2                !
 ! R6    R(4,6)                  1.0831         estimate D2E/DX2                !
 ! R7    R(4,8)                  1.0854         estimate D2E/DX2                !
 ! A1    A(2,1,3)              117.3893         estimate D2E/DX2                !
 ! A2    A(2,1,4)              117.3893         estimate D2E/DX2                !
 ! A3    A(3,1,4)              125.2214         estimate D2E/DX2                !
 ! A4    A(1,3,5)              121.7044         estimate D2E/DX2                !
 ! A5    A(1,3,7)              121.0646         estimate D2E/DX2                !
 ! A6    A(5,3,7)              117.231          estimate D2E/DX2                !
 ! A7    A(1,4,6)              121.7044         estimate D2E/DX2                !
 ! A8    A(1,4,8)              121.0646         estimate D2E/DX2                !
 ! A9    A(6,4,8)              117.231          estimate D2E/DX2                !
 ! D1    D(2,1,3,5)              0.0            estimate D2E/DX2                !
 ! D2    D(2,1,3,7)            180.0            estimate D2E/DX2                !
 ! D3    D(4,1,3,5)            180.0            estimate D2E/DX2                !
 ! D4    D(4,1,3,7)              0.0            estimate D2E/DX2                !
 ! D5    D(2,1,4,6)              0.0            estimate D2E/DX2                !
 ! D6    D(2,1,4,8)            180.0            estimate D2E/DX2                !
 ! D7    D(3,1,4,6)            180.0            estimate D2E/DX2                !
 ! D8    D(3,1,4,8)              0.0            estimate D2E/DX2                !
 --------------------------------------------------------------------------------
 Trust Radius=3.00D-01 FncErr=1.00D-07 GrdErr=1.00D-06 EigMax=2.50D+02 EigMin=1.00D-04
 Number of steps in this run=     34 maximum allowed number of steps=    100.
 GradGradGradGradGradGradGradGradGradGradGradGradGradGradGradGradGradGrad

                          Input orientation:                          
 ---------------------------------------------------------------------
 Center     Atomic      Atomic             Coordinates (Angstroms)
 Number     Number       Type             X           Y           Z
 ---------------------------------------------------------------------
      1          6           0        0.000000    0.000000    0.440883
      2          1           0        0.000000    0.000000    1.529972
      3          6           0        0.000000    1.227498   -0.195101
      4          6           0        0.000000   -1.227498   -0.195101
      5          1           0        0.000000    2.156830    0.361232
      6          1           0        0.000000   -2.156830    0.361232
      7          1           0        0.000000    1.297074   -1.278260
      8          1           0        0.000000   -1.297074   -1.278260
 ---------------------------------------------------------------------
                    Distance matrix (angstroms):
                    1          2          3          4          5
     1  C    0.000000
     2  H    1.089089   0.000000
     3  C    1.382471   2.117222   0.000000
     4  C    1.382471   2.117222   2.454996   0.000000
     5  H    2.158300   2.453134   1.083127   3.429750   0.000000
     6  H    2.158300   2.453134   3.429750   1.083127   4.313660
     7  H    2.153568   3.093310   1.085391   2.747125   1.851247
     8  H    2.153568   3.093310   2.747125   1.085391   3.823269
                    6          7          8
     6  H    0.000000
     7  H    3.823269   0.000000
     8  H    1.851247   2.594148   0.000000
 Stoichiometry    C3H5(2)
 Framework group  C2V[C2(CH),SGV(C2H4)]
 Deg. of freedom     7
 Full point group                 C2V     NOp   4
 Largest Abelian subgroup         C2V     NOp   4
 Largest concise Abelian subgroup C2      NOp   2
                         Standard orientation:                         
 ---------------------------------------------------------------------
 Center     Atomic      Atomic             Coordinates (Angstroms)
 Number     Number       Type             X           Y           Z
 ---------------------------------------------------------------------
      1          6           0        0.000000   -0.000000    0.440883
      2          1           0        0.000000   -0.000000    1.529972
      3          6           0        0.000000    1.227498   -0.195101
      4          6           0       -0.000000   -1.227498   -0.195101
      5          1           0        0.000000    2.156830    0.361232
      6          1           0       -0.000000   -2.156830    0.361232
      7          1           0        0.000000    1.297074   -1.278260
      8          1           0       -0.000000   -1.297074   -1.278260
 ---------------------------------------------------------------------
 Rotational constants (GHZ):          55.1755096          10.3286552           8.7000394
 General basis read from cards:  (5D, 7F)
 There are    70 symmetry adapted cartesian basis functions of A1  symmetry.
 There are    23 symmetry adapted cartesian basis functions of A2  symmetry.
 There are    30 symmetry adapted cartesian basis functions of B1  symmetry.
 There are    57 symmetry adapted cartesian basis functions of B2  symmetry.
 There are    60 symmetry adapted basis functions of A1  symmetry.
 There are    22 symmetry adapted basis functions of A2  symmetry.
 There are    28 symmetry adapted basis functions of B1  symmetry.
 There are    50 symmetry adapted basis functions of B2  symmetry.
   160 basis functions,   243 primitive gaussians,   180 cartesian basis functions
    12 alpha electrons       11 beta electrons
       nuclear repulsion energy        64.9502904220 Hartrees.
 NAtoms=    8 NActive=    8 NUniq=    5 SFac= 2.56D+00 NAtFMM=   60 NAOKFM=F Big=F
 Integral buffers will be    131072 words long.
 Raffenetti 2 integral format.
 Two-electron integral symmetry is turned on.
 One-electron integrals computed using PRISM.
 NBasis=   160 RedAO= T EigKep=  3.62D-04  NBF=    60    22    28    50
 NBsUse=   160 1.00D-06 EigRej= -1.00D+00 NBFU=    60    22    28    50
 ExpMin= 7.42D-02 ExpMax= 7.32D+03 ExpMxC= 2.50D+02 IAcc=3 IRadAn=         5 AccDes= 0.00D+00
 Harris functional with IExCor=  402 and IRadAn=       5 diagonalized for initial guess.
 HarFok:  IExCor=  402 AccDes= 0.00D+00 IRadAn=         5 IDoV= 1 UseB2=F ITyADJ=14
 ICtDFT=  3500011 ScaDFX=  1.000000  1.000000  1.000000  1.000000
 FoFCou: FMM=F IPFlag=           0 FMFlag=      100000 FMFlg1=           0
         NFxFlg=           0 DoJE=T BraDBF=F KetDBF=T FulRan=T
         wScrn=  0.000000 ICntrl=       500 IOpCl=  0 I1Cent=   200000004 NGrid=           0
         NMat0=    1 NMatS0=      1 NMatT0=    0 NMatD0=    1 NMtDS0=    0 NMtDT0=    0
 Petite list used in FoFCou.
 Initial guess orbital symmetries:
 Alpha Orbitals:
       Occupied  (A1) (B2) (A1) (A1) (B2) (A1) (A1) (B2) (B2) (A1)
                 (B1) (A2)
       Virtual   (B1) (A1) (A1) (B2) (A1) (B2) (A1) (B1) (B2) (A1)
                 (A1) (A2) (B2) (B1) (B2) (A1) (A1) (B2) (A1) (B2)
                 (A1) (B2) (A1) (B2) (A1) (B1) (A2) (B1) (A2) (B2)
                 (A1) (A1) (B2) (A1) (B2) (B1) (A1) (A1) (B2) (B2)
                 (A2) (B1) (A1) (A1) (B1) (A2) (B1) (B2) (A2) (B2)
                 (B1) (A1) (B2) (A1) (B2) (A1) (A2) (B1) (A1) (A1)
                 (B2) (B2) (A1) (B2) (A1) (A1) (B2) (A1) (B2) (A1)
                 (B2) (A2) (B1) (B1) (B2) (A2) (B1) (A1) (B2) (A1)
                 (A2) (A1) (B1) (B2) (A1) (A1) (B2) (A1) (B1) (A2)
                 (B2) (A2) (B1) (A1) (A2) (A1) (A2) (B2) (B1) (B2)
                 (A1) (A1) (B1) (B2) (B2) (A2) (A1) (B1) (B1) (A2)
                 (B2) (A1) (B2) (A2) (A1) (B1) (A2) (B1) (B2) (A1)
                 (B1) (A2) (B2) (A1) (B2) (B2) (A1) (B1) (A1) (B2)
                 (A2) (A1) (B1) (A1) (B2) (A1) (A2) (B2) (A1) (B1)
                 (B2) (A1) (B2) (B2) (A1) (A1) (A1) (B2)
 Beta  Orbitals:
       Occupied  (A1) (B2) (A1) (A1) (B2) (A1) (A1) (B2) (B2) (A1)
                 (B1)
       Virtual   (A2) (B1) (A1) (A1) (B2) (A1) (B2) (A1) (B1) (B2)
                 (A1) (A1) (A2) (B2) (B1) (B2) (A1) (A1) (B2) (A1)
                 (B2) (A1) (B2) (A1) (B2) (A1) (B1) (A2) (B1) (A2)
                 (B2) (A1) (A1) (B2) (A1) (B2) (B1) (A1) (A1) (B2)
                 (B2) (A2) (B1) (A1) (A1) (B1) (A2) (B1) (B2) (A2)
                 (B2) (B1) (A1) (B2) (A1) (B2) (A1) (A2) (B1) (A1)
                 (A1) (B2) (B2) (A1) (B2) (A1) (A1) (B2) (A1) (B2)
                 (A1) (B2) (A2) (B1) (B1) (B2) (A2) (B1) (A1) (B2)
                 (A1) (A2) (A1) (B1) (B2) (A1) (A1) (B2) (A1) (B1)
                 (A2) (B2) (A2) (B1) (A1) (A2) (A1) (A2) (B2) (B1)
                 (B2) (A1) (A1) (B1) (B2) (B2) (A2) (A1) (B1) (B1)
                 (A2) (B2) (A1) (B2) (A2) (A1) (B1) (A2) (B1) (B2)
                 (A1) (B1) (A2) (B2) (A1) (B2) (B2) (A1) (B1) (A1)
                 (B2) (A2) (A1) (B1) (A1) (B2) (A1) (A2) (B2) (A1)
                 (B1) (B2) (A1) (B2) (B2) (A1) (A1) (A1) (B2)
 The electronic state of the initial guess is 2-A2.
 Initial guess <Sx>= 0.0000 <Sy>= 0.0000 <Sz>= 0.5000 <S**2>= 0.7500 S= 0.5000
 Keep R1 and R2 ints in memory in symmetry-blocked form, NReq=104176815.
 Requested convergence on RMS density matrix=1.00D-08 within 128 cycles.
 Requested convergence on MAX density matrix=1.00D-06.
 Requested convergence on             energy=1.00D-06.
 No special actions if energy rises.
 Integral accuracy reduced to 1.0D-05 until final iterations.
 Initial convergence to 1.0D-05 achieved.  Increase integral accuracy.
 SCF Done:  E(UB3LYP) =  -117.312983699     A.U. after   13 cycles
            NFock= 13  Conv=0.93D-08     -V/T= 2.0046
 <Sx>= 0.0000 <Sy>= 0.0000 <Sz>= 0.5000 <S**2>= 0.7779 S= 0.5139
 <L.S>=  0.00000000000    
 Annihilation of the first spin contaminant:
 S**2 before annihilation     0.7779,   after     0.7502

 **********************************************************************

            Population analysis using the SCF Density.

 **********************************************************************

 Orbital symmetries:
 Alpha Orbitals:
       Occupied  (A1) (B2) (A1) (A1) (B2) (A1) (A1) (B2) (B2) (A1)
                 (B1) (A2)
       Virtual   (B1) (A1) (A1) (B2) (A1) (B2) (A1) (B1) (B2) (A1)
                 (A2) (B2) (A1) (B1) (B2) (A1) (A1) (B2) (A1) (B2)
                 (A1) (B2) (A1) (B2) (A1) (B1) (A2) (B1) (A2) (B2)
                 (A1) (B2) (A1) (A1) (B2) (A1) (B1) (A1) (B2) (B2)
                 (A2) (B1) (A1) (A1) (B1) (A2) (B1) (B2) (A2) (B2)
                 (B1) (A1) (B2) (A1) (B2) (A1) (A2) (B1) (A1) (B2)
                 (A1) (B2) (A1) (B2) (A1) (A1) (B2) (A1) (B2) (B2)
                 (A1) (A2) (B1) (B1) (A2) (B2) (B1) (A1) (B2) (A1)
                 (A2) (B1) (A1) (B2) (A1) (A1) (B2) (A2) (A1) (B1)
                 (A2) (B1) (B2) (A1) (A2) (A1) (A2) (B2) (A1) (B2)
                 (B1) (A1) (B1) (B2) (B2) (A2) (A1) (B1) (B1) (B2)
                 (A2) (A1) (B2) (A2) (A1) (B1) (A2) (B1) (B2) (A1)
                 (A2) (B1) (B2) (A1) (B2) (B2) (B1) (A1) (A1) (B2)
                 (A2) (A1) (B1) (B2) (A1) (A1) (A2) (B2) (B1) (A1)
                 (B2) (A1) (B2) (B2) (A1) (A1) (A1) (B2)
 Beta  Orbitals:
       Occupied  (A1) (B2) (A1) (A1) (B2) (A1) (A1) (B2) (B2) (A1)
                 (B1)
       Virtual   (A2) (A1) (B1) (A1) (B2) (A1) (B2) (A1) (B2) (B1)
                 (A1) (A2) (B2) (A1) (B1) (B2) (A1) (A1) (A1) (B2)
                 (B2) (A1) (B2) (A1) (B2) (A1) (B1) (A2) (B1) (A2)
                 (B2) (A1) (B2) (A1) (A1) (B2) (B1) (A1) (A1) (B2)
                 (B2) (A2) (B1) (A1) (A1) (B1) (B2) (B1) (A2) (A2)
                 (B2) (A1) (B1) (B2) (A1) (B2) (A1) (A2) (A1) (B1)
                 (B2) (A1) (B2) (A1) (B2) (A1) (A1) (B2) (A1) (B2)
                 (B2) (A1) (A2) (B1) (B1) (B2) (A2) (B1) (A1) (B2)
                 (A1) (A2) (B1) (A1) (B2) (A1) (A1) (B2) (A2) (A1)
                 (B1) (B2) (B1) (A2) (A1) (A1) (A2) (A2) (B2) (A1)
                 (B1) (B2) (A1) (B2) (B1) (B2) (A2) (A1) (B1) (B1)
                 (B2) (A2) (A1) (B2) (A2) (A1) (B1) (A2) (B1) (B2)
                 (A1) (B1) (A2) (B2) (A1) (B2) (B2) (B1) (A1) (A1)
                 (B2) (A2) (A1) (B1) (B2) (A1) (A1) (A2) (B2) (B1)
                 (A1) (B2) (A1) (B2) (B2) (A1) (A1) (A1) (B2)
 The electronic state is 2-A2.
 Alpha  occ. eigenvalues --  -10.18208 -10.18181 -10.18107  -0.79990  -0.68682
 Alpha  occ. eigenvalues --   -0.56191  -0.48455  -0.44319  -0.39216  -0.36561
 Alpha  occ. eigenvalues --   -0.33080  -0.20626
 Alpha virt. eigenvalues --    0.02006   0.02442   0.04277   0.04847   0.08673
 Alpha virt. eigenvalues --    0.09652   0.14995   0.16621   0.18051   0.19831
 Alpha virt. eigenvalues --    0.21194   0.24592   0.25099   0.26631   0.28404
 Alpha virt. eigenvalues --    0.32114   0.33437   0.34237   0.34320   0.37555
 Alpha virt. eigenvalues --    0.40321   0.47652   0.48962   0.55761   0.58016
 Alpha virt. eigenvalues --    0.63879   0.67815   0.76356   0.81025   0.85413
 Alpha virt. eigenvalues --    0.86161   0.95967   0.96980   0.97432   1.00404
 Alpha virt. eigenvalues --    1.01318   1.01625   1.09247   1.10726   1.11874
 Alpha virt. eigenvalues --    1.13608   1.17294   1.18798   1.20949   1.25501
 Alpha virt. eigenvalues --    1.31300   1.32562   1.33210   1.37200   1.39631
 Alpha virt. eigenvalues --    1.50035   1.51160   1.54673   1.57668   1.69131
 Alpha virt. eigenvalues --    1.71354   1.71902   1.73512   1.73751   1.78650
 Alpha virt. eigenvalues --    1.79128   1.92375   2.03125   2.07223   2.08292
 Alpha virt. eigenvalues --    2.22744   2.30971   2.38931   2.52582   2.74623
 Alpha virt. eigenvalues --    2.77028   2.93248   2.98705   3.23543   3.25537
 Alpha virt. eigenvalues --    3.26628   3.32774   3.36067   3.38020   3.38530
 Alpha virt. eigenvalues --    3.38550   3.56116   3.56918   3.61302   3.67716
 Alpha virt. eigenvalues --    3.74068   3.77481   3.91190   3.92567   3.95007
 Alpha virt. eigenvalues --    4.00932   4.01336   4.01629   4.04440   4.07719
 Alpha virt. eigenvalues --    4.08842   4.13777   4.17354   4.19659   4.19853
 Alpha virt. eigenvalues --    4.19896   4.23735   4.27598   4.27862   4.31196
 Alpha virt. eigenvalues --    4.31508   4.34730   4.37501   4.42679   4.45374
 Alpha virt. eigenvalues --    4.45889   4.47688   4.49707   4.52044   4.52748
 Alpha virt. eigenvalues --    4.53597   4.54804   4.58319   4.72302   4.77083
 Alpha virt. eigenvalues --    4.90446   4.90541   4.99686   5.04735   5.06907
 Alpha virt. eigenvalues --    5.16353   5.17119   5.19135   5.26569   5.32365
 Alpha virt. eigenvalues --    5.36942   5.43936   5.45656   5.52603   5.52836
 Alpha virt. eigenvalues --    5.54972   5.62187   5.66773   5.75173   5.76911
 Alpha virt. eigenvalues --    5.88036   5.94255   6.02756   6.12768   6.15563
 Alpha virt. eigenvalues --    6.30522   6.48470   6.97344
  Beta  occ. eigenvalues --  -10.18466 -10.17251 -10.17249  -0.78946  -0.66243
  Beta  occ. eigenvalues --   -0.55523  -0.47997  -0.43752  -0.38650  -0.36300
  Beta  occ. eigenvalues --   -0.29983
  Beta virt. eigenvalues --   -0.08942   0.02570   0.03842   0.04341   0.05057
  Beta virt. eigenvalues --    0.08743   0.09748   0.14979   0.18153   0.18227
  Beta virt. eigenvalues --    0.20446   0.23449   0.24700   0.25206   0.27414
  Beta virt. eigenvalues --    0.30099   0.32322   0.34000   0.34650   0.34652
  Beta virt. eigenvalues --    0.38365   0.40518   0.47982   0.49288   0.56367
  Beta virt. eigenvalues --    0.58152   0.65139   0.69317   0.76681   0.82482
  Beta virt. eigenvalues --    0.85488   0.86510   0.95975   0.96995   0.97777
  Beta virt. eigenvalues --    1.01470   1.02788   1.02853   1.09161   1.11246
  Beta virt. eigenvalues --    1.12133   1.15307   1.17854   1.18790   1.21492
  Beta virt. eigenvalues --    1.27190   1.34610   1.34811   1.35318   1.39684
  Beta virt. eigenvalues --    1.40416   1.51349   1.51464   1.55689   1.58062
  Beta virt. eigenvalues --    1.70071   1.72528   1.73327   1.74259   1.74594
  Beta virt. eigenvalues --    1.78949   1.79174   1.92861   2.03568   2.07807
  Beta virt. eigenvalues --    2.08427   2.23427   2.31585   2.39290   2.53553
  Beta virt. eigenvalues --    2.75977   2.77601   2.94305   2.99892   3.24281
  Beta virt. eigenvalues --    3.26830   3.27188   3.35162   3.36523   3.38760
  Beta virt. eigenvalues --    3.38869   3.40829   3.56503   3.58994   3.62300
  Beta virt. eigenvalues --    3.68577   3.74647   3.80555   3.91307   3.93281
  Beta virt. eigenvalues --    3.96120   4.01789   4.02160   4.02161   4.05060
  Beta virt. eigenvalues --    4.09109   4.09376   4.16580   4.17593   4.20602
  Beta virt. eigenvalues --    4.20843   4.21253   4.24526   4.29214   4.30357
  Beta virt. eigenvalues --    4.32266   4.32758   4.35734   4.37948   4.43205
  Beta virt. eigenvalues --    4.45344   4.46432   4.47388   4.49575   4.52534
  Beta virt. eigenvalues --    4.52915   4.54047   4.55304   4.58818   4.72342
  Beta virt. eigenvalues --    4.77143   4.91519   4.92021   4.99927   5.04891
  Beta virt. eigenvalues --    5.07534   5.16787   5.18372   5.19168   5.26727
  Beta virt. eigenvalues --    5.32502   5.38494   5.44073   5.46493   5.52788
  Beta virt. eigenvalues --    5.53177   5.55068   5.63810   5.66965   5.76346
  Beta virt. eigenvalues --    5.77086   5.88725   5.94729   6.03144   6.13073
  Beta virt. eigenvalues --    6.16120   6.30708   6.48604   6.97517
          Condensed to atoms (all electrons):
               1          2          3          4          5          6
     1  C    4.733264   0.431451   0.512796   0.512796  -0.037447  -0.037447
     2  H    0.431451   0.620823  -0.041440  -0.041440  -0.007316  -0.007316
     3  C    0.512796  -0.041440   4.878583  -0.101938   0.427577   0.007481
     4  C    0.512796  -0.041440  -0.101938   4.878583   0.007481   0.427577
     5  H   -0.037447  -0.007316   0.427577   0.007481   0.583980  -0.000435
     6  H   -0.037447  -0.007316   0.007481   0.427577  -0.000435   0.583980
     7  H   -0.048395   0.006421   0.430920  -0.004656  -0.029116   0.000155
     8  H   -0.048395   0.006421  -0.004656   0.430920   0.000155  -0.029116
               7          8
     1  C   -0.048395  -0.048395
     2  H    0.006421   0.006421
     3  C    0.430920  -0.004656
     4  C   -0.004656   0.430920
     5  H   -0.029116   0.000155
     6  H    0.000155  -0.029116
     7  H    0.594269   0.003086
     8  H    0.003086   0.594269
          Atomic-Atomic Spin Densities.
               1          2          3          4          5          6
     1  C   -0.221190  -0.001315  -0.010232  -0.010232  -0.005438  -0.005438
     2  H   -0.001315   0.007704   0.000714   0.000714   0.000638   0.000638
     3  C   -0.010232   0.000714   0.727409  -0.058691   0.010775  -0.001107
     4  C   -0.010232   0.000714  -0.058691   0.727409  -0.001107   0.010775
     5  H   -0.005438   0.000638   0.010775  -0.001107  -0.035676   0.000065
     6  H   -0.005438   0.000638  -0.001107   0.010775   0.000065  -0.035676
     7  H   -0.002482  -0.000439   0.007207   0.000997   0.003624  -0.000163
     8  H   -0.002482  -0.000439   0.000997   0.007207  -0.000163   0.003624
               7          8
     1  C   -0.002482  -0.002482
     2  H   -0.000439  -0.000439
     3  C    0.007207   0.000997
     4  C    0.000997   0.007207
     5  H    0.003624  -0.000163
     6  H   -0.000163   0.003624
     7  H   -0.033526   0.000290
     8  H    0.000290  -0.033526
 Mulliken charges and spin densities:
               1          2
     1  C   -0.018623  -0.258808
     2  H    0.032395   0.008214
     3  C   -0.109323   0.677072
     4  C   -0.109323   0.677072
     5  H    0.055121  -0.027283
     6  H    0.055121  -0.027283
     7  H    0.047316  -0.024492
     8  H    0.047316  -0.024492
 Sum of Mulliken charges =  -0.00000   1.00000
 Mulliken charges and spin densities with hydrogens summed into heavy atoms:
               1          2
     1  C    0.013772  -0.250594
     3  C   -0.006886   0.625297
     4  C   -0.006886   0.625297
 Electronic spatial extent (au):  <R**2>=            180.2146
 Charge=             -0.0000 electrons
 Dipole moment (field-independent basis, Debye):
    X=              0.0000    Y=              0.0000    Z=              0.0598  Tot=              0.0598
 Quadrupole moment (field-independent basis, Debye-Ang):
   XX=            -22.5353   YY=            -18.2479   ZZ=            -17.9257
   XY=              0.0000   XZ=             -0.0000   YZ=              0.0000
 Traceless Quadrupole moment (field-independent basis, Debye-Ang):
   XX=             -2.9656   YY=              1.3217   ZZ=              1.6440
   XY=              0.0000   XZ=             -0.0000   YZ=              0.0000
 Octapole moment (field-independent basis, Debye-Ang**2):
  XXX=              0.0000  YYY=             -0.0000  ZZZ=             -0.3268  XYY=              0.0000
  XXY=              0.0000  XXZ=              0.1363  XZZ=              0.0000  YZZ=             -0.0000
  YYZ=              1.2031  XYZ=              0.0000
 Hexadecapole moment (field-independent basis, Debye-Ang**3):
 XXXX=            -28.8304 YYYY=           -165.5474 ZZZZ=            -50.8471 XXXY=             -0.0000
 XXXZ=             -0.0000 YYYX=             -0.0000 YYYZ=              0.0000 ZZZX=             -0.0000
 ZZZY=             -0.0000 XXYY=            -38.4193 XXZZ=            -14.9954 YYZZ=            -36.9611
 XXYZ=              0.0000 YYXZ=             -0.0000 ZZXY=             -0.0000
 N-N= 6.495029042195D+01 E-N=-4.014433505340D+02  KE= 1.167801497875D+02
 Symmetry A1   KE= 7.377260094191D+01
 Symmetry A2   KE= 1.196600309786D+00
 Symmetry B1   KE= 2.023938136437D+00
 Symmetry B2   KE= 3.978701039935D+01
 Symmetry A1   SP=-7.988673504449D-15
 Symmetry A2   SP= 1.000000000000D+00
 Symmetry B1   SP=-4.650021145046D-15
 Symmetry B2   SP=-9.349781123546D-15
                          Isotropic Fermi Contact Couplings
        Atom                 a.u.       MegaHertz       Gauss      10(-4) cm-1
     1  C(13)             -0.05247     -58.98458     -21.04717     -19.67514
     2  H(1)               0.00270      12.06293       4.30435       4.02376
     3  C(13)              0.08377      94.17608      33.60437      31.41376
     4  C(13)              0.08377      94.17608      33.60437      31.41376
     5  H(1)              -0.00937     -41.88352     -14.94508     -13.97084
     6  H(1)              -0.00937     -41.88352     -14.94508     -13.97084
     7  H(1)              -0.00879     -39.27936     -14.01585     -13.10218
     8  H(1)              -0.00879     -39.27936     -14.01585     -13.10218
 --------------------------------------------------------
       Center         ----  Spin Dipole Couplings  ----
                      3XX-RR        3YY-RR        3ZZ-RR
 --------------------------------------------------------
     1   Atom       -0.213588      0.129645      0.083943
     2   Atom       -0.010281      0.012855     -0.002574
     3   Atom        0.748699     -0.372884     -0.375815
     4   Atom        0.748699     -0.372884     -0.375815
     5   Atom        0.002164      0.020460     -0.022624
     6   Atom        0.002164      0.020460     -0.022624
     7   Atom       -0.000994     -0.040796      0.041790
     8   Atom       -0.000994     -0.040796      0.041790
 --------------------------------------------------------
                        XY            XZ            YZ
 --------------------------------------------------------
     1   Atom       -0.000000     -0.000000     -0.000000
     2   Atom        0.000000      0.000000     -0.000000
     3   Atom        0.000000      0.000000      0.005352
     4   Atom       -0.000000      0.000000     -0.005352
     5   Atom        0.000000      0.000000      0.041610
     6   Atom       -0.000000      0.000000     -0.041610
     7   Atom        0.000000     -0.000000     -0.005600
     8   Atom        0.000000     -0.000000      0.005600
 --------------------------------------------------------


 ---------------------------------------------------------------------------------
              Anisotropic Spin Dipole Couplings in Principal Axis System
 ---------------------------------------------------------------------------------

       Atom             a.u.   MegaHertz   Gauss  10(-4) cm-1        Axes

              Baa    -0.2136   -28.661   -10.227    -9.560  1.0000  0.0000  0.0000
     1 C(13)  Bbb     0.0839    11.264     4.019     3.757 -0.0000  0.0000  1.0000
              Bcc     0.1296    17.397     6.208     5.803 -0.0000  1.0000 -0.0000
 
              Baa    -0.0103    -5.485    -1.957    -1.830  1.0000 -0.0000 -0.0000
     2 H(1)   Bbb    -0.0026    -1.373    -0.490    -0.458  0.0000  0.0000  1.0000
              Bcc     0.0129     6.859     2.447     2.288 -0.0000  1.0000 -0.0000
 
              Baa    -0.3799   -50.979   -18.190   -17.005  0.0000 -0.6066  0.7950
     3 C(13)  Bbb    -0.3688   -49.489   -17.659   -16.508 -0.0000  0.7950  0.6066
              Bcc     0.7487   100.468    35.850    33.513  1.0000  0.0000  0.0000
 
              Baa    -0.3799   -50.979   -18.190   -17.005 -0.0000  0.6066  0.7950
     4 C(13)  Bbb    -0.3688   -49.489   -17.659   -16.508 -0.0000  0.7950 -0.6066
              Bcc     0.7487   100.468    35.850    33.513  1.0000  0.0000  0.0000
 
              Baa    -0.0479   -25.577    -9.127    -8.532 -0.0000 -0.5197  0.8543
     5 H(1)   Bbb     0.0022     1.154     0.412     0.385  1.0000 -0.0000  0.0000
              Bcc     0.0458    24.423     8.715     8.147  0.0000  0.8543  0.5197
 
              Baa    -0.0479   -25.577    -9.127    -8.532  0.0000  0.5197  0.8543
     6 H(1)   Bbb     0.0022     1.154     0.412     0.385  1.0000  0.0000 -0.0000
              Bcc     0.0458    24.423     8.715     8.147 -0.0000  0.8543 -0.5197
 
              Baa    -0.0412   -21.969    -7.839    -7.328 -0.0000  0.9977  0.0673
     7 H(1)   Bbb    -0.0010    -0.530    -0.189    -0.177  1.0000  0.0000  0.0000
              Bcc     0.0422    22.499     8.028     7.505 -0.0000 -0.0673  0.9977
 
              Baa    -0.0412   -21.969    -7.839    -7.328 -0.0000  0.9977 -0.0673
     8 H(1)   Bbb    -0.0010    -0.530    -0.189    -0.177  1.0000  0.0000  0.0000
              Bcc     0.0422    22.499     8.028     7.505 -0.0000  0.0673  0.9977
 

 ---------------------------------------------------------------------------------

 Calling FoFJK, ICntrl=      2127 FMM=F ISym2X=1 I1Cent= 0 IOpClX= 1 NMat=1 NMatS=1 NMatT=0.
 ***** Axes restored to original set *****
 -------------------------------------------------------------------
 Center     Atomic                   Forces (Hartrees/Bohr)
 Number     Number              X              Y              Z
 -------------------------------------------------------------------
      1        6          -0.000000000   -0.000000000    0.000769814
      2        1           0.000000000    0.000000000   -0.002257778
      3        6           0.000000000   -0.000108987   -0.000624992
      4        6           0.000000000    0.000108987   -0.000624992
      5        1           0.000000000   -0.002195130   -0.000778468
      6        1           0.000000000    0.002195130   -0.000778468
      7        1           0.000000000   -0.000301175    0.002147442
      8        1          -0.000000000    0.000301175    0.002147442
 -------------------------------------------------------------------
 Cartesian Forces:  Max     0.002257778 RMS     0.001055715

 GradGradGradGradGradGradGradGradGradGradGradGradGradGradGradGradGradGrad
 Berny optimization.
 FormGI is forming the generalized inverse of G from B-inverse, IUseBI=4.
 Internal  Forces:  Max     0.002655500 RMS     0.001296053
 Search for a local minimum.
 Step number   1 out of a maximum of   34
 All quantities printed in internal units (Hartrees-Bohrs-Radians)
 Mixed Optimization -- RFO/linear search
 Second derivative matrix not updated -- first step.
 ITU=  0
     Eigenvalues ---    0.02321   0.02321   0.02321   0.02321   0.02321
     Eigenvalues ---    0.16000   0.16000   0.16000   0.16000   0.16000
     Eigenvalues ---    0.22000   0.34918   0.35351   0.35351   0.35619
     Eigenvalues ---    0.35619   0.48653   0.48653
 RFO step:  Lambda=-1.06898363D-04 EMin= 2.32062646D-02
 Linear search not attempted -- first point.
 Iteration  1 RMS(Cart)=  0.00539916 RMS(Int)=  0.00000392
 Iteration  2 RMS(Cart)=  0.00000367 RMS(Int)=  0.00000000
 Iteration  3 RMS(Cart)=  0.00000000 RMS(Int)=  0.00000000
 ClnCor:  largest displacement from symmetrization is 2.26D-12 for atom     3.
 Variable       Old X    -DE/DX   Delta X   Delta X   Delta X     New X
                                 (Linear)    (Quad)   (Total)
    R1        2.05808  -0.00226   0.00000  -0.00646  -0.00646   2.05162
    R2        2.61249  -0.00266   0.00000  -0.00546  -0.00546   2.60704
    R3        2.61249  -0.00266   0.00000  -0.00546  -0.00546   2.60704
    R4        2.04681  -0.00228   0.00000  -0.00641  -0.00641   2.04041
    R5        2.05109  -0.00216   0.00000  -0.00611  -0.00611   2.04498
    R6        2.04681  -0.00228   0.00000  -0.00641  -0.00641   2.04041
    R7        2.05109  -0.00216   0.00000  -0.00611  -0.00611   2.04498
    A1        2.04883   0.00027   0.00000   0.00121   0.00121   2.05004
    A2        2.04883   0.00027   0.00000   0.00121   0.00121   2.05004
    A3        2.18553  -0.00053   0.00000  -0.00242  -0.00242   2.18311
    A4        2.12414  -0.00052   0.00000  -0.00322  -0.00322   2.12092
    A5        2.11298   0.00009   0.00000   0.00057   0.00057   2.11354
    A6        2.04607   0.00042   0.00000   0.00265   0.00265   2.04872
    A7        2.12414  -0.00052   0.00000  -0.00322  -0.00322   2.12092
    A8        2.11298   0.00009   0.00000   0.00057   0.00057   2.11354
    A9        2.04607   0.00042   0.00000   0.00265   0.00265   2.04872
    D1        0.00000  -0.00000   0.00000  -0.00000   0.00000   0.00000
    D2        3.14159  -0.00000   0.00000  -0.00000   0.00000   3.14159
    D3        3.14159   0.00000   0.00000   0.00000   0.00000   3.14159
    D4       -0.00000   0.00000   0.00000   0.00000   0.00000   0.00000
    D5        0.00000  -0.00000   0.00000  -0.00000   0.00000   0.00000
    D6        3.14159   0.00000   0.00000   0.00000   0.00000   3.14159
    D7        3.14159  -0.00000   0.00000  -0.00000   0.00000   3.14159
    D8        0.00000  -0.00000   0.00000  -0.00000   0.00000   0.00000
         Item               Value     Threshold  Converged?
 Maximum Force            0.002655     0.000450     NO 
 RMS     Force            0.001296     0.000300     NO 
 Maximum Displacement     0.013908     0.001800     NO 
 RMS     Displacement     0.005399     0.001200     NO 
 Predicted change in Energy=-5.346536D-05
 GradGradGradGradGradGradGradGradGradGradGradGradGradGradGradGradGradGrad

                          Input orientation:                          
 ---------------------------------------------------------------------
 Center     Atomic      Atomic             Coordinates (Angstroms)
 Number     Number       Type             X           Y           Z
 ---------------------------------------------------------------------
      1          6           0        0.000000    0.000000    0.440599
      2          1           0        0.000000    0.000000    1.526267
      3          6           0        0.000000    1.224165   -0.195538
      4          6           0       -0.000000   -1.224165   -0.195538
      5          1           0        0.000000    2.149470    0.360915
      6          1           0       -0.000000   -2.149470    0.360915
      7          1           0        0.000000    1.292840   -1.275512
      8          1           0       -0.000000   -1.292840   -1.275512
 ---------------------------------------------------------------------
                    Distance matrix (angstroms):
                    1          2          3          4          5
     1  C    0.000000
     2  H    1.085668   0.000000
     3  C    1.379584   2.112627   0.000000
     4  C    1.379584   2.112627   2.448331   0.000000
     5  H    2.150947   2.445050   1.079736   3.419219   0.000000
     6  H    2.150947   2.445050   3.419219   1.079736   4.298941
     7  H    2.148598   3.085677   1.082155   2.738916   1.847082
     8  H    2.148598   3.085677   2.738916   1.082155   3.811482
                    6          7          8
     6  H    0.000000
     7  H    3.811482   0.000000
     8  H    1.847082   2.585680   0.000000
 Stoichiometry    C3H5(2)
 Framework group  C2V[C2(CH),SGV(C2H4)]
 Deg. of freedom     7
 Full point group                 C2V     NOp   4
 Largest Abelian subgroup         C2V     NOp   4
 Largest concise Abelian subgroup C2      NOp   2
                         Standard orientation:                         
 ---------------------------------------------------------------------
 Center     Atomic      Atomic             Coordinates (Angstroms)
 Number     Number       Type             X           Y           Z
 ---------------------------------------------------------------------
      1          6           0       -0.000000    0.000000    0.440851
      2          1           0       -0.000000    0.000000    1.526519
      3          6           0        0.000000    1.224165   -0.195286
      4          6           0       -0.000000   -1.224165   -0.195286
      5          1           0       -0.000000    2.149470    0.361167
      6          1           0       -0.000000   -2.149470    0.361167
      7          1           0        0.000000    1.292840   -1.275260
      8          1           0       -0.000000   -1.292840   -1.275260
 ---------------------------------------------------------------------
 Rotational constants (GHZ):          55.3249417          10.3885440           8.7462351
 Basis read from rwf:  (5D, 7F)
 There are    70 symmetry adapted cartesian basis functions of A1  symmetry.
 There are    23 symmetry adapted cartesian basis functions of A2  symmetry.
 There are    30 symmetry adapted cartesian basis functions of B1  symmetry.
 There are    57 symmetry adapted cartesian basis functions of B2  symmetry.
 There are    60 symmetry adapted basis functions of A1  symmetry.
 There are    22 symmetry adapted basis functions of A2  symmetry.
 There are    28 symmetry adapted basis functions of B1  symmetry.
 There are    50 symmetry adapted basis functions of B2  symmetry.
   160 basis functions,   243 primitive gaussians,   180 cartesian basis functions
    12 alpha electrons       11 beta electrons
       nuclear repulsion energy        65.1157325591 Hartrees.
 NAtoms=    8 NActive=    8 NUniq=    5 SFac= 2.56D+00 NAtFMM=   60 NAOKFM=F Big=F
 Integral buffers will be    131072 words long.
 Raffenetti 2 integral format.
 Two-electron integral symmetry is turned on.
 One-electron integrals computed using PRISM.
 NBasis=   160 RedAO= T EigKep=  3.59D-04  NBF=    60    22    28    50
 NBsUse=   160 1.00D-06 EigRej= -1.00D+00 NBFU=    60    22    28    50
 Initial guess from the checkpoint file:  "/wrk/irikura/Gau-7418.chk"
 B after Tr=     0.000000    0.000000   -0.000000
         Rot=    1.000000    0.000000    0.000000    0.000000 Ang=   0.00 deg.
 Initial guess orbital symmetries:
 Alpha Orbitals:
       Occupied  (A1) (B2) (A1) (A1) (B2) (A1) (A1) (B2) (B2) (A1)
                 (B1) (A2)
       Virtual   (B1) (A1) (A1) (B2) (A1) (B2) (A1) (B1) (B2) (A1)
                 (A2) (B2) (A1) (B1) (B2) (A1) (A1) (B2) (A1) (B2)
                 (A1) (B2) (A1) (B2) (A1) (B1) (A2) (B1) (A2) (B2)
                 (A1) (B2) (A1) (A1) (B2) (A1) (B1) (A1) (B2) (B2)
                 (A2) (B1) (A1) (A1) (B1) (A2) (B1) (B2) (A2) (B2)
                 (B1) (A1) (B2) (A1) (B2) (A1) (A2) (B1) (A1) (B2)
                 (A1) (B2) (A1) (B2) (A1) (A1) (B2) (A1) (B2) (B2)
                 (A1) (A2) (B1) (B1) (A2) (B2) (B1) (A1) (B2) (A1)
                 (A2) (B1) (A1) (B2) (A1) (A1) (B2) (A2) (A1) (B1)
                 (A2) (B1) (B2) (A1) (A2) (A1) (A2) (B2) (A1) (B2)
                 (B1) (A1) (B1) (B2) (B2) (A2) (A1) (B1) (B1) (B2)
                 (A2) (A1) (B2) (A2) (A1) (B1) (A2) (B1) (B2) (A1)
                 (A2) (B1) (B2) (A1) (B2) (B2) (B1) (A1) (A1) (B2)
                 (A2) (A1) (B1) (B2) (A1) (A1) (A2) (B2) (B1) (A1)
                 (B2) (A1) (B2) (B2) (A1) (A1) (A1) (B2)
 Beta  Orbitals:
       Occupied  (A1) (B2) (A1) (A1) (B2) (A1) (A1) (B2) (B2) (A1)
                 (B1)
       Virtual   (A2) (A1) (B1) (A1) (B2) (A1) (B2) (A1) (B2) (B1)
                 (A1) (A2) (B2) (A1) (B1) (B2) (A1) (A1) (A1) (B2)
                 (B2) (A1) (B2) (A1) (B2) (A1) (B1) (A2) (B1) (A2)
                 (B2) (A1) (B2) (A1) (A1) (B2) (B1) (A1) (A1) (B2)
                 (B2) (A2) (B1) (A1) (A1) (B1) (B2) (B1) (A2) (A2)
                 (B2) (A1) (B1) (B2) (A1) (B2) (A1) (A2) (A1) (B1)
                 (B2) (A1) (B2) (A1) (B2) (A1) (A1) (B2) (A1) (B2)
                 (B2) (A1) (A2) (B1) (B1) (B2) (A2) (B1) (A1) (B2)
                 (A1) (A2) (B1) (A1) (B2) (A1) (A1) (B2) (A2) (A1)
                 (B1) (B2) (B1) (A2) (A1) (A1) (A2) (A2) (B2) (A1)
                 (B1) (B2) (A1) (B2) (B1) (B2) (A2) (A1) (B1) (B1)
                 (B2) (A2) (A1) (B2) (A2) (A1) (B1) (A2) (B1) (B2)
                 (A1) (B1) (A2) (B2) (A1) (B2) (B2) (B1) (A1) (A1)
                 (B2) (A2) (A1) (B1) (B2) (A1) (A1) (A2) (B2) (B1)
                 (A1) (B2) (A1) (B2) (B2) (A1) (A1) (A1) (B2)
 Initial guess <Sx>= 0.0000 <Sy>= 0.0000 <Sz>= 0.5000 <S**2>= 0.7778 S= 0.5138
 Keep R1 and R2 ints in memory in symmetry-blocked form, NReq=104176815.
 Requested convergence on RMS density matrix=1.00D-08 within 128 cycles.
 Requested convergence on MAX density matrix=1.00D-06.
 Requested convergence on             energy=1.00D-06.
 No special actions if energy rises.
 SCF Done:  E(UB3LYP) =  -117.313034853     A.U. after    9 cycles
            NFock=  9  Conv=0.24D-08     -V/T= 2.0042
 <Sx>= 0.0000 <Sy>= 0.0000 <Sz>= 0.5000 <S**2>= 0.7775 S= 0.5136
 <L.S>=  0.00000000000    
 Annihilation of the first spin contaminant:
 S**2 before annihilation     0.7775,   after     0.7502
 Calling FoFJK, ICntrl=      2127 FMM=F ISym2X=1 I1Cent= 0 IOpClX= 1 NMat=1 NMatS=1 NMatT=0.
 ***** Axes restored to original set *****
 -------------------------------------------------------------------
 Center     Atomic                   Forces (Hartrees/Bohr)
 Number     Number              X              Y              Z
 -------------------------------------------------------------------
      1        6          -0.000000000   -0.000000000    0.000348888
      2        1           0.000000000    0.000000000   -0.000009582
      3        6           0.000000000    0.000411134   -0.000291283
      4        6           0.000000000   -0.000411134   -0.000291283
      5        1           0.000000000    0.000039072    0.000101768
      6        1           0.000000000   -0.000039072    0.000101768
      7        1           0.000000000   -0.000056525    0.000019862
      8        1          -0.000000000    0.000056525    0.000019862
 -------------------------------------------------------------------
 Cartesian Forces:  Max     0.000411134 RMS     0.000165896

 GradGradGradGradGradGradGradGradGradGradGradGradGradGradGradGradGradGrad
 Berny optimization.
 Using GEDIIS/GDIIS optimizer.
 FormGI is forming the generalized inverse of G from B-inverse, IUseBI=4.
 Internal  Forces:  Max     0.000427559 RMS     0.000130744
 Search for a local minimum.
 Step number   2 out of a maximum of   34
 All quantities printed in internal units (Hartrees-Bohrs-Radians)
 Mixed Optimization -- En-DIIS/RFO-DIIS
 Update second derivatives using D2CorX and points    1    2
 DE= -5.12D-05 DEPred=-5.35D-05 R= 9.57D-01
 TightC=F SS=  1.41D+00  RLast= 1.74D-02 DXNew= 5.0454D-01 5.2179D-02
 Trust test= 9.57D-01 RLast= 1.74D-02 DXMaxT set to 3.00D-01
 ITU=  1  0
 Use linear search instead of GDIIS.
     Eigenvalues ---    0.02321   0.02321   0.02321   0.02321   0.02321
     Eigenvalues ---    0.15718   0.16000   0.16000   0.16000   0.16013
     Eigenvalues ---    0.22073   0.34224   0.35095   0.35351   0.35619
     Eigenvalues ---    0.35811   0.48653   0.52752
 RFO step:  Lambda=-6.75314210D-07 EMin= 2.32062646D-02
 Quartic linear search produced a step of -0.04363.
 Iteration  1 RMS(Cart)=  0.00044529 RMS(Int)=  0.00000008
 Iteration  2 RMS(Cart)=  0.00000007 RMS(Int)=  0.00000000
 ClnCor:  largest displacement from symmetrization is 2.16D-12 for atom     3.
 Variable       Old X    -DE/DX   Delta X   Delta X   Delta X     New X
                                 (Linear)    (Quad)   (Total)
    R1        2.05162  -0.00001   0.00028  -0.00035  -0.00007   2.05155
    R2        2.60704   0.00043   0.00024   0.00057   0.00080   2.60784
    R3        2.60704   0.00043   0.00024   0.00057   0.00080   2.60784
    R4        2.04041   0.00009   0.00028  -0.00009   0.00019   2.04059
    R5        2.04498  -0.00002   0.00027  -0.00037  -0.00010   2.04487
    R6        2.04041   0.00009   0.00028  -0.00009   0.00019   2.04059
    R7        2.04498  -0.00002   0.00027  -0.00037  -0.00010   2.04487
    A1        2.05004  -0.00003  -0.00005  -0.00009  -0.00014   2.04990
    A2        2.05004  -0.00003  -0.00005  -0.00009  -0.00014   2.04990
    A3        2.18311   0.00007   0.00011   0.00018   0.00029   2.18339
    A4        2.12092  -0.00005   0.00014  -0.00048  -0.00034   2.12058
    A5        2.11354  -0.00003  -0.00002  -0.00015  -0.00017   2.11337
    A6        2.04872   0.00008  -0.00012   0.00063   0.00052   2.04924
    A7        2.12092  -0.00005   0.00014  -0.00048  -0.00034   2.12058
    A8        2.11354  -0.00003  -0.00002  -0.00015  -0.00017   2.11337
    A9        2.04872   0.00008  -0.00012   0.00063   0.00052   2.04924
    D1       -0.00000  -0.00000   0.00000  -0.00000   0.00000   0.00000
    D2        3.14159  -0.00000   0.00000  -0.00000   0.00000   3.14159
    D3        3.14159   0.00000   0.00000   0.00000   0.00000   3.14159
    D4       -0.00000   0.00000   0.00000   0.00000   0.00000   0.00000
    D5        0.00000  -0.00000   0.00000  -0.00000   0.00000   0.00000
    D6        3.14159   0.00000   0.00000   0.00000   0.00000   3.14159
    D7        3.14159  -0.00000   0.00000  -0.00000   0.00000   3.14159
    D8        0.00000  -0.00000   0.00000  -0.00000   0.00000   0.00000
         Item               Value     Threshold  Converged?
 Maximum Force            0.000428     0.000450     YES
 RMS     Force            0.000131     0.000300     YES
 Maximum Displacement     0.000886     0.001800     YES
 RMS     Displacement     0.000445     0.001200     YES
 Predicted change in Energy=-4.448487D-07
 Optimization completed.
    -- Stationary point found.
                           ----------------------------
                           !   Optimized Parameters   !
                           ! (Angstroms and Degrees)  !
 --------------------------                            --------------------------
 ! Name  Definition              Value          Derivative Info.                !
 --------------------------------------------------------------------------------
 ! R1    R(1,2)                  1.0857         -DE/DX =    0.0                 !
 ! R2    R(1,3)                  1.3796         -DE/DX =    0.0004              !
 ! R3    R(1,4)                  1.3796         -DE/DX =    0.0004              !
 ! R4    R(3,5)                  1.0797         -DE/DX =    0.0001              !
 ! R5    R(3,7)                  1.0822         -DE/DX =    0.0                 !
 ! R6    R(4,6)                  1.0797         -DE/DX =    0.0001              !
 ! R7    R(4,8)                  1.0822         -DE/DX =    0.0                 !
 ! A1    A(2,1,3)              117.4586         -DE/DX =    0.0                 !
 ! A2    A(2,1,4)              117.4586         -DE/DX =    0.0                 !
 ! A3    A(3,1,4)              125.0827         -DE/DX =    0.0001              !
 ! A4    A(1,3,5)              121.5198         -DE/DX =   -0.0001              !
 ! A5    A(1,3,7)              121.0971         -DE/DX =    0.0                 !
 ! A6    A(5,3,7)              117.3831         -DE/DX =    0.0001              !
 ! A7    A(1,4,6)              121.5198         -DE/DX =   -0.0001              !
 ! A8    A(1,4,8)              121.0971         -DE/DX =    0.0                 !
 ! A9    A(6,4,8)              117.3831         -DE/DX =    0.0001              !
 ! D1    D(2,1,3,5)              0.0            -DE/DX =    0.0                 !
 ! D2    D(2,1,3,7)            180.0            -DE/DX =    0.0                 !
 ! D3    D(4,1,3,5)            180.0            -DE/DX =    0.0                 !
 ! D4    D(4,1,3,7)              0.0            -DE/DX =    0.0                 !
 ! D5    D(2,1,4,6)              0.0            -DE/DX =    0.0                 !
 ! D6    D(2,1,4,8)            180.0            -DE/DX =    0.0                 !
 ! D7    D(3,1,4,6)            180.0            -DE/DX =    0.0                 !
 ! D8    D(3,1,4,8)              0.0            -DE/DX =    0.0                 !
 --------------------------------------------------------------------------------
 GradGradGradGradGradGradGradGradGradGradGradGradGradGradGradGradGradGrad

                          Input orientation:                          
 ---------------------------------------------------------------------
 Center     Atomic      Atomic             Coordinates (Angstroms)
 Number     Number       Type             X           Y           Z
 ---------------------------------------------------------------------
      1          6           0       -0.000000   -0.000000    0.440599
      2          1           0        0.000000   -0.000000    1.526267
      3          6           0        0.000000    1.224165   -0.195538
      4          6           0       -0.000000   -1.224165   -0.195538
      5          1           0        0.000000    2.149470    0.360915
      6          1           0       -0.000000   -2.149470    0.360915
      7          1           0        0.000000    1.292840   -1.275512
      8          1           0       -0.000000   -1.292840   -1.275512
 ---------------------------------------------------------------------
                    Distance matrix (angstroms):
                    1          2          3          4          5
     1  C    0.000000
     2  H    1.085668   0.000000
     3  C    1.379584   2.112627   0.000000
     4  C    1.379584   2.112627   2.448331   0.000000
     5  H    2.150947   2.445050   1.079736   3.419219   0.000000
     6  H    2.150947   2.445050   3.419219   1.079736   4.298941
     7  H    2.148598   3.085677   1.082155   2.738916   1.847082
     8  H    2.148598   3.085677   2.738916   1.082155   3.811482
                    6          7          8
     6  H    0.000000
     7  H    3.811482   0.000000
     8  H    1.847082   2.585680   0.000000
 Stoichiometry    C3H5(2)
 Framework group  C2V[C2(CH),SGV(C2H4)]
 Deg. of freedom     7
 Full point group                 C2V     NOp   4
 Largest Abelian subgroup         C2V     NOp   4
 Largest concise Abelian subgroup C2      NOp   2
                         Standard orientation:                         
 ---------------------------------------------------------------------
 Center     Atomic      Atomic             Coordinates (Angstroms)
 Number     Number       Type             X           Y           Z
 ---------------------------------------------------------------------
      1          6           0       -0.000000    0.000000    0.440851
      2          1           0       -0.000000    0.000000    1.526519
      3          6           0       -0.000000    1.224165   -0.195286
      4          6           0       -0.000000   -1.224165   -0.195286
      5          1           0       -0.000000    2.149470    0.361167
      6          1           0       -0.000000   -2.149470    0.361167
      7          1           0       -0.000000    1.292840   -1.275260
      8          1           0       -0.000000   -1.292840   -1.275260
 ---------------------------------------------------------------------
 Rotational constants (GHZ):          55.3249417          10.3885440           8.7462351

 **********************************************************************

            Population analysis using the SCF Density.

 **********************************************************************

 Orbital symmetries:
 Alpha Orbitals:
       Occupied  (A1) (B2) (A1) (A1) (B2) (A1) (A1) (B2) (B2) (A1)
                 (B1) (A2)
       Virtual   (B1) (A1) (A1) (B2) (A1) (B2) (A1) (B1) (B2) (A1)
                 (A2) (B2) (A1) (B1) (B2) (A1) (A1) (B2) (A1) (B2)
                 (A1) (B2) (A1) (B2) (A1) (B1) (A2) (B1) (A2) (B2)
                 (A1) (B2) (A1) (A1) (B2) (A1) (B1) (A1) (B2) (B2)
                 (A2) (B1) (A1) (A1) (B1) (A2) (B1) (B2) (A2) (B2)
                 (B1) (A1) (B2) (A1) (B2) (A1) (A2) (B1) (A1) (B2)
                 (A1) (B2) (A1) (B2) (A1) (A1) (B2) (A1) (B2) (B2)
                 (A1) (A2) (B1) (B1) (A2) (B2) (B1) (A1) (B2) (A1)
                 (A2) (B1) (A1) (B2) (A1) (A1) (B2) (A2) (A1) (B1)
                 (A2) (B1) (B2) (A1) (A2) (A1) (A2) (B2) (A1) (B1)
                 (B2) (A1) (B1) (B2) (B2) (A2) (A1) (B1) (B1) (B2)
                 (A2) (A1) (B2) (A2) (A1) (B1) (A2) (B1) (B2) (A1)
                 (B1) (A2) (B2) (A1) (B2) (B2) (B1) (A1) (A1) (B2)
                 (A2) (A1) (B1) (B2) (A1) (A1) (A2) (B2) (B1) (A1)
                 (B2) (A1) (B2) (B2) (A1) (A1) (A1) (B2)
 Beta  Orbitals:
       Occupied  (A1) (B2) (A1) (A1) (B2) (A1) (A1) (B2) (B2) (A1)
                 (B1)
       Virtual   (A2) (A1) (B1) (A1) (B2) (A1) (B2) (A1) (B2) (B1)
                 (A1) (A2) (B2) (A1) (B1) (B2) (A1) (A1) (B2) (A1)
                 (B2) (A1) (B2) (A1) (B2) (A1) (B1) (A2) (B1) (A2)
                 (B2) (A1) (B2) (A1) (A1) (B2) (A1) (B1) (A1) (B2)
                 (B2) (A2) (B1) (A1) (A1) (B1) (B2) (B1) (A2) (A2)
                 (B2) (A1) (B1) (B2) (A1) (B2) (A1) (A2) (A1) (B1)
                 (B2) (A1) (B2) (A1) (B2) (A1) (A1) (B2) (A1) (B2)
                 (B2) (A1) (A2) (B1) (B1) (B2) (A2) (B1) (A1) (A1)
                 (B2) (A2) (B1) (A1) (B2) (A1) (A1) (B2) (A2) (A1)
                 (B1) (B1) (B2) (A2) (A1) (A2) (A1) (A2) (B2) (A1)
                 (B1) (B2) (A1) (B2) (B1) (B2) (A2) (A1) (B1) (B1)
                 (B2) (A2) (A1) (B2) (A2) (A1) (B1) (A2) (B1) (B2)
                 (A1) (B1) (A2) (B2) (A1) (B2) (B2) (B1) (A1) (A1)
                 (B2) (A2) (A1) (B1) (B2) (A1) (A1) (A2) (B2) (B1)
                 (A1) (B2) (A1) (B2) (B2) (A1) (A1) (A1) (B2)
 The electronic state is 2-A2.
 Alpha  occ. eigenvalues --  -10.18081 -10.18054 -10.17976  -0.80103  -0.68747
 Alpha  occ. eigenvalues --   -0.56253  -0.48554  -0.44390  -0.39221  -0.36624
 Alpha  occ. eigenvalues --   -0.33136  -0.20601
 Alpha virt. eigenvalues --    0.02071   0.02465   0.04302   0.04881   0.08720
 Alpha virt. eigenvalues --    0.09685   0.15012   0.16619   0.18087   0.19827
 Alpha virt. eigenvalues --    0.21202   0.24669   0.25272   0.26649   0.28498
 Alpha virt. eigenvalues --    0.32165   0.33530   0.34318   0.34481   0.37635
 Alpha virt. eigenvalues --    0.40405   0.47705   0.49063   0.56011   0.58192
 Alpha virt. eigenvalues --    0.63900   0.67864   0.76439   0.81217   0.85402
 Alpha virt. eigenvalues --    0.86220   0.96076   0.96947   0.97339   1.00407
 Alpha virt. eigenvalues --    1.01353   1.01833   1.09244   1.10800   1.12032
 Alpha virt. eigenvalues --    1.13787   1.17431   1.18908   1.21039   1.25470
 Alpha virt. eigenvalues --    1.31265   1.32678   1.33210   1.37445   1.39899
 Alpha virt. eigenvalues --    1.50153   1.51272   1.54509   1.57944   1.69531
 Alpha virt. eigenvalues --    1.71617   1.72114   1.73735   1.74183   1.79181
 Alpha virt. eigenvalues --    1.79505   1.92753   2.03433   2.07662   2.08371
 Alpha virt. eigenvalues --    2.23294   2.31738   2.39524   2.52883   2.74797
 Alpha virt. eigenvalues --    2.77591   2.93342   2.98962   3.23865   3.25766
 Alpha virt. eigenvalues --    3.27062   3.33137   3.36516   3.38385   3.38526
 Alpha virt. eigenvalues --    3.38900   3.56330   3.57244   3.61768   3.68156
 Alpha virt. eigenvalues --    3.74911   3.77670   3.91377   3.92671   3.94727
 Alpha virt. eigenvalues --    4.01345   4.01526   4.02243   4.04428   4.07591
 Alpha virt. eigenvalues --    4.09094   4.13883   4.17203   4.20089   4.20104
 Alpha virt. eigenvalues --    4.20210   4.24370   4.27745   4.28316   4.31665
 Alpha virt. eigenvalues --    4.31762   4.35169   4.37725   4.42944   4.45809
 Alpha virt. eigenvalues --    4.46231   4.47820   4.49934   4.52048   4.53159
 Alpha virt. eigenvalues --    4.54157   4.55529   4.58923   4.72694   4.77386
 Alpha virt. eigenvalues --    4.90762   4.90864   5.00672   5.04973   5.07747
 Alpha virt. eigenvalues --    5.16812   5.17695   5.19640   5.27167   5.33282
 Alpha virt. eigenvalues --    5.38254   5.44991   5.46726   5.53770   5.53893
 Alpha virt. eigenvalues --    5.55832   5.63250   5.67835   5.76545   5.78453
 Alpha virt. eigenvalues --    5.90117   5.95199   6.04478   6.14225   6.16910
 Alpha virt. eigenvalues --    6.32051   6.50219   6.99836
  Beta  occ. eigenvalues --  -10.18333 -10.17126 -10.17124  -0.79057  -0.66312
  Beta  occ. eigenvalues --   -0.55588  -0.48091  -0.43821  -0.38653  -0.36362
  Beta  occ. eigenvalues --   -0.30034
  Beta virt. eigenvalues --   -0.08923   0.02591   0.03900   0.04364   0.05088
  Beta virt. eigenvalues --    0.08787   0.09779   0.14997   0.18189   0.18216
  Beta virt. eigenvalues --    0.20441   0.23453   0.24776   0.25378   0.27448
  Beta virt. eigenvalues --    0.30201   0.32359   0.34050   0.34732   0.34869
  Beta virt. eigenvalues --    0.38440   0.40605   0.48036   0.49387   0.56621
  Beta virt. eigenvalues --    0.58332   0.65166   0.69369   0.76766   0.82679
  Beta virt. eigenvalues --    0.85476   0.86564   0.96090   0.96956   0.97720
  Beta virt. eigenvalues --    1.01482   1.02870   1.03001   1.09161   1.11301
  Beta virt. eigenvalues --    1.12295   1.15487   1.17994   1.18904   1.21573
  Beta virt. eigenvalues --    1.27178   1.34642   1.34894   1.35291   1.39914
  Beta virt. eigenvalues --    1.40651   1.51476   1.51599   1.55528   1.58336
  Beta virt. eigenvalues --    1.70467   1.72781   1.73542   1.74704   1.74810
  Beta virt. eigenvalues --    1.79481   1.79551   1.93248   2.03880   2.08239
  Beta virt. eigenvalues --    2.08499   2.23980   2.32352   2.39889   2.53859
  Beta virt. eigenvalues --    2.76167   2.78164   2.94402   3.00152   3.24609
  Beta virt. eigenvalues --    3.27277   3.27403   3.35523   3.36951   3.38871
  Beta virt. eigenvalues --    3.39107   3.41190   3.56718   3.59269   3.62761
  Beta virt. eigenvalues --    3.69144   3.75419   3.80706   3.91499   3.93410
  Beta virt. eigenvalues --    3.95907   4.02285   4.02415   4.02597   4.05058
  Beta virt. eigenvalues --    4.09289   4.09377   4.16627   4.17500   4.21009
  Beta virt. eigenvalues --    4.21063   4.21581   4.25133   4.29646   4.30499
  Beta virt. eigenvalues --    4.32755   4.32995   4.36198   4.38154   4.43453
  Beta virt. eigenvalues --    4.45789   4.46762   4.47523   4.49795   4.52537
  Beta virt. eigenvalues --    4.53339   4.54613   4.56064   4.59450   4.72733
  Beta virt. eigenvalues --    4.77450   4.91743   4.92437   5.00933   5.05117
  Beta virt. eigenvalues --    5.08367   5.17248   5.18950   5.19679   5.27320
  Beta virt. eigenvalues --    5.33417   5.39812   5.45121   5.47568   5.53955
  Beta virt. eigenvalues --    5.54147   5.56021   5.64881   5.68031   5.77726
  Beta virt. eigenvalues --    5.78633   5.90796   5.95679   6.04871   6.14531
  Beta virt. eigenvalues --    6.17463   6.32241   6.50350   7.00011
          Condensed to atoms (all electrons):
               1          2          3          4          5          6
     1  C    4.731353   0.432223   0.513371   0.513371  -0.037923  -0.037923
     2  H    0.432223   0.621175  -0.041484  -0.041484  -0.007389  -0.007389
     3  C    0.513371  -0.041484   4.875922  -0.103049   0.428408   0.007577
     4  C    0.513371  -0.041484  -0.103049   4.875922   0.007577   0.428408
     5  H   -0.037923  -0.007389   0.428408   0.007577   0.584481  -0.000443
     6  H   -0.037923  -0.007389   0.007577   0.428408  -0.000443   0.584481
     7  H   -0.048511   0.006430   0.431673  -0.004745  -0.028928   0.000156
     8  H   -0.048511   0.006430  -0.004745   0.431673   0.000156  -0.028928
               7          8
     1  C   -0.048511  -0.048511
     2  H    0.006430   0.006430
     3  C    0.431673  -0.004745
     4  C   -0.004745   0.431673
     5  H   -0.028928   0.000156
     6  H    0.000156  -0.028928
     7  H    0.594222   0.003108
     8  H    0.003108   0.594222
          Atomic-Atomic Spin Densities.
               1          2          3          4          5          6
     1  C   -0.219427  -0.001358  -0.010193  -0.010193  -0.005489  -0.005489
     2  H   -0.001358   0.007580   0.000728   0.000728   0.000642   0.000642
     3  C   -0.010193   0.000728   0.726721  -0.059358   0.010899  -0.001124
     4  C   -0.010193   0.000728  -0.059358   0.726721  -0.001124   0.010899
     5  H   -0.005489   0.000642   0.010899  -0.001124  -0.035609   0.000066
     6  H   -0.005489   0.000642  -0.001124   0.010899   0.000066  -0.035609
     7  H   -0.002490  -0.000442   0.007302   0.001000   0.003638  -0.000168
     8  H   -0.002490  -0.000442   0.001000   0.007302  -0.000168   0.003638
               7          8
     1  C   -0.002490  -0.002490
     2  H   -0.000442  -0.000442
     3  C    0.007302   0.001000
     4  C    0.001000   0.007302
[...]
                     13                     14                     15
                     A1                     A1                     B2
 Frequencies --   1522.7428              3134.1055              3142.0617
 Red. masses --      1.3422                 1.0866                 1.0525
 Frc consts  --      1.8336                 6.2885                 6.1222
 IR Inten    --      3.0581                11.7285                 6.9725
  Atom  AN      X      Y      Z        X      Y      Z        X      Y      Z
     1   6    -0.00   0.00   0.06     0.00   0.00  -0.08     0.00  -0.00  -0.00
     2   1     0.00  -0.00   0.07     0.00   0.00   0.98     0.00   0.00   0.00
     3   6     0.00   0.10  -0.06    -0.00   0.01   0.01    -0.00   0.03  -0.03
     4   6    -0.00  -0.10  -0.06    -0.00  -0.01   0.01    -0.00   0.03   0.03
     5   1    -0.00  -0.23   0.47    -0.00  -0.10  -0.06    -0.00  -0.36  -0.23
     6   1     0.00   0.23   0.47    -0.00   0.10  -0.06    -0.00  -0.36   0.23
     7   1    -0.00  -0.45  -0.10    -0.00   0.00  -0.01     0.00  -0.03   0.56
     8   1     0.00   0.45  -0.10     0.00  -0.00  -0.01     0.00  -0.03  -0.56
                     16                     17                     18
                     A1                     B2                     A1
 Frequencies --   3147.8462              3239.5284              3242.1393
 Red. masses --      1.0578                 1.1163                 1.1161
 Frc consts  --      6.1757                 6.9024                 6.9122
 IR Inten    --      5.4251                 4.4099                15.3554
  Atom  AN      X      Y      Z        X      Y      Z        X      Y      Z
     1   6    -0.00   0.00   0.01     0.00   0.00  -0.00    -0.00  -0.00  -0.01
     2   1     0.00   0.00  -0.08     0.00  -0.00   0.00     0.00  -0.00   0.14
     3   6    -0.00   0.04  -0.03    -0.00  -0.04  -0.06     0.00  -0.04  -0.06
     4   6     0.00  -0.04  -0.03    -0.00  -0.04   0.06    -0.00   0.04  -0.06
     5   1     0.00  -0.35  -0.22    -0.00   0.49   0.29    -0.00   0.48   0.29
     6   1    -0.00   0.35  -0.22    -0.00   0.49  -0.29     0.00  -0.48   0.29
     7   1     0.00  -0.03   0.57     0.00  -0.03   0.42    -0.00  -0.03   0.41
     8   1     0.00   0.03   0.57     0.00  -0.03  -0.42     0.00   0.03   0.41

 -------------------
 - Thermochemistry -
 -------------------
 Temperature   298.150 Kelvin.  Pressure   1.00000 Atm.
 Atom     1 has atomic number  6 and mass  12.00000
 Atom     2 has atomic number  1 and mass   1.00783
 Atom     3 has atomic number  6 and mass  12.00000
 Atom     4 has atomic number  6 and mass  12.00000
 Atom     5 has atomic number  1 and mass   1.00783
 Atom     6 has atomic number  1 and mass   1.00783
 Atom     7 has atomic number  1 and mass   1.00783
 Atom     8 has atomic number  1 and mass   1.00783
 Molecular mass:    41.03913 amu.
 Principal axes and moments of inertia in atomic units:
                           1         2         3
     Eigenvalues --    32.62075 173.72417 206.34492
           X           -0.00000   0.00000   1.00000
           Y            1.00000   0.00000   0.00000
           Z           -0.00000   1.00000   0.00000
 This molecule is an asymmetric top.
 Rotational symmetry number  2.
 Rotational temperatures (Kelvin)      2.65518     0.49857     0.41975
 Rotational constants (GHZ):          55.32494    10.38854     8.74624
 Zero-point vibrational energy     173436.4 (Joules/Mol)
                                   41.45229 (Kcal/Mol)
 Warning -- explicit consideration of   3 degrees of freedom as
           vibrations may cause significant error
 Vibrational temperatures:    619.18   763.45   793.02  1152.02  1188.79
          (Kelvin)           1352.71  1462.97  1496.78  1742.05  1834.08
                             2057.66  2180.89  2190.89  4509.28  4520.73
                             4529.05  4660.96  4664.72
 
 Zero-point correction=                           0.066058 (Hartree/Particle)
 Thermal correction to Energy=                    0.069869
 Thermal correction to Enthalpy=                  0.070813
 Thermal correction to Gibbs Free Energy=         0.041583
 Sum of electronic and zero-point Energies=           -117.246976
 Sum of electronic and thermal Energies=              -117.243166
 Sum of electronic and thermal Enthalpies=            -117.242222
 Sum of electronic and thermal Free Energies=         -117.271452
 
                     E (Thermal)             CV                S
                      KCal/Mol        Cal/Mol-Kelvin    Cal/Mol-Kelvin
 Total                   43.844             12.680             61.521
 Electronic               0.000              0.000              1.377
 Translational            0.889              2.981             37.063
 Rotational               0.889              2.981             20.308
 Vibrational             42.066              6.718              2.772
 Vibration     1          0.792              1.404              0.858
 Vibration     2          0.886              1.182              0.586
 Vibration     3          0.906              1.137              0.542
                       Q            Log10(Q)             Ln(Q)
 Total Bot       0.746831D-19        -19.126778        -44.041033
 Total V=0       0.181119D+12         11.257963         25.922418
 Vib (Bot)       0.590407D-30        -30.228848        -69.604496
 Vib (Bot)    1  0.404767D+00         -0.392795         -0.904443
 Vib (Bot)    2  0.301221D+00         -0.521115         -1.199912
 Vib (Bot)    3  0.284403D+00         -0.546066         -1.257363
 Vib (V=0)       0.143183D+01          0.155892          0.358956
 Vib (V=0)    1  0.114330D+01          0.058161          0.133920
 Vib (V=0)    2  0.108372D+01          0.034919          0.080403
 Vib (V=0)    3  0.107523D+01          0.031500          0.072531
 Electronic      0.200000D+01          0.301030          0.693147
 Translational   0.103336D+08          7.014251         16.150910
 Rotational      0.612054D+04          3.786790          8.719405
 ***** Axes restored to original set *****
 -------------------------------------------------------------------
 Center     Atomic                   Forces (Hartrees/Bohr)
 Number     Number              X              Y              Z
 -------------------------------------------------------------------
      1        6          -0.000000000   -0.000000000    0.000348892
      2        1           0.000000000    0.000000000   -0.000009591
      3        6          -0.000000000    0.000411130   -0.000291278
      4        6           0.000000000   -0.000411130   -0.000291278
      5        1          -0.000000000    0.000039070    0.000101766
      6        1           0.000000000   -0.000039070    0.000101766
      7        1          -0.000000000   -0.000056526    0.000019861
      8        1          -0.000000000    0.000056526    0.000019861
 -------------------------------------------------------------------
 Cartesian Forces:  Max     0.000411130 RMS     0.000165895
 FormGI is forming the generalized inverse of G from B-inverse, IUseBI=4.

 GradGradGradGradGradGradGradGradGradGradGradGradGradGradGradGradGradGrad
 Berny optimization.
 Internal  Forces:  Max     0.000427552 RMS     0.000130742
 Search for a local minimum.
 Step number   1 out of a maximum of    2
 All quantities printed in internal units (Hartrees-Bohrs-Radians)
 Second derivative matrix not updated -- analytic derivatives used.
 ITU=  0
     Eigenvalues ---    0.01731   0.01776   0.02374   0.02813   0.03136
     Eigenvalues ---    0.10192   0.10488   0.10834   0.11148   0.13618
     Eigenvalues ---    0.17819   0.33266   0.34883   0.35829   0.35896
     Eigenvalues ---    0.36416   0.36446   0.52219
 Angle between quadratic step and forces=  39.01 degrees.
 Linear search not attempted -- first point.
 Iteration  1 RMS(Cart)=  0.00050353 RMS(Int)=  0.00000019
 Iteration  2 RMS(Cart)=  0.00000018 RMS(Int)=  0.00000000
 ClnCor:  largest displacement from symmetrization is 1.66D-11 for atom     8.
 Variable       Old X    -DE/DX   Delta X   Delta X   Delta X     New X
                                 (Linear)    (Quad)   (Total)
    R1        2.05162  -0.00001   0.00000  -0.00005  -0.00005   2.05156
    R2        2.60704   0.00043   0.00000   0.00087   0.00087   2.60791
    R3        2.60704   0.00043   0.00000   0.00087   0.00087   2.60791
    R4        2.04041   0.00009   0.00000   0.00021   0.00021   2.04061
    R5        2.04498  -0.00002   0.00000  -0.00011  -0.00011   2.04487
    R6        2.04041   0.00009   0.00000   0.00021   0.00021   2.04061
    R7        2.04498  -0.00002   0.00000  -0.00011  -0.00011   2.04487
    A1        2.05004  -0.00003   0.00000  -0.00014  -0.00014   2.04990
    A2        2.05004  -0.00003   0.00000  -0.00014  -0.00014   2.04990
    A3        2.18311   0.00007   0.00000   0.00029   0.00029   2.18339
    A4        2.12092  -0.00005   0.00000  -0.00066  -0.00066   2.12026
    A5        2.11354  -0.00003   0.00000  -0.00028  -0.00028   2.11326
    A6        2.04872   0.00008   0.00000   0.00094   0.00094   2.04966
    A7        2.12092  -0.00005   0.00000  -0.00066  -0.00066   2.12026
    A8        2.11354  -0.00003   0.00000  -0.00028  -0.00028   2.11326
    A9        2.04872   0.00008   0.00000   0.00094   0.00094   2.04966
    D1        0.00000   0.00000   0.00000   0.00000  -0.00000   0.00000
    D2        3.14159  -0.00000   0.00000  -0.00000   0.00000   3.14159
    D3        3.14159   0.00000   0.00000   0.00000   0.00000   3.14159
    D4       -0.00000   0.00000   0.00000   0.00000   0.00000   0.00000
    D5        0.00000  -0.00000   0.00000  -0.00000   0.00000   0.00000
    D6        3.14159   0.00000   0.00000  -0.00000   0.00000   3.14159
    D7        3.14159  -0.00000   0.00000  -0.00000   0.00000   3.14159
    D8        0.00000  -0.00000   0.00000  -0.00000   0.00000   0.00000
         Item               Value     Threshold  Converged?
 Maximum Force            0.000428     0.000450     YES
 RMS     Force            0.000131     0.000300     YES
 Maximum Displacement     0.001101     0.001800     YES
 RMS     Displacement     0.000503     0.001200     YES
 Predicted change in Energy=-5.314588D-07
 Optimization completed.
    -- Stationary point found.
                           ----------------------------
                           !   Optimized Parameters   !
                           ! (Angstroms and Degrees)  !
 --------------------------                            --------------------------
 ! Name  Definition              Value          Derivative Info.                !
 --------------------------------------------------------------------------------
 ! R1    R(1,2)                  1.0857         -DE/DX =    0.0                 !
 ! R2    R(1,3)                  1.3796         -DE/DX =    0.0004              !
 ! R3    R(1,4)                  1.3796         -DE/DX =    0.0004              !
 ! R4    R(3,5)                  1.0797         -DE/DX =    0.0001              !
 ! R5    R(3,7)                  1.0822         -DE/DX =    0.0                 !
 ! R6    R(4,6)                  1.0797         -DE/DX =    0.0001              !
 ! R7    R(4,8)                  1.0822         -DE/DX =    0.0                 !
 ! A1    A(2,1,3)              117.4586         -DE/DX =    0.0                 !
 ! A2    A(2,1,4)              117.4586         -DE/DX =    0.0                 !
 ! A3    A(3,1,4)              125.0827         -DE/DX =    0.0001              !
 ! A4    A(1,3,5)              121.5198         -DE/DX =   -0.0001              !
 ! A5    A(1,3,7)              121.0971         -DE/DX =    0.0                 !
 ! A6    A(5,3,7)              117.3831         -DE/DX =    0.0001              !
 ! A7    A(1,4,6)              121.5198         -DE/DX =   -0.0001              !
 ! A8    A(1,4,8)              121.0971         -DE/DX =    0.0                 !
 ! A9    A(6,4,8)              117.3831         -DE/DX =    0.0001              !
 ! D1    D(2,1,3,5)              0.0            -DE/DX =    0.0                 !
 ! D2    D(2,1,3,7)            180.0            -DE/DX =    0.0                 !
 ! D3    D(4,1,3,5)            180.0            -DE/DX =    0.0                 !
 ! D4    D(4,1,3,7)              0.0            -DE/DX =    0.0                 !
 ! D5    D(2,1,4,6)              0.0            -DE/DX =    0.0                 !
 ! D6    D(2,1,4,8)            180.0            -DE/DX =    0.0                 !
 ! D7    D(3,1,4,6)            180.0            -DE/DX =    0.0                 !
 ! D8    D(3,1,4,8)              0.0            -DE/DX =    0.0                 !
 --------------------------------------------------------------------------------
 GradGradGradGradGradGradGradGradGradGradGradGradGradGradGradGradGradGrad


 ----------------------------------------------------------------------

 Electric dipole moment (input orientation):
 (Debye = 10**-18 statcoulomb cm , SI units = C m)
                  (au)            (Debye)         (10**-30 SI)
   Tot        0.241303D-01      0.613331D-01      0.204585D+00
   x          0.000000D+00      0.000000D+00      0.000000D+00
   y          0.000000D+00      0.000000D+00      0.000000D+00
   z          0.241303D-01      0.613331D-01      0.204585D+00

 Dipole polarizability, Alpha (input orientation).
 (esu units = cm**3 , SI units = C**2 m**2 J**-1)
 Alpha(0;0):
               (au)            (10**-24 esu)      (10**-40 SI)
   iso        0.388165D+02      0.575202D+01      0.639998D+01
   aniso      0.281963D+02      0.417826D+01      0.464894D+01
   xx         0.252018D+02      0.373452D+01      0.415522D+01
   yx         0.000000D+00      0.000000D+00      0.000000D+00
   yy         0.568484D+02      0.842406D+01      0.937303D+01
   zx         0.000000D+00      0.000000D+00      0.000000D+00
   zy         0.000000D+00      0.000000D+00      0.000000D+00
   zz         0.343994D+02      0.509747D+01      0.567170D+01

 ----------------------------------------------------------------------

 Dipole orientation:
     6         -0.00000000         -0.00000000          0.83261149
     1         -0.00000000         -0.00000000          2.88422748
     6          0.00000000          2.31333732         -0.36951328
     6         -0.00000000         -2.31333732         -0.36951328
     1          0.00000000          4.06191037          0.68203125
     1         -0.00000000         -4.06191037          0.68203125
     1          0.00000000          2.44311338         -2.41036859
     1         -0.00000000         -2.44311338         -2.41036859

 Electric dipole moment (dipole orientation):
 (Debye = 10**-18 statcoulomb cm , SI units = C m)
                  (au)            (Debye)         (10**-30 SI)
   Tot        0.241303D-01      0.613331D-01      0.204585D+00
   x          0.000000D+00      0.000000D+00      0.000000D+00
   y          0.000000D+00      0.000000D+00      0.000000D+00
   z          0.241303D-01      0.613331D-01      0.204585D+00

 Dipole polarizability, Alpha (dipole orientation).
 (esu units = cm**3 , SI units = C**2 m**2 J**-1)
 Alpha(0;0):
               (au)            (10**-24 esu)      (10**-40 SI)
   iso        0.388165D+02      0.575202D+01      0.639998D+01
   aniso      0.281963D+02      0.417826D+01      0.464894D+01
   xx         0.252018D+02      0.373452D+01      0.415522D+01
   yx         0.000000D+00      0.000000D+00      0.000000D+00
   yy         0.568484D+02      0.842406D+01      0.937303D+01
   zx         0.000000D+00      0.000000D+00      0.000000D+00
   zy         0.000000D+00      0.000000D+00      0.000000D+00
   zz         0.343994D+02      0.509747D+01      0.567170D+01

 ----------------------------------------------------------------------
 1\1\GINC-GAMBA\Freq\UB3LYP\Gen\C3H5(2)\IRIKURA\15-Jun-2022\0\\#N Geom=
 AllCheck Guess=TCheck SCRF=Check GenChk UB3LYP/ChkBas Freq\\allyl, B3L
 YP/pcseg-2\\0,2\C,0.,0.,0.4405990243\H,0.,0.,1.5262674538\C,0.,1.22416
 539,-0.1955380073\C,0.,-1.22416539,-0.1955380073\H,0.,2.1494704022,0.3
 60915397\H,0.,-2.1494704022,0.360915397\H,0.,1.2928399241,-1.275512128
 7\H,0.,-1.2928399241,-1.2755121287\\Version=ES64L-G16RevB.01\State=2-A
 2\HF=-117.3130349\S2=0.777481\S2-1=0.\S2A=0.750156\RMSD=3.146e-10\RMSF
 =1.659e-04\ZeroPoint=0.0660584\Thermal=0.0698692\Dipole=0.,0.,0.024130
 3\DipoleDeriv=-0.1436001,0.,0.,0.,-0.0150425,0.,0.,0.,0.0941962,0.1458
 878,0.,0.,0.,0.0460939,0.,0.,0.,-0.1167008,-0.2982727,0.,0.,0.,-0.0014
 226,0.0385188,0.,0.0757296,0.0939082,-0.2982727,0.,0.,0.,-0.0014227,-0
 .0385188,0.,-0.0757296,0.0939081,0.151161,0.,0.,0.,-0.0424235,-0.03416
 33,0.,-0.0711339,0.010239,0.151161,0.,0.,0.,-0.0424235,0.0341633,0.,0.
 0711339,0.010239,0.1459678,0.,0.,0.,0.0283204,-0.0323257,0.,0.0266879,
 -0.0928949,0.1459678,0.,0.,0.,0.0283204,0.0323257,0.,-0.0266879,-0.092
 8949\Polar=25.2018186,0.,56.8483954,0.,0.,34.3994007\Quadrupole=-2.186
 253,0.9580256,1.2282274,0.,0.,0.\PG=C02V [C2(C1H1),SGV(C2H4)]\NImag=0\
 \0.12127630,0.,0.57678618,0.,0.,0.68766579,-0.04351814,0.,0.,0.0283200
 1,0.,-0.06031739,0.,0.,0.06140496,0.,0.,-0.32302128,0.,0.,0.34748426,-
 0.04742605,0.,0.,0.00449798,0.,0.,0.08258074,0.,-0.24465775,0.12989581
 ,0.,0.00261446,-0.00019153,0.,0.66128093,0.,0.07179567,-0.18032430,0.,
 0.03026015,-0.01406123,0.,0.00206855,0.63783373,-0.04742605,0.,0.,0.00
 449798,0.,0.,0.00855091,0.,0.,0.08258074,0.,-0.24465776,-0.12989581,0.
 ,0.00261446,0.00019153,0.,-0.09374063,0.01474945,0.,0.66128093,0.,-0.0
 7179567,-0.18032430,0.,-0.03026015,-0.01406123,0.,-0.01474945,0.030203
 37,0.,-0.00206855,0.63783373,0.00489856,0.,0.,-0.00439582,0.,0.,-0.023
 35472,0.,0.,0.00534110,0.,0.,0.01423977,0.,-0.01718088,-0.01734164,0.,
 0.00105541,0.00016914,0.,-0.26463098,-0.12636084,0.,-0.00308148,0.0039
 1937,0.,0.27999424,0.,0.01452004,0.01097176,0.,-0.00055778,0.00123901,
 0.,-0.13102349,-0.13821023,0.,0.00265120,-0.00094093,0.,0.13708728,0.1
 3589650,0.00489856,0.,0.,-0.00439582,0.,0.,0.00534110,0.,0.,-0.0233547
 2,0.,0.,0.00000718,0.,0.,0.01423977,0.,-0.01718087,0.01734164,0.,0.001
 05541,-0.00016914,0.,-0.00308148,-0.00391937,0.,-0.26463098,0.12636084
 ,0.,-0.00098533,0.00069616,0.,0.27999424,0.,-0.01452004,0.01097176,0.,
 0.00055778,0.00123901,0.,-0.00265120,-0.00094093,0.,0.13102349,-0.1382
 1023,0.,-0.00069616,0.00046624,0.,-0.13708728,0.13589650,0.00364841,0.
 ,0.,0.00749691,0.,0.,-0.02637996,0.,0.,-0.00380999,0.,0.,0.00337929,0.
 ,0.,-0.00011536,0.,0.,0.01567813,0.,0.00360422,0.02910110,0.,-0.004213
 66,0.00226279,0.,-0.05917145,0.01219347,0.,0.00138691,0.00078708,0.,0.
 00468899,-0.02373338,0.,0.00014002,-0.00035998,0.,0.05368864,0.,-0.000
 72338,-0.01296971,0.,0.00229809,0.00059072,0.,0.01509183,-0.33589055,0
 .,-0.00155948,0.00139013,0.,0.00327512,-0.00969626,0.,0.00005227,0.000
 27391,0.,-0.01934277,0.35589975,0.00364841,0.,0.,0.00749691,0.,0.,-0.0
 0380999,0.,0.,-0.02637996,0.,0.,-0.00011536,0.,0.,0.00337929,0.,0.,0.0
 0010258,0.,0.,0.01567813,0.,0.00360423,-0.02910110,0.,-0.00421366,-0.0
 0226279,0.,0.00138691,-0.00078708,0.,-0.05917145,-0.01219347,0.,0.0001
 4002,0.00035998,0.,0.00468899,0.02373338,0.,-0.00012368,0.00090831,0.,
 0.05368864,0.,0.00072338,-0.01296971,0.,-0.00229809,0.00059072,0.,0.00
 155948,0.00139013,0.,-0.01509183,-0.33589055,0.,-0.00005227,0.00027391
 ,0.,-0.00327512,-0.00969626,0.,-0.00090831,0.00040200,0.,0.01934277,0.
 35589975\\0.,0.,-0.00034889,0.,0.,0.00000959,0.,-0.00041113,0.00029128
 ,0.,0.00041113,0.00029128,0.,-0.00003907,-0.00010177,0.,0.00003907,-0.
 00010177,0.,0.00005653,-0.00001986,0.,-0.00005653,-0.00001986\\\@


 HAPPINESS IS NOT HAVING WHAT YOU WANT --
 HAPPINESS IS WANTING WHAT YOU HAVE!

              -- FROM MRS. SEVERN'S DESK
 Job cpu time:       0 days  0 hours  7 minutes 34.1 seconds.
 Elapsed time:       0 days  0 hours  0 minutes 37.9 seconds.
 File lengths (MBytes):  RWF=     29 Int=      0 D2E=      0 Chk=      4 Scr=      1
 Normal termination of Gaussian 16 at Wed Jun 15 11:05:00 2022.
