 Entering Gaussian System, Link 0=g16
 AtFile(1): pcseg2.gbs
            -H     0
            S   4   1.00
                  0.754732D+02           0.427821D-02
                  0.113575D+02           0.328672D-01
                  0.260081D+01           0.159578D+00
                  0.735503D+00           0.500000D+00
            S   1   1.00
                  0.231761D+00           1.0000000
            S   1   1.00
                  0.741675D-01           1.0000000
            P   1   1.00
                  0.160000D+01           1.0000000
            P   1   1.00
                  0.450000D+00           1.0000000
            D   1   1.00
                  0.125000D+01           1.0000000
            ****
            -C     0
            S   7   1.00
                  0.731999D+04           0.695369D-03
                  0.109818D+04           0.537138D-02
                  0.250014D+03           0.274734D-01
                  0.707586D+02           0.105078D+00
                  0.228595D+02           0.291262D+00
                  0.803936D+01           0.500000D+00
                  0.289309D+01           0.362224D+00
            S   2   1.00
                  0.521640D+01          -0.957844D-01
                  0.556124D+00           0.500000D+00
            S   1   1.00
                  0.228813D+00           1.0000000
            S   1   1.00
                  0.936338D-01           1.0000000
            P   4   1.00
                  0.339855D+02           0.818395D-02
                  0.772957D+01           0.586921D-01
                  0.224954D+01           0.222514D+00
                  0.767681D+00           0.500000D+00
            P   1   1.00
                  0.263283D+00           1.0000000
            P   1   1.00
                  0.848744D-01           1.0000000
            D   1   1.00
                  0.140000D+01           1.0000000
            D   1   1.00
                  0.450000D+00           1.0000000
            F   1   1.00
                  0.950000D+00           1.0000000
            ****
            -O     0
            S   7   1.00
                  0.135887D+05           0.665492D-03
                  0.203847D+04           0.514222D-02
                  0.464041D+03           0.263472D-01
                  0.131339D+03           0.101500D+00
                  0.425340D+02           0.285877D+00
                  0.150429D+02           0.500000D+00
                  0.546616D+01           0.368211D+00
            S   2   1.00
                  0.100915D+02          -0.100084D+00
                  0.110429D+01           0.500000D+00
            S   1   1.00
                  0.448082D+00           1.0000000
            S   1   1.00
                  0.175325D+00           1.0000000
            P   4   1.00
                  0.608220D+02           0.908253D-02
                  0.140332D+02           0.645878D-01
                  0.418244D+01           0.241502D+00
                  0.142490D+01           0.500000D+00
            P   1   1.00
                  0.478741D+00           1.0000000
            P   1   1.00
                  0.146257D+00           1.0000000
            D   1   1.00
                  0.220000D+01           1.0000000
            D   1   1.00
                  0.650000D+00           1.0000000
            F   1   1.00
                  0.110000D+01           1.0000000
            ****
            -N     0
            S   7   1.00
                  0.101643D+05           0.682757D-03
                  0.152481D+04           0.527488D-02
                  0.347119D+03           0.270037D-01
                  0.982389D+02           0.103673D+00
                  0.317799D+02           0.289575D+00
                  0.112240D+02           0.500000D+00
                  0.406611D+01           0.364621D+00
            S   2   1.00
                  0.747898D+01          -0.975681D-01
                  0.805040D+00           0.500000D+00
            S   1   1.00
                  0.324626D+00           1.0000000
            S   1   1.00
                  0.128132D+00           1.0000000
            P   4   1.00
                  0.482704D+02           0.829547D-02
                  0.110815D+02           0.596223D-01
                  0.326643D+01           0.227889D+00
                  0.111680D+01           0.500000D+00
            P   1   1.00
                  0.382049D+00           1.0000000
            P   1   1.00
                  0.121222D+00           1.0000000
            D   1   1.00
                  0.180000D+01           1.0000000
            D   1   1.00
                  0.550000D+00           1.0000000
            F   1   1.00
                  0.102000D+01           1.0000000
            ****
            -F     0
            S   7   1.00
                  0.174507D+05           0.655972D-03
                  0.261768D+04           0.506944D-02
                  0.595857D+03           0.259899D-01
                  0.168651D+03           0.100353D+00
                  0.546654D+02           0.284095D+00
                  0.193717D+02           0.500000D+00
                  0.706202D+01           0.370721D+00
            S   2   1.00
                  0.131197D+02          -0.101997D+00
                  0.145046D+01           0.500000D+00
            S   1   1.00
                  0.588255D+00           1.0000000
            S   1   1.00
                  0.227960D+00           1.0000000
            P   4   1.00
                  0.779407D+02           0.931135D-02
                  0.180425D+02           0.663964D-01
                  0.542342D+01           0.246386D+00
                  0.184876D+01           0.500000D+00
            P   1   1.00
                  0.617455D+00           1.0000000
            P   1   1.00
                  0.185496D+00           1.0000000
            D   1   1.00
                  0.280000D+01           1.0000000
            D   1   1.00
                  0.800000D+00           1.0000000
            F   1   1.00
                  0.120000D+01           1.0000000
            ****
            -Cl     0
            S   8   1.00
                  0.154272D+06           0.222473D-03
                  0.231232D+05           0.172590D-02
                  0.526257D+04           0.899286D-02
                  0.148995D+04           0.367724D-01
                  0.485417D+03           0.121446D+00
                  0.174634D+03           0.304148D+00
                  0.672393D+02           0.500000D+00
                  0.265780D+02           0.360252D+00
            S   3   1.00
                  0.131826D+03          -0.531330D-01
                  0.400703D+02          -0.233346D+00
                  0.789448D+01           0.500000D+00
            S   2   1.00
                  0.427711D+01           0.500000D+00
                  0.196233D+01           0.370517D+00
            S   1   1.00
                  0.520793D+00           1.0000000
            S   1   1.00
                  0.181633D+00           1.0000000
            P   7   1.00
                  0.124440D+04           0.988206D-03
                  0.295109D+03           0.829674D-02
                  0.947224D+02           0.430906D-01
                  0.352588D+02           0.148443D+00
                  0.144211D+02           0.344744D+00
                  0.610371D+01           0.500000D+00
                  0.258886D+01           0.348278D+00
            P   2   1.00
                  0.109447D+02          -0.196768D-01
                  0.104413D+01           0.500000D+00
            P   1   1.00
                  0.376184D+00           1.0000000
            P   1   1.00
                  0.120613D+00           1.0000000
            D   1   1.00
                  0.231000D+01           1.0000000
            D   1   1.00
                  0.520000D+00           1.0000000
            F   1   1.00
                  0.720000D+00           1.0000000
            ****
            -S     0
            S   8   1.00
                  0.134700D+06           0.226231D-03
                  0.201904D+05           0.175488D-02
                  0.459528D+04           0.914190D-02
                  0.130109D+04           0.373551D-01
                  0.423902D+03           0.123121D+00
                  0.152485D+03           0.306801D+00
                  0.586925D+02           0.500000D+00
                  0.231461D+02           0.354358D+00
            S   3   1.00
                  0.116327D+03          -0.491772D-01
                  0.352841D+02          -0.215962D+00
                  0.677831D+01           0.500000D+00
            S   2   1.00
                  0.360404D+01           0.500000D+00
                  0.164871D+01           0.366278D+00
            S   1   1.00
                  0.421821D+00           1.0000000
            S   1   1.00
                  0.147554D+00           1.0000000
            P   7   1.00
                  0.104863D+04           0.105273D-02
                  0.248717D+03           0.879338D-02
                  0.797887D+02           0.453358D-01
                  0.296023D+02           0.154476D+00
                  0.120627D+02           0.352366D+00
                  0.507628D+01           0.500000D+00
                  0.213375D+01           0.346429D+00
            P   2   1.00
                  0.928958D+01          -0.185932D-01
                  0.837819D+00           0.500000D+00
            P   1   1.00
                  0.301495D+00           1.0000000
            P   1   1.00
                  0.974740D-01           1.0000000
            D   1   1.00
                  0.210000D+01           1.0000000
            D   1   1.00
                  0.480000D+00           1.0000000
            F   1   1.00
                  0.660000D+00           1.0000000
            ****
            -Br     0
            S    10   1.00
                  0.233625D+07           0.532336D-04
                  0.349961D+06           0.413715D-03
                  0.796444D+05           0.217123D-02
                  0.225555D+05           0.910109D-02
                  0.735546D+04           0.323789D-01
                  0.265352D+04           0.988755D-01
                  0.103517D+04           0.248138D+00
                  0.422205D+03           0.474328D+00
                  0.180035D+03           0.500000D+00
                  0.793308D+02           0.187769D+00
            S    4   1.00
                  0.620834D+03          -0.226511D-01
                  0.190829D+03          -0.109497D+00
                  0.312505D+02           0.500000D+00
                  0.135270D+02           0.492812D+00
            S    2   1.00
                  0.216097D+02          -0.165418D+00
                  0.372566D+01           0.500000D+00
            S    1   1.00
                  0.169770D+01           1.0000000
            S    1   1.00
                  0.489332D+00           1.0000000
            S    1   1.00
                  0.175712D+00           1.0000000
            P    8   1.00
                  0.960829D+04           0.478974D-03
                  0.227618D+04           0.417853D-02
                  0.736723D+03           0.229315D-01
                  0.281579D+03           0.892653D-01
                  0.118395D+03           0.255288D+00
                  0.527481D+02           0.479074D+00
                  0.245098D+02           0.500000D+00
                  0.112009D+02           0.200944D+00
            P    4   1.00
                  0.587849D+02          -0.189674D-01
                  0.918962D+01           0.264104D+00
                  0.413895D+01           0.500000D+00
                  0.184225D+01           0.319316D+00
            P    1   1.00
                  0.713862D+00           1.0000000
            P    1   1.00
                  0.274232D+00           1.0000000
            P    1   1.00
                  0.944411D-01           1.0000000
            D    7   1.00
                  0.398470D+03           0.204066D-02
                  0.118967D+03           0.175171D-01
                  0.450197D+02           0.829708D-01
                  0.190320D+02           0.236284D+00
                  0.855686D+01           0.428468D+00
                  0.382950D+01           0.500000D+00
                  0.166291D+01           0.349360D+00
            D    1   1.00
                  0.672953D+00           1.0000000
            D    1   1.00
                  0.252000D+00           1.0000000
            F    1   1.00
                  0.530000D+00           1.0000000
            ****
            -Si     0
            S    8   1.00
                  0.996133D+05           0.235546D-03
                  0.149311D+05           0.182707D-02
                  0.339820D+04           0.951425D-02
                  0.962140D+03           0.388172D-01
                  0.313430D+03           0.127328D+00
                  0.112683D+03           0.313522D+00
                  0.433372D+02           0.500000D+00
                  0.170029D+02           0.340347D+00
            S    3   1.00
                  0.884208D+02          -0.404451D-01
                  0.266756D+02          -0.178059D+00
                  0.479640D+01           0.500000D+00
            S    2   1.00
                  0.239385D+01           0.500000D+00
                  0.108333D+01           0.338016D+00
            S    1   1.00
                  0.252420D+00           1.0000000
            S    1   1.00
                  0.891210D-01           1.0000000
            P    7   1.00
                  0.709901D+03           0.123028D-02
                  0.168426D+03           0.101366D-01
                  0.539946D+02           0.511840D-01
                  0.198646D+02           0.169967D+00
                  0.801369D+01           0.370717D+00
                  0.331870D+01           0.500000D+00
                  0.136112D+01           0.344128D+00
            P    2   1.00
                  0.622158D+01          -0.166609D-01
                  0.503049D+00           0.500000D+00
            P    1   1.00
                  0.179848D+00           1.0000000
            P    1   1.00
                  0.591912D-01           1.0000000
            D    1   1.00
                  0.168000D+01           1.0000000
            D    1   1.00
                  0.380000D+00           1.0000000
            F    1   1.00
                  0.540000D+00           1.0000000
            ****
            -P     0
            S    8   1.00
                  0.116416D+06           0.230715D-03
                  0.174500D+05           0.178960D-02
                  0.397149D+04           0.932116D-02
                  0.112447D+04           0.380591D-01
                  0.366347D+03           0.125148D+00
                  0.131757D+03           0.310022D+00
                  0.506988D+02           0.500000D+00
                  0.199436D+02           0.347528D+00
            S    3   1.00
                  0.101878D+03          -0.446755D-01
                  0.308249D+02          -0.196376D+00
                  0.573688D+01           0.500000D+00
            S    2   1.00
                  0.296868D+01           0.500000D+00
                  0.135315D+01           0.355098D+00
            S    1   1.00
                  0.332196D+00           1.0000000
            S    1   1.00
                  0.116229D+00           1.0000000
            P    7   1.00
                  0.873928D+03           0.112375D-02
                  0.207298D+03           0.933330D-02
                  0.664628D+02           0.477213D-01
                  0.245665D+02           0.160733D+00
                  0.996820D+01           0.359760D+00
                  0.416536D+01           0.500000D+00
                  0.173022D+01           0.346593D+00
            P    2   1.00
                  0.772530D+01          -0.175718D-01
                  0.657252D+00           0.500000D+00
            P    1   1.00
                  0.239903D+00           1.0000000
            P    1   1.00
                  0.800988D-01           1.0000000
            D    1   1.00
                  0.189000D+01           1.0000000
            D    1   1.00
                  0.430000D+00           1.0000000
            F    1   1.00
                  0.600000D+00           1.0000000
            ****
            
 Initial command:
 /usr/local/apps/g16_b01_avx/g16/l1.exe "/wrk/irikura/Gau-173610.inp" -scrdir="/wrk/irikura/"
 Entering Link 1 = /usr/local/apps/g16_b01_avx/g16/l1.exe PID=    173612.
  
 Copyright (c) 1988-2017, Gaussian, Inc.  All Rights Reserved.
  
 This is part of the Gaussian(R) 16 program.  It is based on
 the Gaussian(R) 09 system (copyright 2009, Gaussian, Inc.),
 the Gaussian(R) 03 system (copyright 2003, Gaussian, Inc.),
 the Gaussian(R) 98 system (copyright 1998, Gaussian, Inc.),
 the Gaussian(R) 94 system (copyright 1995, Gaussian, Inc.),
 the Gaussian 92(TM) system (copyright 1992, Gaussian, Inc.),
 the Gaussian 90(TM) system (copyright 1990, Gaussian, Inc.),
 the Gaussian 88(TM) system (copyright 1988, Gaussian, Inc.),
 the Gaussian 86(TM) system (copyright 1986, Carnegie Mellon
 University), and the Gaussian 82(TM) system (copyright 1983,
 Carnegie Mellon University). Gaussian is a federally registered
 trademark of Gaussian, Inc.
  
 This software contains proprietary and confidential information,
 including trade secrets, belonging to Gaussian, Inc.
  
 This software is provided under written license and may be
 used, copied, transmitted, or stored only in accord with that
 written license.
  
 The following legend is applicable only to US Government
 contracts under FAR:
  
                    RESTRICTED RIGHTS LEGEND
  
 Use, reproduction and disclosure by the US Government is
 subject to restrictions as set forth in subparagraphs (a)
 and (c) of the Commercial Computer Software - Restricted
 Rights clause in FAR 52.227-19.
  
 Gaussian, Inc.
 340 Quinnipiac St., Bldg. 40, Wallingford CT 06492
  
  
 ---------------------------------------------------------------
 Warning -- This program may not be used in any manner that
 competes with the business of Gaussian, Inc. or will provide
 assistance to any competitor of Gaussian, Inc.  The licensee
 of this program is prohibited from giving any competitor of
 Gaussian, Inc. access to this program.  By using this program,
 the user acknowledges that Gaussian, Inc. is engaged in the
 business of creating and licensing software in the field of
 computational chemistry and represents and warrants to the
 licensee that it is not a competitor of Gaussian, Inc. and that
 it will not use this program in any manner prohibited above.
 ---------------------------------------------------------------
  

 Cite this work as:
 Gaussian 16, Revision B.01,
 M. J. Frisch, G. W. Trucks, H. B. Schlegel, G. E. Scuseria, 
 M. A. Robb, J. R. Cheeseman, G. Scalmani, V. Barone, 
 G. A. Petersson, H. Nakatsuji, X. Li, M. Caricato, A. V. Marenich, 
 J. Bloino, B. G. Janesko, R. Gomperts, B. Mennucci, H. P. Hratchian, 
 J. V. Ortiz, A. F. Izmaylov, J. L. Sonnenberg, D. Williams-Young, 
 F. Ding, F. Lipparini, F. Egidi, J. Goings, B. Peng, A. Petrone, 
 T. Henderson, D. Ranasinghe, V. G. Zakrzewski, J. Gao, N. Rega, 
 G. Zheng, W. Liang, M. Hada, M. Ehara, K. Toyota, R. Fukuda, 
 J. Hasegawa, M. Ishida, T. Nakajima, Y. Honda, O. Kitao, H. Nakai, 
 T. Vreven, K. Throssell, J. A. Montgomery, Jr., J. E. Peralta, 
 F. Ogliaro, M. J. Bearpark, J. J. Heyd, E. N. Brothers, K. N. Kudin, 
 V. N. Staroverov, T. A. Keith, R. Kobayashi, J. Normand, 
 K. Raghavachari, A. P. Rendell, J. C. Burant, S. S. Iyengar, 
 J. Tomasi, M. Cossi, J. M. Millam, M. Klene, C. Adamo, R. Cammi, 
 J. W. Ochterski, R. L. Martin, K. Morokuma, O. Farkas, 
 J. B. Foresman, and D. J. Fox, Gaussian, Inc., Wallingford CT, 2016.
 
 ******************************************
 Gaussian 16:  ES64L-G16RevB.01 20-Dec-2017
                28-Sep-2023 
 ******************************************
 %chk=c6h5.chk
 %mem=500mw
 %nprocs=4
 Will use up to    4 processors via shared memory.
 ---------------------------------------
 # b3lyp/gen opt freq CPHF(Grid=OneStep)
 ---------------------------------------
 1/18=20,19=15,26=3,38=1/1,3;
 2/9=110,12=2,17=6,18=5,40=1/2;
 3/5=7,11=2,25=1,30=1,71=1,74=-5/1,2,3;
 4//1;
 5/5=2,38=5/2;
 6/7=2,8=2,9=2,10=2,28=1/1;
 7//1,2,3,16;
 1/18=20,19=15,26=3/3(2);
 2/9=110/2;
 99//99;
 2/9=110/2;
 3/5=7,6=1,11=2,25=1,30=1,71=1,74=-5,82=7/1,2,3;
 4/5=5,16=3,69=1/1;
 5/5=2,38=5/2;
 7//1,2,3,16;
 1/18=20,19=15,26=3/3(-5);
 2/9=110/2;
 6/7=2,8=2,9=2,10=2,19=2,28=1/1;
 99/9=1/99;
 ---------------------
 phenyl, B3LYP/pcseg-2
 ---------------------
 Symbolic Z-matrix:
 Charge =  0 Multiplicity = 2
 C                     0.        0.        1.39148 
 C                     0.        1.22108   0.76902 
 C                     0.       -1.22108   0.76902 
 C                     0.        1.20904  -0.62975 
 C                     0.       -1.20904  -0.62975 
 C                     0.        0.       -1.31855 
 H                     0.        2.15262   1.3189 
 H                     0.       -2.15262   1.3189 
 H                     0.        2.14515  -1.17331 
 H                     0.       -2.14515  -1.17331 
 H                     0.        0.       -2.40001 
 

 GradGradGradGradGradGradGradGradGradGradGradGradGradGradGradGradGradGrad
 Berny optimization.
 Initialization pass.
                           ----------------------------
                           !    Initial Parameters    !
                           ! (Angstroms and Degrees)  !
 --------------------------                            --------------------------
 ! Name  Definition              Value          Derivative Info.                !
 --------------------------------------------------------------------------------
 ! R1    R(1,2)                  1.3706         estimate D2E/DX2                !
 ! R2    R(1,3)                  1.3706         estimate D2E/DX2                !
 ! R3    R(2,4)                  1.3988         estimate D2E/DX2                !
 ! R4    R(2,7)                  1.0817         estimate D2E/DX2                !
 ! R5    R(3,5)                  1.3988         estimate D2E/DX2                !
 ! R6    R(3,8)                  1.0817         estimate D2E/DX2                !
 ! R7    R(4,6)                  1.3915         estimate D2E/DX2                !
 ! R8    R(4,9)                  1.0825         estimate D2E/DX2                !
 ! R9    R(5,6)                  1.3915         estimate D2E/DX2                !
 ! R10   R(5,10)                 1.0825         estimate D2E/DX2                !
 ! R11   R(6,11)                 1.0815         estimate D2E/DX2                !
 ! A1    A(2,1,3)              125.9788         estimate D2E/DX2                !
 ! A2    A(1,2,4)              116.5175         estimate D2E/DX2                !
 ! A3    A(1,2,7)              122.4362         estimate D2E/DX2                !
 ! A4    A(4,2,7)              121.0463         estimate D2E/DX2                !
 ! A5    A(1,3,5)              116.5175         estimate D2E/DX2                !
 ! A6    A(1,3,8)              122.4362         estimate D2E/DX2                !
 ! A7    A(5,3,8)              121.0463         estimate D2E/DX2                !
 ! A8    A(2,4,6)              120.1633         estimate D2E/DX2                !
 ! A9    A(2,4,9)              119.6489         estimate D2E/DX2                !
 ! A10   A(6,4,9)              120.1879         estimate D2E/DX2                !
 ! A11   A(3,5,6)              120.1633         estimate D2E/DX2                !
 ! A12   A(3,5,10)             119.6489         estimate D2E/DX2                !
 ! A13   A(6,5,10)             120.1879         estimate D2E/DX2                !
 ! A14   A(4,6,5)              120.6596         estimate D2E/DX2                !
 ! A15   A(4,6,11)             119.6702         estimate D2E/DX2                !
 ! A16   A(5,6,11)             119.6702         estimate D2E/DX2                !
 ! D1    D(3,1,2,4)              0.0            estimate D2E/DX2                !
 ! D2    D(3,1,2,7)            180.0            estimate D2E/DX2                !
 ! D3    D(2,1,3,5)              0.0            estimate D2E/DX2                !
 ! D4    D(2,1,3,8)            180.0            estimate D2E/DX2                !
 ! D5    D(1,2,4,6)              0.0            estimate D2E/DX2                !
 ! D6    D(1,2,4,9)            180.0            estimate D2E/DX2                !
 ! D7    D(7,2,4,6)            180.0            estimate D2E/DX2                !
 ! D8    D(7,2,4,9)              0.0            estimate D2E/DX2                !
 ! D9    D(1,3,5,6)              0.0            estimate D2E/DX2                !
 ! D10   D(1,3,5,10)           180.0            estimate D2E/DX2                !
 ! D11   D(8,3,5,6)            180.0            estimate D2E/DX2                !
 ! D12   D(8,3,5,10)             0.0            estimate D2E/DX2                !
 ! D13   D(2,4,6,5)              0.0            estimate D2E/DX2                !
 ! D14   D(2,4,6,11)           180.0            estimate D2E/DX2                !
 ! D15   D(9,4,6,5)            180.0            estimate D2E/DX2                !
 ! D16   D(9,4,6,11)             0.0            estimate D2E/DX2                !
 ! D17   D(3,5,6,4)              0.0            estimate D2E/DX2                !
 ! D18   D(3,5,6,11)           180.0            estimate D2E/DX2                !
 ! D19   D(10,5,6,4)           180.0            estimate D2E/DX2                !
 ! D20   D(10,5,6,11)            0.0            estimate D2E/DX2                !
 --------------------------------------------------------------------------------
 Trust Radius=3.00D-01 FncErr=1.00D-07 GrdErr=1.00D-06 EigMax=2.50D+02 EigMin=1.00D-04
 Number of steps in this run=     57 maximum allowed number of steps=    100.
 GradGradGradGradGradGradGradGradGradGradGradGradGradGradGradGradGradGrad

                          Input orientation:                          
 ---------------------------------------------------------------------
 Center     Atomic      Atomic             Coordinates (Angstroms)
 Number     Number       Type             X           Y           Z
 ---------------------------------------------------------------------
      1          6           0        0.000000    0.000000    1.391478
      2          6           0        0.000000    1.221082    0.769021
      3          6           0        0.000000   -1.221082    0.769021
      4          6           0        0.000000    1.209044   -0.629752
      5          6           0        0.000000   -1.209044   -0.629752
      6          6           0        0.000000    0.000000   -1.318545
      7          1           0        0.000000    2.152621    1.318905
      8          1           0        0.000000   -2.152621    1.318905
      9          1           0        0.000000    2.145154   -1.173312
     10          1           0        0.000000   -2.145154   -1.173312
     11          1           0        0.000000    0.000000   -2.400014
 ---------------------------------------------------------------------
                    Distance matrix (angstroms):
                    1          2          3          4          5
     1  C    0.000000
     2  C    1.370582   0.000000
     3  C    1.370582   2.442164   0.000000
     4  C    2.355241   1.398825   2.803940   0.000000
     5  C    2.355241   2.803940   1.398825   2.418088   0.000000
     6  C    2.710023   2.418465   2.418465   1.391482   1.391482
     7  H    2.153844   1.081729   3.418222   2.165087   3.885622
     8  H    2.153844   3.418222   1.081729   3.885622   2.165087
     9  H    3.343626   2.150946   3.886413   1.082478   3.397956
    10  H    3.343626   3.886413   2.150946   3.397956   1.082478
    11  H    3.791492   3.396148   3.396148   2.143739   2.143739
                    6          7          8          9         10
     6  C    0.000000
     7  H    3.404397   0.000000
     8  H    3.404397   4.305242   0.000000
     9  H    2.150065   2.492228   4.968100   0.000000
    10  H    2.150065   4.968100   2.492228   4.290308   0.000000
    11  H    1.081469   4.296991   4.296991   2.471130   2.471130
                   11
    11  H    0.000000
 Stoichiometry    C6H5(2)
 Framework group  C2V[C2(HCC),SGV(C4H4)]
 Deg. of freedom    10
 Full point group                 C2V     NOp   4
 Largest Abelian subgroup         C2V     NOp   4
 Largest concise Abelian subgroup C2      NOp   2
                         Standard orientation:                         
 ---------------------------------------------------------------------
 Center     Atomic      Atomic             Coordinates (Angstroms)
 Number     Number       Type             X           Y           Z
 ---------------------------------------------------------------------
      1          6           0        0.000000   -0.000000    1.391478
      2          6           0        0.000000    1.221082    0.769021
      3          6           0       -0.000000   -1.221082    0.769021
      4          6           0        0.000000    1.209044   -0.629752
      5          6           0       -0.000000   -1.209044   -0.629752
      6          6           0       -0.000000    0.000000   -1.318545
      7          1           0        0.000000    2.152621    1.318905
      8          1           0       -0.000000   -2.152621    1.318905
      9          1           0        0.000000    2.145154   -1.173312
     10          1           0       -0.000000   -2.145154   -1.173312
     11          1           0       -0.000000    0.000000   -2.400014
 ---------------------------------------------------------------------
 Rotational constants (GHZ):           6.3300378           5.6477436           2.9847289
 General basis read from cards:  (5D, 7F)
 There are   110 symmetry adapted cartesian basis functions of A1  symmetry.
 There are    37 symmetry adapted cartesian basis functions of A2  symmetry.
 There are    49 symmetry adapted cartesian basis functions of B1  symmetry.
 There are    89 symmetry adapted cartesian basis functions of B2  symmetry.
 There are    93 symmetry adapted basis functions of A1  symmetry.
 There are    35 symmetry adapted basis functions of A2  symmetry.
 There are    45 symmetry adapted basis functions of B1  symmetry.
 There are    77 symmetry adapted basis functions of B2  symmetry.
   250 basis functions,   396 primitive gaussians,   285 cartesian basis functions
    21 alpha electrons       20 beta electrons
       nuclear repulsion energy       195.0925645304 Hartrees.
 NAtoms=   11 NActive=   11 NUniq=    7 SFac= 2.47D+00 NAtFMM=   60 NAOKFM=F Big=F
 Integral buffers will be    131072 words long.
 Raffenetti 2 integral format.
 Two-electron integral symmetry is turned on.
 One-electron integrals computed using PRISM.
 NBasis=   250 RedAO= T EigKep=  3.55D-05  NBF=    93    35    45    77
 NBsUse=   250 1.00D-06 EigRej= -1.00D+00 NBFU=    93    35    45    77
 ExpMin= 7.42D-02 ExpMax= 7.32D+03 ExpMxC= 2.50D+02 IAcc=3 IRadAn=         5 AccDes= 0.00D+00
 Harris functional with IExCor=  402 and IRadAn=       5 diagonalized for initial guess.
 HarFok:  IExCor=  402 AccDes= 0.00D+00 IRadAn=         5 IDoV= 1 UseB2=F ITyADJ=14
 ICtDFT=  3500011 ScaDFX=  1.000000  1.000000  1.000000  1.000000
 FoFCou: FMM=F IPFlag=           0 FMFlag=      100000 FMFlg1=           0
         NFxFlg=           0 DoJE=T BraDBF=F KetDBF=T FulRan=T
         wScrn=  0.000000 ICntrl=       500 IOpCl=  0 I1Cent=   200000004 NGrid=           0
         NMat0=    1 NMatS0=      1 NMatT0=    0 NMatD0=    1 NMtDS0=    0 NMtDT0=    0
 Petite list used in FoFCou.
 Initial guess orbital symmetries:
 Alpha Orbitals:
       Occupied  (A1) (B2) (A1) (B2) (A1) (A1) (A1) (B2) (A1) (B2)
                 (A1) (A1) (B2) (A1) (B2) (A1) (B2) (B1) (A2) (B1)
                 (A1)
       Virtual   (A2) (B1) (A1) (B2) (B1) (A1) (B2) (A1) (A1) (A1)
                 (B1) (B2) (B2) (A1) (A2) (B2) (B1) (A1) (A1) (A1)
                 (B2) (A2) (B1) (B2) (A1) (B2) (A1) (A1) (B2) (B1)
                 (A1) (A1) (B2) (B2) (A1) (B2) (A1) (B2) (B1) (A1)
                 (B2) (A1) (B2) (A1) (A2) (A2) (B1) (A1) (A2) (B2)
                 (B1) (A1) (B2) (A1) (A1) (A1) (B2) (B1) (A1) (B2)
                 (B1) (A2) (B2) (A1) (B1) (B2) (B1) (A2) (B1) (A2)
                 (A1) (B2) (A1) (B2) (B1) (B2) (A1) (A2) (A1) (B1)
                 (B2) (B1) (A2) (A1) (B1) (B2) (A2) (A1) (A1) (B2)
                 (A1) (A1) (B2) (A1) (A1) (B2) (B2) (A2) (B2) (A1)
                 (B1) (A1) (A1) (B2) (B2) (A1) (B2) (A1) (B2) (B2)
                 (A1) (B2) (A1) (A2) (B1) (A1) (B1) (B2) (A2) (B1)
                 (A2) (B1) (A1) (B1) (B2) (A2) (B2) (A1) (A1) (B2)
                 (A1) (B2) (A1) (A2) (B1) (A1) (A1) (B2) (A1) (B2)
                 (B1) (B1) (A2) (A1) (B2) (A2) (A1) (B1) (A1) (A2)
                 (B2) (B1) (A1) (B2) (A2) (B2) (A1) (B1) (B2) (A2)
                 (A2) (B1) (B2) (A1) (A1) (A1) (A2) (B1) (B1) (A2)
                 (B2) (B1) (A1) (B1) (A2) (B1) (A1) (B2) (A2) (B2)
                 (A2) (B1) (A2) (B2) (A1) (B1) (A2) (A1) (A1) (B1)
                 (B2) (B2) (B2) (A1) (B1) (A1) (B2) (B2) (A1) (B2)
                 (A1) (B1) (B2) (A2) (A2) (A1) (A1) (B1) (A1) (B2)
                 (B2) (A2) (B2) (A1) (A1) (B2) (B1) (A1) (B2) (B2)
                 (A1) (A1) (B2) (A1) (A1) (A1) (B2) (B2) (A1)
 Beta  Orbitals:
       Occupied  (A1) (B2) (A1) (B2) (A1) (A1) (A1) (B2) (A1) (B2)
                 (A1) (A1) (B2) (A1) (B2) (A1) (B2) (B1) (A2) (B1)
       Virtual   (A1) (A2) (B1) (A1) (B2) (B1) (A1) (B2) (A1) (A1)
                 (A1) (B1) (B2) (B2) (A1) (A2) (B2) (B1) (A1) (A1)
                 (A1) (B2) (A2) (B1) (B2) (A1) (B2) (A1) (A1) (B2)
                 (B1) (A1) (A1) (B2) (B2) (A1) (B2) (A1) (B2) (B1)
                 (A1) (B2) (A1) (B2) (A1) (A2) (A2) (B1) (A1) (A2)
                 (B2) (B1) (A1) (B2) (A1) (A1) (A1) (B2) (B1) (A1)
                 (B2) (B1) (A2) (B2) (A1) (B1) (B2) (B1) (A2) (B1)
                 (A2) (A1) (B2) (A1) (B2) (B1) (B2) (A1) (A2) (A1)
                 (B1) (B2) (B1) (A2) (A1) (B1) (B2) (A2) (A1) (A1)
                 (B2) (A1) (A1) (B2) (A1) (A1) (B2) (B2) (A2) (B2)
                 (A1) (B1) (A1) (A1) (B2) (B2) (A1) (B2) (A1) (B2)
                 (B2) (A1) (B2) (A1) (A2) (B1) (A1) (B1) (B2) (A2)
                 (B1) (A2) (B1) (A1) (B1) (B2) (A2) (B2) (A1) (A1)
                 (B2) (A1) (B2) (A1) (A2) (B1) (A1) (A1) (B2) (A1)
                 (B2) (B1) (B1) (A2) (A1) (B2) (A2) (A1) (B1) (A1)
                 (A2) (B2) (B1) (A1) (B2) (A2) (B2) (A1) (B1) (B2)
                 (A2) (A2) (B1) (B2) (A1) (A1) (A1) (A2) (B1) (B1)
                 (A2) (B2) (B1) (A1) (B1) (A2) (B1) (A1) (B2) (A2)
                 (B2) (A2) (B1) (A2) (B2) (A1) (B1) (A2) (A1) (A1)
                 (B1) (B2) (B2) (B2) (A1) (B1) (A1) (B2) (B2) (A1)
                 (B2) (A1) (B1) (B2) (A2) (A2) (A1) (A1) (B1) (A1)
                 (B2) (B2) (A2) (B2) (A1) (A1) (B2) (B1) (A1) (B2)
                 (B2) (A1) (A1) (B2) (A1) (A1) (A1) (B2) (B2) (A1)
 The electronic state of the initial guess is 2-A1.
 Initial guess <Sx>= 0.0000 <Sy>= 0.0000 <Sz>= 0.5000 <S**2>= 0.7500 S= 0.5000
 Requested convergence on RMS density matrix=1.00D-08 within 128 cycles.
 Requested convergence on MAX density matrix=1.00D-06.
 Requested convergence on             energy=1.00D-06.
 No special actions if energy rises.
 Integral accuracy reduced to 1.0D-05 until final iterations.
 Initial convergence to 1.0D-05 achieved.  Increase integral accuracy.
 SCF Done:  E(UB3LYP) =  -231.650429212     A.U. after   16 cycles
            NFock= 16  Conv=0.29D-08     -V/T= 2.0037
 <Sx>= 0.0000 <Sy>= 0.0000 <Sz>= 0.5000 <S**2>= 0.7569 S= 0.5034
 <L.S>=  0.00000000000    
 Annihilation of the first spin contaminant:
 S**2 before annihilation     0.7569,   after     0.7500

 **********************************************************************

            Population analysis using the SCF Density.

 **********************************************************************

 Orbital symmetries:
 Alpha Orbitals:
       Occupied  (A1) (A1) (B2) (B2) (A1) (A1) (A1) (B2) (A1) (B2)
                 (A1) (A1) (B2) (A1) (B2) (A1) (B1) (B2) (B1) (A2)
                 (A1)
       Virtual   (A2) (B1) (A1) (B2) (A1) (B2) (A1) (B1) (A1) (A1)
                 (B1) (B2) (B2) (A2) (B1) (A1) (B2) (A1) (A1) (A2)
                 (B1) (A1) (A1) (B2) (B2) (A1) (B2) (B1) (B2) (A1)
                 (A1) (B2) (A1) (B2) (A1) (B2) (A1) (A1) (B2) (B1)
                 (B2) (B2) (A1) (A1) (A2) (B1) (A2) (A1) (A2) (B2)
                 (B1) (A1) (B2) (A1) (A1) (A1) (B1) (B2) (A1) (B2)
                 (B1) (B2) (A2) (A1) (B1) (B2) (A2) (B1) (A1) (A2)
                 (B1) (B2) (A1) (B2) (B1) (A1) (B2) (A2) (A1) (B1)
                 (B2) (B1) (A1) (A2) (B1) (B2) (A2) (A1) (A1) (A1)
                 (B2) (A1) (B2) (A1) (A1) (B2) (B2) (B2) (A2) (A1)
                 (B1) (A1) (B2) (A1) (B2) (A1) (B2) (A1) (B2) (A1)
                 (B2) (B2) (A1) (A2) (B1) (A1) (B1) (A2) (B2) (B1)
                 (A2) (B1) (A1) (B1) (B2) (A2) (B2) (A1) (A1) (B2)
                 (A1) (B2) (A1) (B1) (A2) (A1) (A1) (B2) (A1) (B2)
                 (B1) (A2) (A1) (B1) (A2) (B2) (A1) (B1) (A1) (A2)
                 (B2) (B1) (A1) (B2) (A2) (B2) (A1) (B1) (B2) (B2)
                 (A1) (A2) (A1) (B1) (A2) (A1) (B1) (A2) (B1) (B2)
                 (A2) (A1) (B1) (B1) (A2) (B1) (A1) (B2) (A2) (B2)
                 (A2) (B1) (A2) (A1) (B2) (B1) (A2) (A1) (B1) (A1)
                 (B2) (B2) (B2) (A1) (B1) (A1) (B2) (A1) (B2) (B2)
                 (B1) (A1) (B2) (A2) (A1) (A2) (A1) (B1) (B2) (A1)
                 (B2) (A2) (B2) (A1) (A1) (B2) (B1) (A1) (B2) (B2)
                 (A1) (A1) (B2) (A1) (A1) (A1) (B2) (B2) (A1)
 Beta  Orbitals:
       Occupied  (A1) (B2) (A1) (B2) (A1) (A1) (A1) (B2) (A1) (B2)
                 (A1) (A1) (B2) (A1) (B2) (A1) (B1) (B2) (A2) (B1)
       Virtual   (A1) (A2) (B1) (A1) (B2) (A1) (B2) (A1) (B1) (A1)
                 (A1) (B1) (B2) (B2) (A2) (B1) (A1) (B2) (A1) (A2)
                 (A1) (B1) (A1) (A1) (B2) (B2) (A1) (B2) (B1) (B2)
                 (A1) (A1) (B2) (A1) (B2) (A1) (B2) (A1) (A1) (B2)
                 (B1) (B2) (B2) (A1) (A1) (A2) (B1) (A2) (A2) (A1)
                 (B2) (B1) (A1) (B2) (A1) (A1) (A1) (B2) (B1) (A1)
                 (B2) (B1) (B2) (A2) (A1) (B1) (B2) (A2) (B1) (A2)
                 (A1) (B1) (B2) (A1) (B2) (B1) (B2) (A1) (A2) (A1)
                 (B1) (B2) (B1) (A1) (A2) (B2) (B1) (A2) (A1) (A1)
                 (A1) (B2) (A1) (B2) (A1) (A1) (B2) (B2) (B2) (A2)
                 (A1) (B1) (A1) (A1) (B2) (B2) (A1) (B2) (A1) (B2)
                 (B2) (A1) (B2) (A1) (A2) (B1) (A1) (B1) (A2) (B2)
                 (B1) (A2) (B1) (B1) (A1) (B2) (A2) (B2) (A1) (A1)
                 (B2) (A1) (B2) (A1) (A2) (B1) (A1) (A1) (B2) (A1)
                 (B2) (B1) (A2) (B1) (A1) (A2) (B2) (A1) (B1) (A1)
                 (A2) (B2) (B1) (A1) (B2) (A2) (B2) (A1) (B1) (B2)
                 (B2) (A1) (A2) (A2) (A1) (B1) (A1) (B1) (A2) (B1)
                 (B2) (A2) (B1) (A1) (B1) (A2) (B1) (A1) (B2) (A2)
                 (B2) (A2) (B1) (A2) (A1) (B2) (B1) (A2) (A1) (B1)
                 (A1) (B2) (B2) (B2) (A1) (B1) (A1) (B2) (A1) (B2)
                 (B2) (B1) (A1) (A2) (B2) (A1) (A2) (A1) (B1) (B2)
                 (A1) (B2) (A2) (B2) (A1) (A1) (B2) (B1) (B2) (A1)
                 (B2) (A1) (A1) (B2) (A1) (A1) (A1) (B2) (B2) (A1)
 The electronic state is 2-A1.
 Alpha  occ. eigenvalues --  -10.20163 -10.18828 -10.18826 -10.18670 -10.18668
 Alpha  occ. eigenvalues --  -10.18081  -0.87172  -0.76200  -0.75293  -0.61825
 Alpha  occ. eigenvalues --   -0.60320  -0.52791  -0.46469  -0.46295  -0.44014
 Alpha  occ. eigenvalues --   -0.39925  -0.38382  -0.36601  -0.26862  -0.26805
 Alpha  occ. eigenvalues --   -0.24858
 Alpha virt. eigenvalues --   -0.02507  -0.01758   0.01703   0.03790   0.04612
 Alpha virt. eigenvalues --    0.06821   0.07763   0.13248   0.13437   0.15319
 Alpha virt. eigenvalues --    0.16297   0.17549   0.19305   0.19685   0.20063
 Alpha virt. eigenvalues --    0.20517   0.21876   0.24236   0.26769   0.27297
 Alpha virt. eigenvalues --    0.27657   0.29488   0.30075   0.30484   0.30901
 Alpha virt. eigenvalues --    0.32052   0.32264   0.34897   0.36736   0.37343
 Alpha virt. eigenvalues --    0.39320   0.42939   0.43805   0.44817   0.45314
 Alpha virt. eigenvalues --    0.47358   0.50084   0.58369   0.59674   0.60063
 Alpha virt. eigenvalues --    0.63781   0.64700   0.66260   0.68632   0.75458
 Alpha virt. eigenvalues --    0.78849   0.79700   0.82709   0.83850   0.85584
 Alpha virt. eigenvalues --    0.92128   0.97005   0.98187   0.98621   0.99055
 Alpha virt. eigenvalues --    1.02974   1.05126   1.05127   1.07224   1.08353
 Alpha virt. eigenvalues --    1.12043   1.13881   1.14466   1.16096   1.18412
 Alpha virt. eigenvalues --    1.20715   1.23778   1.24716   1.27156   1.28548
 Alpha virt. eigenvalues --    1.29180   1.31521   1.33650   1.37259   1.39724
 Alpha virt. eigenvalues --    1.42218   1.42472   1.44257   1.46859   1.52469
 Alpha virt. eigenvalues --    1.53861   1.57212   1.59261   1.59364   1.62459
 Alpha virt. eigenvalues --    1.62459   1.64635   1.65127   1.69422   1.73060
 Alpha virt. eigenvalues --    1.74137   1.79919   1.82227   1.86268   1.87796
 Alpha virt. eigenvalues --    1.92191   1.93641   1.94182   1.94268   1.98868
 Alpha virt. eigenvalues --    2.02792   2.13705   2.18060   2.18305   2.19819
 Alpha virt. eigenvalues --    2.25380   2.32022   2.38500   2.42558   2.58656
 Alpha virt. eigenvalues --    2.58860   2.68402   2.70784   2.83441   2.90726
 Alpha virt. eigenvalues --    3.08519   3.11230   3.14696   3.15456   3.19041
 Alpha virt. eigenvalues --    3.22781   3.25681   3.30382   3.30637   3.34738
 Alpha virt. eigenvalues --    3.36839   3.42057   3.42817   3.46174   3.51765
 Alpha virt. eigenvalues --    3.59751   3.62328   3.62922   3.63188   3.63956
 Alpha virt. eigenvalues --    3.67813   3.77383   3.81055   3.81792   3.86599
 Alpha virt. eigenvalues --    3.90831   3.94009   3.95499   3.96358   3.99040
 Alpha virt. eigenvalues --    3.99118   4.00622   4.03412   4.04995   4.05653
 Alpha virt. eigenvalues --    4.09705   4.11853   4.16189   4.17224   4.17897
 Alpha virt. eigenvalues --    4.18511   4.18576   4.21567   4.22683   4.27632
 Alpha virt. eigenvalues --    4.28031   4.28532   4.28740   4.29241   4.29251
 Alpha virt. eigenvalues --    4.30835   4.34490   4.34659   4.40736   4.43218
 Alpha virt. eigenvalues --    4.43876   4.44738   4.45875   4.46847   4.47125
 Alpha virt. eigenvalues --    4.52189   4.53625   4.54378   4.54897   4.60905
 Alpha virt. eigenvalues --    4.63653   4.69332   4.73298   4.74640   4.75226
 Alpha virt. eigenvalues --    4.78662   4.84866   4.87433   4.89996   4.90389
 Alpha virt. eigenvalues --    4.96363   4.99128   5.00421   5.02271   5.04918
 Alpha virt. eigenvalues --    5.07195   5.10372   5.15035   5.15504   5.21885
 Alpha virt. eigenvalues --    5.26251   5.26434   5.30571   5.31036   5.36103
 Alpha virt. eigenvalues --    5.37334   5.43011   5.45258   5.48683   5.50091
 Alpha virt. eigenvalues --    5.52162   5.55345   5.65067   5.66303   5.70000
 Alpha virt. eigenvalues --    5.73493   5.81898   5.90890   5.91248   5.96936
 Alpha virt. eigenvalues --    5.98702   6.17268   6.29492   6.30574   6.42738
 Alpha virt. eigenvalues --    6.46713   6.58631   7.09030  10.15123
  Beta  occ. eigenvalues --  -10.18719 -10.18711 -10.18667 -10.18654 -10.18546
  Beta  occ. eigenvalues --  -10.18136  -0.86366  -0.75843  -0.74198  -0.61470
  Beta  occ. eigenvalues --   -0.59162  -0.52075  -0.45812  -0.45632  -0.43579
  Beta  occ. eigenvalues --   -0.38758  -0.38056  -0.36180  -0.26838  -0.26175
  Beta virt. eigenvalues --   -0.09160  -0.02566  -0.00828   0.01792   0.03818
  Beta virt. eigenvalues --    0.04745   0.06838   0.08060   0.13904   0.14456
  Beta virt. eigenvalues --    0.15423   0.16296   0.17564   0.19399   0.19679
  Beta virt. eigenvalues --    0.20160   0.21153   0.22263   0.24728   0.27260
  Beta virt. eigenvalues --    0.27336   0.27929   0.29700   0.30543   0.30576
  Beta virt. eigenvalues --    0.31341   0.32214   0.32429   0.35178   0.36878
  Beta virt. eigenvalues --    0.37455   0.39669   0.43459   0.44455   0.44901
  Beta virt. eigenvalues --    0.45461   0.47911   0.51814   0.59120   0.59917
  Beta virt. eigenvalues --    0.60544   0.64676   0.65007   0.66642   0.69248
  Beta virt. eigenvalues --    0.75540   0.79200   0.79863   0.84022   0.84052
  Beta virt. eigenvalues --    0.86218   0.93575   0.97447   0.98389   0.98925
  Beta virt. eigenvalues --    0.99348   1.03676   1.05577   1.05956   1.07781
  Beta virt. eigenvalues --    1.08747   1.12143   1.14118   1.14669   1.16568
  Beta virt. eigenvalues --    1.19455   1.21424   1.23869   1.24867   1.28526
  Beta virt. eigenvalues --    1.29317   1.29606   1.31973   1.34727   1.37376
  Beta virt. eigenvalues --    1.40515   1.42733   1.44171   1.44282   1.47636
  Beta virt. eigenvalues --    1.52623   1.54082   1.57228   1.59732   1.59805
  Beta virt. eigenvalues --    1.62584   1.63155   1.64970   1.66403   1.69691
  Beta virt. eigenvalues --    1.74174   1.74374   1.80297   1.82726   1.86733
  Beta virt. eigenvalues --    1.88465   1.92334   1.93793   1.94803   1.94826
  Beta virt. eigenvalues --    2.00282   2.03236   2.14375   2.18509   2.18981
  Beta virt. eigenvalues --    2.20074   2.25774   2.33125   2.39080   2.43625
  Beta virt. eigenvalues --    2.59481   2.59541   2.68674   2.71987   2.83929
  Beta virt. eigenvalues --    2.91564   3.10446   3.11932   3.14975   3.16262
  Beta virt. eigenvalues --    3.21216   3.23089   3.26009   3.30869   3.30937
  Beta virt. eigenvalues --    3.35326   3.37504   3.42536   3.45053   3.46992
  Beta virt. eigenvalues --    3.52257   3.60379   3.63047   3.63192   3.64205
  Beta virt. eigenvalues --    3.64493   3.68498   3.78093   3.81126   3.82294
  Beta virt. eigenvalues --    3.87139   3.92703   3.94231   3.96533   3.96715
  Beta virt. eigenvalues --    3.99317   3.99438   4.01464   4.04375   4.05674
  Beta virt. eigenvalues --    4.05817   4.10196   4.12569   4.16492   4.17587
  Beta virt. eigenvalues --    4.17973   4.18832   4.18837   4.23229   4.23303
  Beta virt. eigenvalues --    4.27900   4.28329   4.28808   4.29540   4.30166
  Beta virt. eigenvalues --    4.30739   4.32171   4.34595   4.35109   4.41175
  Beta virt. eigenvalues --    4.43538   4.43962   4.46184   4.46338   4.47428
  Beta virt. eigenvalues --    4.48481   4.52562   4.54580   4.54732   4.55367
  Beta virt. eigenvalues --    4.61163   4.64109   4.69875   4.73377   4.75069
  Beta virt. eigenvalues --    4.75689   4.79056   4.85609   4.88108   4.90474
  Beta virt. eigenvalues --    4.91152   4.97012   4.99438   5.01848   5.03130
  Beta virt. eigenvalues --    5.05359   5.07672   5.10836   5.15354   5.16716
  Beta virt. eigenvalues --    5.22360   5.26386   5.26864   5.31242   5.32230
  Beta virt. eigenvalues --    5.36410   5.37811   5.43589   5.45439   5.49092
  Beta virt. eigenvalues --    5.50908   5.52732   5.55569   5.65430   5.66708
  Beta virt. eigenvalues --    5.70142   5.74233   5.82100   5.91519   5.92004
  Beta virt. eigenvalues --    5.97832   5.99186   6.17543   6.30329   6.31121
  Beta virt. eigenvalues --    6.43333   6.47238   6.58856   7.09658  10.15604
          Condensed to atoms (all electrons):
               1          2          3          4          5          6
     1  C    5.187924   0.522299   0.522299  -0.049025  -0.049025  -0.062601
     2  C    0.522299   4.812818  -0.065000   0.468523  -0.055476  -0.061516
     3  C    0.522299  -0.065000   4.812818  -0.055476   0.468523  -0.061516
     4  C   -0.049025   0.468523  -0.055476   4.859870  -0.051618   0.505867
     5  C   -0.049025  -0.055476   0.468523  -0.051618   4.859870   0.505867
     6  C   -0.062601  -0.061516  -0.061516   0.505867   0.505867   4.828347
     7  H   -0.040079   0.442918   0.006737  -0.049209  -0.002645   0.008948
     8  H   -0.040079   0.006737   0.442918  -0.002645  -0.049209   0.008948
     9  H    0.014906  -0.051013  -0.004367   0.444567   0.013094  -0.052485
    10  H    0.014906  -0.004367  -0.051013   0.013094   0.444567  -0.052485
    11  H   -0.005606   0.014420   0.014420  -0.054265  -0.054265   0.458539
               7          8          9         10         11
     1  C   -0.040079  -0.040079   0.014906   0.014906  -0.005606
     2  C    0.442918   0.006737  -0.051013  -0.004367   0.014420
     3  C    0.006737   0.442918  -0.004367  -0.051013   0.014420
     4  C   -0.049209  -0.002645   0.444567   0.013094  -0.054265
     5  C   -0.002645  -0.049209   0.013094   0.444567  -0.054265
     6  C    0.008948   0.008948  -0.052485  -0.052485   0.458539
     7  H    0.600428  -0.000272  -0.007868   0.000157  -0.000144
     8  H   -0.000272   0.600428   0.000157  -0.007868  -0.000144
     9  H   -0.007868   0.000157   0.625159  -0.000007  -0.010722
    10  H    0.000157  -0.007868  -0.000007   0.625159  -0.010722
    11  H   -0.000144  -0.000144  -0.010722  -0.010722   0.625824
          Atomic-Atomic Spin Densities.
               1          2          3          4          5          6
     1  C    1.060134  -0.024217  -0.024217  -0.021098  -0.021098  -0.013314
     2  C   -0.024217  -0.057064   0.009846   0.004087  -0.002339   0.009733
     3  C   -0.024217   0.009846  -0.057064  -0.002339   0.004087   0.009733
     4  C   -0.021098   0.004087  -0.002339   0.098023   0.008994  -0.004154
     5  C   -0.021098  -0.002339   0.004087   0.008994   0.098023  -0.004154
     6  C   -0.013314   0.009733   0.009733  -0.004154  -0.004154  -0.034480
     7  H   -0.006157   0.013708  -0.000249  -0.014338  -0.000848  -0.000148
     8  H   -0.006157  -0.000249   0.013708  -0.000848  -0.014338  -0.000148
     9  H    0.005949  -0.000759  -0.000575  -0.009126   0.000254  -0.004754
    10  H    0.005949  -0.000575  -0.000759   0.000254  -0.009126  -0.004754
    11  H   -0.002416   0.000153   0.000153  -0.001695  -0.001695   0.006634
               7          8          9         10         11
     1  C   -0.006157  -0.006157   0.005949   0.005949  -0.002416
     2  C    0.013708  -0.000249  -0.000759  -0.000575   0.000153
     3  C   -0.000249   0.013708  -0.000575  -0.000759   0.000153
     4  C   -0.014338  -0.000848  -0.009126   0.000254  -0.001695
     5  C   -0.000848  -0.014338   0.000254  -0.009126  -0.001695
     6  C   -0.000148  -0.000148  -0.004754  -0.004754   0.006634
     7  H    0.027344   0.000113   0.002104   0.000064  -0.000108
     8  H    0.000113   0.027344   0.000064   0.002104  -0.000108
     9  H    0.002104   0.000064   0.019011   0.000287  -0.001673
    10  H    0.000064   0.002104   0.000287   0.019011  -0.001673
    11  H   -0.000108  -0.000108  -0.001673  -0.001673   0.004172
 Mulliken charges and spin densities:
               1          2
     1  C   -0.015920   0.953358
     2  C   -0.030342  -0.047677
     3  C   -0.030342  -0.047677
     4  C   -0.029683   0.057761
     5  C   -0.029683   0.057761
     6  C   -0.025912  -0.039806
     7  H    0.041029   0.021486
     8  H    0.041029   0.021486
     9  H    0.028579   0.010783
    10  H    0.028579   0.010783
    11  H    0.022667   0.001743
 Sum of Mulliken charges =  -0.00000   1.00000
 Mulliken charges and spin densities with hydrogens summed into heavy atoms:
               1          2
     1  C   -0.015920   0.953358
     2  C    0.010687  -0.026191
     3  C    0.010687  -0.026191
     4  C   -0.001104   0.068544
     5  C   -0.001104   0.068544
     6  C   -0.003246  -0.038063
 Electronic spatial extent (au):  <R**2>=            433.6905
 Charge=             -0.0000 electrons
 Dipole moment (field-independent basis, Debye):
    X=              0.0000    Y=             -0.0000    Z=             -0.8865  Tot=              0.8865
 Quadrupole moment (field-independent basis, Debye-Ang):
   XX=            -39.1104   YY=            -30.3751   ZZ=            -34.4752
   XY=              0.0000   XZ=              0.0000   YZ=              0.0000
 Traceless Quadrupole moment (field-independent basis, Debye-Ang):
   XX=             -4.4568   YY=              4.2784   ZZ=              0.1784
   XY=              0.0000   XZ=              0.0000   YZ=              0.0000
 Octapole moment (field-independent basis, Debye-Ang**2):
  XXX=              0.0000  YYY=              0.0000  ZZZ=            -10.5083  XYY=              0.0000
  XXY=             -0.0000  XXZ=             -0.5297  XZZ=              0.0000  YZZ=             -0.0000
  YYZ=              0.7430  XYZ=              0.0000
 Hexadecapole moment (field-independent basis, Debye-Ang**3):
 XXXX=            -48.2379 YYYY=           -271.7602 ZZZZ=           -272.9852 XXXY=             -0.0000
 XXXZ=              0.0000 YYYX=             -0.0000 YYYZ=             -0.0000 ZZZX=              0.0000
 ZZZY=              0.0000 XXYY=            -64.6292 XXZZ=            -59.0231 YYZZ=            -84.7560
 XXYZ=              0.0000 YYXZ=             -0.0000 ZZXY=             -0.0000
 N-N= 1.950925645304D+02 E-N=-9.274476676446D+02  KE= 2.307856682210D+02
 Symmetry A1   KE= 1.459173632412D+02
 Symmetry A2   KE= 2.247567876761D+00
 Symmetry B1   KE= 4.187023671412D+00
 Symmetry B2   KE= 7.843371343168D+01
 Symmetry A1   SP= 1.000000000000D+00
 Symmetry A2   SP= 2.032641904185D-16
 Symmetry B1   SP= 2.398388189711D-15
 Symmetry B2   SP=-2.134777285196D-14
                          Isotropic Fermi Contact Couplings
        Atom                 a.u.       MegaHertz       Gauss      10(-4) cm-1
     1  C(13)              0.38520     433.03431     154.51741     144.44470
     2  C(13)              0.00889       9.99484       3.56641       3.33392
     3  C(13)              0.00889       9.99484       3.56641       3.33392
     4  C(13)              0.04465      50.19035      17.90917      16.74170
     5  C(13)              0.04465      50.19035      17.90917      16.74170
     6  C(13)             -0.00746      -8.38722      -2.99277      -2.79767
     7  H(1)               0.01171      52.34867      18.67931      17.46164
     8  H(1)               0.01171      52.34867      18.67931      17.46164
     9  H(1)               0.00372      16.62535       5.93234       5.54562
    10  H(1)               0.00372      16.62535       5.93234       5.54562
    11  H(1)               0.00127       5.68745       2.02942       1.89713
 --------------------------------------------------------
       Center         ----  Spin Dipole Couplings  ----
                      3XX-RR        3YY-RR        3ZZ-RR
 --------------------------------------------------------
     1   Atom       -0.460281     -0.578033      1.038314
     2   Atom       -0.102175      0.054978      0.047197
     3   Atom       -0.102175      0.054978      0.047197
     4   Atom       -0.016457     -0.046279      0.062736
     5   Atom       -0.016457     -0.046279      0.062736
     6   Atom       -0.045100      0.015393      0.029707
     7   Atom       -0.012683      0.023305     -0.010622
     8   Atom       -0.012683      0.023305     -0.010622
     9   Atom       -0.005802      0.004173      0.001629
    10   Atom       -0.005802      0.004173      0.001629
    11   Atom       -0.003135      0.000531      0.002604
 --------------------------------------------------------
                        XY            XZ            YZ
 --------------------------------------------------------
     1   Atom       -0.000000      0.000000      0.000000
     2   Atom        0.000000     -0.000000     -0.067259
     3   Atom        0.000000     -0.000000      0.067259
     4   Atom       -0.000000     -0.000000     -0.005144
     5   Atom        0.000000      0.000000      0.005144
     6   Atom        0.000000     -0.000000      0.000000
     7   Atom        0.000000      0.000000     -0.005459
     8   Atom        0.000000      0.000000      0.005459
     9   Atom        0.000000     -0.000000     -0.006813
    10   Atom       -0.000000      0.000000      0.006813
    11   Atom        0.000000     -0.000000     -0.000000
 --------------------------------------------------------


 ---------------------------------------------------------------------------------
              Anisotropic Spin Dipole Couplings in Principal Axis System
 ---------------------------------------------------------------------------------

       Atom             a.u.   MegaHertz   Gauss  10(-4) cm-1        Axes

              Baa    -0.5780   -77.567   -27.678   -25.873  0.0000  1.0000 -0.0000
     1 C(13)  Bbb    -0.4603   -61.765   -22.039   -20.603  1.0000 -0.0000  0.0000
              Bcc     1.0383   139.332    49.717    46.476  0.0000  0.0000  1.0000
 
              Baa    -0.1022   -13.711    -4.892    -4.573  1.0000 -0.0000  0.0000
     2 C(13)  Bbb    -0.0163    -2.185    -0.780    -0.729  0.0000  0.6864  0.7272
              Bcc     0.1185    15.896     5.672     5.302  0.0000  0.7272 -0.6864
 
              Baa    -0.1022   -13.711    -4.892    -4.573  1.0000 -0.0000  0.0000
     3 C(13)  Bbb    -0.0163    -2.185    -0.780    -0.729 -0.0000 -0.6864  0.7272
              Bcc     0.1185    15.896     5.672     5.302 -0.0000  0.7272  0.6864
 
              Baa    -0.0465    -6.243    -2.228    -2.082  0.0000  0.9989  0.0470
     4 C(13)  Bbb    -0.0165    -2.208    -0.788    -0.737  1.0000 -0.0000  0.0000
              Bcc     0.0630     8.451     3.016     2.819 -0.0000 -0.0470  0.9989
 
              Baa    -0.0465    -6.243    -2.228    -2.082 -0.0000  0.9989 -0.0470
     5 C(13)  Bbb    -0.0165    -2.208    -0.788    -0.737  1.0000  0.0000 -0.0000
              Bcc     0.0630     8.451     3.016     2.819  0.0000  0.0470  0.9989
 
              Baa    -0.0451    -6.052    -2.160    -2.019  1.0000  0.0000  0.0000
     6 C(13)  Bbb     0.0154     2.066     0.737     0.689 -0.0000  1.0000  0.0000
              Bcc     0.0297     3.986     1.422     1.330  0.0000  0.0000  1.0000
 
              Baa    -0.0127    -6.767    -2.415    -2.257  1.0000  0.0000  0.0000
     7 H(1)   Bbb    -0.0115    -6.124    -2.185    -2.043 -0.0000  0.1550  0.9879
              Bcc     0.0242    12.892     4.600     4.300 -0.0000  0.9879 -0.1550
 
              Baa    -0.0127    -6.767    -2.415    -2.257  1.0000 -0.0000  0.0000
     8 H(1)   Bbb    -0.0115    -6.124    -2.185    -2.043 -0.0000 -0.1550  0.9879
              Bcc     0.0242    12.892     4.600     4.300  0.0000  0.9879  0.1550
 
              Baa    -0.0058    -3.096    -1.105    -1.033  1.0000 -0.0000  0.0000
     9 H(1)   Bbb    -0.0040    -2.150    -0.767    -0.717  0.0000  0.6389  0.7693
              Bcc     0.0098     5.246     1.872     1.750  0.0000  0.7693 -0.6389
 
              Baa    -0.0058    -3.096    -1.105    -1.033  1.0000  0.0000 -0.0000
    10 H(1)   Bbb    -0.0040    -2.150    -0.767    -0.717  0.0000 -0.6389  0.7693
              Bcc     0.0098     5.246     1.872     1.750 -0.0000  0.7693  0.6389
 
              Baa    -0.0031    -1.673    -0.597    -0.558  1.0000 -0.0000  0.0000
    11 H(1)   Bbb     0.0005     0.283     0.101     0.094  0.0000  1.0000  0.0000
              Bcc     0.0026     1.389     0.496     0.463 -0.0000 -0.0000  1.0000
 

 ---------------------------------------------------------------------------------

 Calling FoFJK, ICntrl=      2127 FMM=F ISym2X=1 I1Cent= 0 IOpClX= 1 NMat=1 NMatS=1 NMatT=0.
 ***** Axes restored to original set *****
 -------------------------------------------------------------------
 Center     Atomic                   Forces (Hartrees/Bohr)
 Number     Number              X              Y              Z
 -------------------------------------------------------------------
      1        6          -0.000000000   -0.000000000   -0.000260798
      2        6           0.000000000   -0.000046486    0.000565069
      3        6           0.000000000    0.000046486    0.000565069
      4        6           0.000000000    0.000200546   -0.000281240
      5        6           0.000000000   -0.000200546   -0.000281240
      6        6          -0.000000000   -0.000000000   -0.000174331
      7        1           0.000000000    0.000131409   -0.000027931
      8        1           0.000000000   -0.000131409   -0.000027931
      9        1           0.000000000    0.000068670   -0.000007170
     10        1           0.000000000   -0.000068670   -0.000007170
     11        1          -0.000000000   -0.000000000   -0.000062327
 -------------------------------------------------------------------
 Cartesian Forces:  Max     0.000565069 RMS     0.000176625

 GradGradGradGradGradGradGradGradGradGradGradGradGradGradGradGradGradGrad
 Berny optimization.
 FormGI is forming the generalized inverse of G from B-inverse, IUseBI=4.
 Internal  Forces:  Max     0.000406689 RMS     0.000115839
 Search for a local minimum.
 Step number   1 out of a maximum of   57
 All quantities printed in internal units (Hartrees-Bohrs-Radians)
 Mixed Optimization -- En-DIIS/RFO-DIIS
 Second derivative matrix not updated -- first step.
 ITU=  0
     Eigenvalues ---    0.02144   0.02148   0.02172   0.02174   0.02201
     Eigenvalues ---    0.02225   0.02254   0.02418   0.16000   0.16000
     Eigenvalues ---    0.16000   0.16000   0.16000   0.22000   0.22000
     Eigenvalues ---    0.23241   0.35697   0.35697   0.35786   0.35786
     Eigenvalues ---    0.35817   0.42174   0.44047   0.45816   0.46856
     Eigenvalues ---    0.49533   0.50478
 RFO step:  Lambda=-1.65283688D-06 EMin= 2.14377214D-02
 Linear search not attempted -- first point.
 Iteration  1 RMS(Cart)=  0.00038553 RMS(Int)=  0.00000005
 Iteration  2 RMS(Cart)=  0.00000006 RMS(Int)=  0.00000001
 ClnCor:  largest displacement from symmetrization is 1.47D-12 for atom    11.
 Variable       Old X    -DE/DX   Delta X   Delta X   Delta X     New X
                                 (Linear)    (Quad)   (Total)
    R1        2.59002   0.00002   0.00000   0.00002   0.00002   2.59004
    R2        2.59002   0.00002   0.00000   0.00002   0.00002   2.59004
    R3        2.64340   0.00041   0.00000   0.00089   0.00089   2.64428
    R4        2.04417   0.00010   0.00000   0.00028   0.00028   2.04445
    R5        2.64340   0.00041   0.00000   0.00089   0.00089   2.64428
    R6        2.04417   0.00010   0.00000   0.00028   0.00028   2.04445
    R7        2.62952   0.00029   0.00000   0.00064   0.00064   2.63016
    R8        2.04559   0.00006   0.00000   0.00018   0.00018   2.04576
    R9        2.62952   0.00029   0.00000   0.00064   0.00064   2.63016
   R10        2.04559   0.00006   0.00000   0.00018   0.00018   2.04576
   R11        2.04368   0.00006   0.00000   0.00017   0.00017   2.04385
    A1        2.19874   0.00021   0.00000   0.00077   0.00077   2.19951
    A2        2.03361  -0.00007   0.00000  -0.00033  -0.00033   2.03329
    A3        2.13691   0.00013   0.00000   0.00074   0.00074   2.13766
    A4        2.11266  -0.00006   0.00000  -0.00042  -0.00042   2.11224
    A5        2.03361  -0.00007   0.00000  -0.00033  -0.00033   2.03329
    A6        2.13691   0.00013   0.00000   0.00074   0.00074   2.13766
    A7        2.11266  -0.00006   0.00000  -0.00042  -0.00042   2.11224
    A8        2.09724  -0.00004   0.00000  -0.00010  -0.00010   2.09715
    A9        2.08827  -0.00001   0.00000  -0.00013  -0.00013   2.08814
   A10        2.09767   0.00005   0.00000   0.00023   0.00023   2.09790
   A11        2.09724  -0.00004   0.00000  -0.00010  -0.00010   2.09715
   A12        2.08827  -0.00001   0.00000  -0.00013  -0.00013   2.08814
   A13        2.09767   0.00005   0.00000   0.00023   0.00023   2.09790
   A14        2.10591  -0.00001   0.00000   0.00009   0.00009   2.10599
   A15        2.08864   0.00000   0.00000  -0.00004  -0.00004   2.08860
   A16        2.08864   0.00000   0.00000  -0.00004  -0.00004   2.08860
    D1       -0.00000   0.00000   0.00000   0.00000   0.00000   0.00000
    D2        3.14159   0.00000   0.00000   0.00000   0.00000   3.14159
    D3        0.00000  -0.00000   0.00000  -0.00000   0.00000   0.00000
    D4        3.14159  -0.00000   0.00000  -0.00000   0.00000   3.14159
    D5        0.00000  -0.00000   0.00000   0.00000  -0.00000   0.00000
    D6        3.14159   0.00000   0.00000   0.00000   0.00000   3.14159
    D7        3.14159  -0.00000   0.00000  -0.00000   0.00000   3.14159
    D8        0.00000  -0.00000   0.00000  -0.00000   0.00000   0.00000
    D9        0.00000  -0.00000   0.00000  -0.00000   0.00000   0.00000
   D10        3.14159  -0.00000   0.00000  -0.00000   0.00000   3.14159
   D11        3.14159   0.00000   0.00000   0.00000   0.00000   3.14159
   D12       -0.00000   0.00000   0.00000   0.00000   0.00000   0.00000
   D13        0.00000  -0.00000   0.00000  -0.00000   0.00000   0.00000
   D14        3.14159   0.00000   0.00000   0.00000   0.00000   3.14159
   D15        3.14159  -0.00000   0.00000  -0.00000   0.00000   3.14159
   D16        0.00000  -0.00000   0.00000  -0.00000   0.00000   0.00000
   D17       -0.00000   0.00000   0.00000   0.00000   0.00000   0.00000
   D18        3.14159   0.00000   0.00000   0.00000   0.00000   3.14159
   D19        3.14159   0.00000   0.00000   0.00000   0.00000   3.14159
   D20        0.00000   0.00000   0.00000   0.00000   0.00000   0.00000
         Item               Value     Threshold  Converged?
 Maximum Force            0.000407     0.000450     YES
 RMS     Force            0.000116     0.000300     YES
 Maximum Displacement     0.001080     0.001800     YES
 RMS     Displacement     0.000385     0.001200     YES
 Predicted change in Energy=-8.264214D-07
 Optimization completed.
    -- Stationary point found.
                           ----------------------------
                           !   Optimized Parameters   !
                           ! (Angstroms and Degrees)  !
 --------------------------                            --------------------------
 ! Name  Definition              Value          Derivative Info.                !
 --------------------------------------------------------------------------------
 ! R1    R(1,2)                  1.3706         -DE/DX =    0.0                 !
 ! R2    R(1,3)                  1.3706         -DE/DX =    0.0                 !
 ! R3    R(2,4)                  1.3988         -DE/DX =    0.0004              !
 ! R4    R(2,7)                  1.0817         -DE/DX =    0.0001              !
 ! R5    R(3,5)                  1.3988         -DE/DX =    0.0004              !
 ! R6    R(3,8)                  1.0817         -DE/DX =    0.0001              !
 ! R7    R(4,6)                  1.3915         -DE/DX =    0.0003              !
 ! R8    R(4,9)                  1.0825         -DE/DX =    0.0001              !
 ! R9    R(5,6)                  1.3915         -DE/DX =    0.0003              !
 ! R10   R(5,10)                 1.0825         -DE/DX =    0.0001              !
 ! R11   R(6,11)                 1.0815         -DE/DX =    0.0001              !
 ! A1    A(2,1,3)              125.9788         -DE/DX =    0.0002              !
 ! A2    A(1,2,4)              116.5175         -DE/DX =   -0.0001              !
 ! A3    A(1,2,7)              122.4362         -DE/DX =    0.0001              !
 ! A4    A(4,2,7)              121.0463         -DE/DX =   -0.0001              !
 ! A5    A(1,3,5)              116.5175         -DE/DX =   -0.0001              !
 ! A6    A(1,3,8)              122.4362         -DE/DX =    0.0001              !
 ! A7    A(5,3,8)              121.0463         -DE/DX =   -0.0001              !
 ! A8    A(2,4,6)              120.1633         -DE/DX =    0.0                 !
 ! A9    A(2,4,9)              119.6489         -DE/DX =    0.0                 !
 ! A10   A(6,4,9)              120.1879         -DE/DX =    0.0                 !
 ! A11   A(3,5,6)              120.1633         -DE/DX =    0.0                 !
 ! A12   A(3,5,10)             119.6489         -DE/DX =    0.0                 !
 ! A13   A(6,5,10)             120.1879         -DE/DX =    0.0                 !
 ! A14   A(4,6,5)              120.6596         -DE/DX =    0.0                 !
 ! A15   A(4,6,11)             119.6702         -DE/DX =    0.0                 !
 ! A16   A(5,6,11)             119.6702         -DE/DX =    0.0                 !
 ! D1    D(3,1,2,4)              0.0            -DE/DX =    0.0                 !
 ! D2    D(3,1,2,7)            180.0            -DE/DX =    0.0                 !
 ! D3    D(2,1,3,5)              0.0            -DE/DX =    0.0                 !
 ! D4    D(2,1,3,8)            180.0            -DE/DX =    0.0                 !
 ! D5    D(1,2,4,6)              0.0            -DE/DX =    0.0                 !
 ! D6    D(1,2,4,9)            180.0            -DE/DX =    0.0                 !
 ! D7    D(7,2,4,6)            180.0            -DE/DX =    0.0                 !
 ! D8    D(7,2,4,9)              0.0            -DE/DX =    0.0                 !
 ! D9    D(1,3,5,6)              0.0            -DE/DX =    0.0                 !
 ! D10   D(1,3,5,10)           180.0            -DE/DX =    0.0                 !
 ! D11   D(8,3,5,6)            180.0            -DE/DX =    0.0                 !
 ! D12   D(8,3,5,10)             0.0            -DE/DX =    0.0                 !
 ! D13   D(2,4,6,5)              0.0            -DE/DX =    0.0                 !
 ! D14   D(2,4,6,11)           180.0            -DE/DX =    0.0                 !
 ! D15   D(9,4,6,5)            180.0            -DE/DX =    0.0                 !
 ! D16   D(9,4,6,11)             0.0            -DE/DX =    0.0                 !
 ! D17   D(3,5,6,4)              0.0            -DE/DX =    0.0                 !
 ! D18   D(3,5,6,11)           180.0            -DE/DX =    0.0                 !
 ! D19   D(10,5,6,4)           180.0            -DE/DX =    0.0                 !
 ! D20   D(10,5,6,11)            0.0            -DE/DX =    0.0                 !
 --------------------------------------------------------------------------------
 GradGradGradGradGradGradGradGradGradGradGradGradGradGradGradGradGradGrad

                          Input orientation:                          
 ---------------------------------------------------------------------
 Center     Atomic      Atomic             Coordinates (Angstroms)
 Number     Number       Type             X           Y           Z
 ---------------------------------------------------------------------
      1          6           0        0.000000    0.000000    1.391478
      2          6           0        0.000000    1.221082    0.769021
      3          6           0       -0.000000   -1.221082    0.769021
      4          6           0        0.000000    1.209044   -0.629752
      5          6           0       -0.000000   -1.209044   -0.629752
      6          6           0       -0.000000   -0.000000   -1.318545
      7          1           0        0.000000    2.152621    1.318905
      8          1           0       -0.000000   -2.152621    1.318905
      9          1           0        0.000000    2.145154   -1.173312
     10          1           0       -0.000000   -2.145154   -1.173312
     11          1           0       -0.000000   -0.000000   -2.400014
 ---------------------------------------------------------------------
                    Distance matrix (angstroms):
                    1          2          3          4          5
     1  C    0.000000
     2  C    1.370582   0.000000
     3  C    1.370582   2.442164   0.000000
     4  C    2.355241   1.398825   2.803940   0.000000
     5  C    2.355241   2.803940   1.398825   2.418088   0.000000
     6  C    2.710023   2.418465   2.418465   1.391482   1.391482
     7  H    2.153844   1.081729   3.418222   2.165087   3.885622
     8  H    2.153844   3.418222   1.081729   3.885622   2.165087
     9  H    3.343626   2.150946   3.886413   1.082478   3.397956
    10  H    3.343626   3.886413   2.150946   3.397956   1.082478
    11  H    3.791492   3.396148   3.396148   2.143739   2.143739
                    6          7          8          9         10
     6  C    0.000000
     7  H    3.404397   0.000000
     8  H    3.404397   4.305242   0.000000
     9  H    2.150065   2.492228   4.968100   0.000000
    10  H    2.150065   4.968100   2.492228   4.290308   0.000000
    11  H    1.081469   4.296991   4.296991   2.471130   2.471130
                   11
    11  H    0.000000
 Stoichiometry    C6H5(2)
 Framework group  C2V[C2(HCC),SGV(C4H4)]
 Deg. of freedom    10
 Full point group                 C2V     NOp   4
 Largest Abelian subgroup         C2V     NOp   4
 Largest concise Abelian subgroup C2      NOp   2
                         Standard orientation:                         
 ---------------------------------------------------------------------
 Center     Atomic      Atomic             Coordinates (Angstroms)
 Number     Number       Type             X           Y           Z
 ---------------------------------------------------------------------
      1          6           0       -0.000000    0.000000    1.391478
      2          6           0       -0.000000    1.221082    0.769021
      3          6           0       -0.000000   -1.221082    0.769021
      4          6           0        0.000000    1.209044   -0.629752
      5          6           0       -0.000000   -1.209044   -0.629752
      6          6           0        0.000000    0.000000   -1.318545
      7          1           0       -0.000000    2.152621    1.318905
      8          1           0       -0.000000   -2.152621    1.318905
      9          1           0        0.000000    2.145154   -1.173312
     10          1           0       -0.000000   -2.145154   -1.173312
     11          1           0        0.000000    0.000000   -2.400014
 ---------------------------------------------------------------------
 Rotational constants (GHZ):           6.3300378           5.6477436           2.9847289
 1\1\GINC-GAMBA\FOpt\UB3LYP\Gen\C6H5(2)\IRIKURA\28-Sep-2023\0\\# b3lyp/
 gen opt freq CPHF(Grid=OneStep)\\phenyl, B3LYP/pcseg-2\\0,2\C,0.,0.,1.
 391478\C,0.,1.221082,0.769021\C,0.,-1.221082,0.769021\C,0.,1.209044,-0
 .629752\C,0.,-1.209044,-0.629752\C,0.,0.,-1.318545\H,0.,2.152621,1.318
 905\H,0.,-2.152621,1.318905\H,0.,2.145154,-1.173312\H,0.,-2.145154,-1.
 173312\H,0.,0.,-2.400014\\Version=ES64L-G16RevB.01\State=2-A1\HF=-231.
 6504292\S2=0.756857\S2-1=0.\S2A=0.750028\RMSD=2.866e-09\RMSF=1.766e-04
 \Dipole=0.,0.,-0.3487712\Quadrupole=-3.3135561,3.1809166,0.1326394,0.,
 0.,0.\PG=C02V [C2(H1C1C1),SGV(C4H4)]\\@


 REFRAIN FROM ILLUSIONS, INSIST ON WORK AND NOT WORDS,
 PATIENTLY SEEK DIVINE AND SCIENTIFIC TRUTH.
 LAST WORDS OF MARIA MENDELEEVA TO HER SON DMITRI, C. 1850
 Job cpu time:       0 days  0 hours  4 minutes  3.2 seconds.
 Elapsed time:       0 days  0 hours  1 minutes  0.9 seconds.
 File lengths (MBytes):  RWF=     66 Int=      0 D2E=      0 Chk=      7 Scr=      1
 Normal termination of Gaussian 16 at Thu Sep 28 17:35:41 2023.
 Link1:  Proceeding to internal job step number  2.
 ------------------------------------------------------------------
 #N Geom=AllCheck Guess=TCheck SCRF=Check GenChk UB3LYP/ChkBas Freq
 ------------------------------------------------------------------
 1/10=4,29=7,30=1,38=1,40=1/1,3;
 2/12=2,40=1/2;
 3/5=7,6=2,11=2,14=-4,25=1,30=1,67=1,70=2,71=2,74=-5,82=7,116=2,140=1/1,2,3;
 4/5=101/1;
 5/5=2,38=6,98=1/2;
 8/6=4,10=90,11=11/1;
 11/6=1,8=1,9=11,15=111,16=1/1,2,10;
 10/6=1,60=-420/2;
 6/7=2,8=2,9=2,10=2,28=1/1;
 7/8=1,10=1,25=1/1,2,3,16;
 1/10=4,30=1/3;
 99//99;
 Structure from the checkpoint file:  "c6h5.chk"
 ---------------------
 phenyl, B3LYP/pcseg-2
 ---------------------
 Charge =  0 Multiplicity = 2
 Redundant internal coordinates found in file.  (old form).
 C,0,0.,0.,1.391478
 C,0,0.,1.221082,0.769021
 C,0,0.,-1.221082,0.769021
 C,0,0.,1.209044,-0.629752
 C,0,0.,-1.209044,-0.629752
 C,0,0.,0.,-1.318545
 H,0,0.,2.152621,1.318905
 H,0,0.,-2.152621,1.318905
 H,0,0.,2.145154,-1.173312
 H,0,0.,-2.145154,-1.173312
 H,0,0.,0.,-2.400014
 Recover connectivity data from disk.

 GradGradGradGradGradGradGradGradGradGradGradGradGradGradGradGradGradGrad
 Berny optimization.
 Initialization pass.
                           ----------------------------
                           !    Initial Parameters    !
                           ! (Angstroms and Degrees)  !
 --------------------------                            --------------------------
 ! Name  Definition              Value          Derivative Info.                !
 --------------------------------------------------------------------------------
 ! R1    R(1,2)                  1.3706         calculate D2E/DX2 analytically  !
 ! R2    R(1,3)                  1.3706         calculate D2E/DX2 analytically  !
 ! R3    R(2,4)                  1.3988         calculate D2E/DX2 analytically  !
 ! R4    R(2,7)                  1.0817         calculate D2E/DX2 analytically  !
 ! R5    R(3,5)                  1.3988         calculate D2E/DX2 analytically  !
 ! R6    R(3,8)                  1.0817         calculate D2E/DX2 analytically  !
 ! R7    R(4,6)                  1.3915         calculate D2E/DX2 analytically  !
 ! R8    R(4,9)                  1.0825         calculate D2E/DX2 analytically  !
 ! R9    R(5,6)                  1.3915         calculate D2E/DX2 analytically  !
 ! R10   R(5,10)                 1.0825         calculate D2E/DX2 analytically  !
 ! R11   R(6,11)                 1.0815         calculate D2E/DX2 analytically  !
 ! A1    A(2,1,3)              125.9788         calculate D2E/DX2 analytically  !
 ! A2    A(1,2,4)              116.5175         calculate D2E/DX2 analytically  !
 ! A3    A(1,2,7)              122.4362         calculate D2E/DX2 analytically  !
 ! A4    A(4,2,7)              121.0463         calculate D2E/DX2 analytically  !
 ! A5    A(1,3,5)              116.5175         calculate D2E/DX2 analytically  !
 ! A6    A(1,3,8)              122.4362         calculate D2E/DX2 analytically  !
 ! A7    A(5,3,8)              121.0463         calculate D2E/DX2 analytically  !
 ! A8    A(2,4,6)              120.1633         calculate D2E/DX2 analytically  !
 ! A9    A(2,4,9)              119.6489         calculate D2E/DX2 analytically  !
 ! A10   A(6,4,9)              120.1879         calculate D2E/DX2 analytically  !
 ! A11   A(3,5,6)              120.1633         calculate D2E/DX2 analytically  !
 ! A12   A(3,5,10)             119.6489         calculate D2E/DX2 analytically  !
 ! A13   A(6,5,10)             120.1879         calculate D2E/DX2 analytically  !
 ! A14   A(4,6,5)              120.6596         calculate D2E/DX2 analytically  !
 ! A15   A(4,6,11)             119.6702         calculate D2E/DX2 analytically  !
 ! A16   A(5,6,11)             119.6702         calculate D2E/DX2 analytically  !
 ! D1    D(3,1,2,4)              0.0            calculate D2E/DX2 analytically  !
 ! D2    D(3,1,2,7)            180.0            calculate D2E/DX2 analytically  !
 ! D3    D(2,1,3,5)              0.0            calculate D2E/DX2 analytically  !
 ! D4    D(2,1,3,8)            180.0            calculate D2E/DX2 analytically  !
 ! D5    D(1,2,4,6)              0.0            calculate D2E/DX2 analytically  !
 ! D6    D(1,2,4,9)            180.0            calculate D2E/DX2 analytically  !
 ! D7    D(7,2,4,6)            180.0            calculate D2E/DX2 analytically  !
 ! D8    D(7,2,4,9)              0.0            calculate D2E/DX2 analytically  !
 ! D9    D(1,3,5,6)              0.0            calculate D2E/DX2 analytically  !
[...]
                 (B1) (A2) (B1) (A2) (B1) (A1) (B1) (A2) (B1) (A2)
                 (A1) (A1) (A2) (B2) (A1) (B2) (A1) (B2) (B2) (A1)
                 (A1) (B2) (A1) (B2) (A1) (B2) (A1) (B2) (A1) (A1)
                 (B2) (B2) (A1) (B1) (A2) (B1) (A2) (B1) (B2) (A1)
                 (B1) (A1) (B2) (A1) (B2) (A1) (A1) (B2) (A1) (B2)
                 (B2) (A1) (A1) (B2) (B2) (A1) (A1)
 The electronic state is 2-A1.
 Alpha  occ. eigenvalues --  -11.24647 -11.24327 -11.24321 -11.24027 -11.24013
 Alpha  occ. eigenvalues --  -11.23528  -1.15547  -1.02307  -1.00397  -0.83224
 Alpha  occ. eigenvalues --   -0.80219  -0.69811  -0.62815  -0.62614  -0.59667
 Alpha  occ. eigenvalues --   -0.53640  -0.51099  -0.50900  -0.34404  -0.34106
 Alpha  occ. eigenvalues --   -0.09563
 Alpha virt. eigenvalues --    0.05051   0.05148   0.05577   0.06885   0.07134
 Alpha virt. eigenvalues --    0.08528   0.09302   0.09710   0.10328   0.10528
 Alpha virt. eigenvalues --    0.10821   0.12096   0.12602   0.12623   0.13098
 Alpha virt. eigenvalues --    0.14850   0.15150   0.15621   0.15899   0.16211
 Alpha virt. eigenvalues --    0.20130   0.20387   0.20713   0.21197   0.21782
 Alpha virt. eigenvalues --    0.21852   0.23912   0.29178   0.29717   0.30394
 Alpha virt. eigenvalues --    0.32058   0.33205   0.36859   0.37130   0.37652
 Alpha virt. eigenvalues --    0.40364   0.41391   0.41788   0.43324   0.43455
 Alpha virt. eigenvalues --    0.43870   0.44626   0.45776   0.48962   0.50330
 Alpha virt. eigenvalues --    0.50608   0.51145   0.51812   0.52112   0.52868
 Alpha virt. eigenvalues --    0.54263   0.55637   0.57881   0.58222   0.58339
 Alpha virt. eigenvalues --    0.58818   0.59151   0.60522   0.60969   0.63660
 Alpha virt. eigenvalues --    0.63936   0.64352   0.65500   0.66635   0.68312
 Alpha virt. eigenvalues --    0.71477   0.72405   0.74318   0.74929   0.75521
 Alpha virt. eigenvalues --    0.76311   0.79543   0.79759   0.85121   0.86346
 Alpha virt. eigenvalues --    0.89132   0.89135   0.90753   0.90980   0.97215
 Alpha virt. eigenvalues --    0.97788   0.98675   0.99031   1.00018   1.01062
 Alpha virt. eigenvalues --    1.01231   1.01996   1.03441   1.03809   1.06355
 Alpha virt. eigenvalues --    1.11120   1.16092   1.18571   1.19897   1.19899
 Alpha virt. eigenvalues --    1.23312   1.23728   1.27095   1.27460   1.28062
 Alpha virt. eigenvalues --    1.30667   1.31589   1.32359   1.34614   1.34837
 Alpha virt. eigenvalues --    1.40245   1.42454   1.42665   1.45043   1.45483
 Alpha virt. eigenvalues --    1.48085   1.48220   1.48608   1.48748   1.50647
 Alpha virt. eigenvalues --    1.51724   1.52198   1.53496   1.53657   1.57481
 Alpha virt. eigenvalues --    1.61078   1.62085   1.63244   1.67827   1.68404
 Alpha virt. eigenvalues --    1.69349   1.70685   1.71411   1.72495   1.77791
 Alpha virt. eigenvalues --    1.80070   1.80914   1.83302   1.83822   1.84818
 Alpha virt. eigenvalues --    1.86313   1.86980   1.87467   1.88016   1.90224
 Alpha virt. eigenvalues --    1.91047   1.93008   1.95054   1.95303   1.98293
 Alpha virt. eigenvalues --    1.98528   1.98613   1.99995   2.00300   2.01154
 Alpha virt. eigenvalues --    2.05206   2.06570   2.07531   2.09779   2.10524
 Alpha virt. eigenvalues --    2.12290   2.12799   2.14667   2.15470   2.17587
 Alpha virt. eigenvalues --    2.19414   2.19600   2.20144   2.21030   2.24085
 Alpha virt. eigenvalues --    2.25466   2.25996   2.26791   2.33010   2.37845
 Alpha virt. eigenvalues --    2.37908   2.39707   2.40325   2.41288   2.44328
 Alpha virt. eigenvalues --    2.47099   2.48091   2.50187   2.51982   2.53075
 Alpha virt. eigenvalues --    2.54012   2.54646   2.56720   2.56910   2.63544
 Alpha virt. eigenvalues --    2.64769   2.65764   2.66173   2.67074   2.67840
 Alpha virt. eigenvalues --    2.68975   2.69730   2.72460   2.72838   2.73154
 Alpha virt. eigenvalues --    2.78089   2.79530   2.82884   2.84069   2.85366
 Alpha virt. eigenvalues --    2.86859   2.87007   2.88762   2.93452   2.99381
 Alpha virt. eigenvalues --    3.00054   3.00447   3.01718   3.03842   3.07003
 Alpha virt. eigenvalues --    3.14291   3.15070   3.16017   3.17131   3.19597
 Alpha virt. eigenvalues --    3.21885   3.26295   3.28824   3.30868   3.35461
 Alpha virt. eigenvalues --    3.35525   3.42876   3.44734   3.53083   3.54210
 Alpha virt. eigenvalues --    3.55556   3.59778   3.61706   3.62894   3.64709
 Alpha virt. eigenvalues --    3.65952   3.66969   3.69020   3.73868   3.79362
 Alpha virt. eigenvalues --    3.81123   3.81771   3.82407   3.85108   3.88101
 Alpha virt. eigenvalues --    3.91839   3.96741   4.10055   4.20972   4.25504
 Alpha virt. eigenvalues --    4.26471   4.29401   4.29928   4.32422   4.35213
 Alpha virt. eigenvalues --    4.36278   4.46205   4.47296   4.50872   4.55364
 Alpha virt. eigenvalues --    4.57667   4.59647   4.61104   4.66046   4.66515
 Alpha virt. eigenvalues --    4.71640   4.78212   4.78771   4.79991   4.81608
 Alpha virt. eigenvalues --    4.83148   4.84239   4.87272   4.91081   4.97016
 Alpha virt. eigenvalues --    5.05732   5.09291   5.21805   5.23176   5.26773
 Alpha virt. eigenvalues --    5.29012   5.29803   5.30629   5.32924   5.33480
 Alpha virt. eigenvalues --    5.33591   5.37544   5.39370   5.41827   5.52433
 Alpha virt. eigenvalues --    5.56985   5.64165   5.66915   5.67794   5.73160
 Alpha virt. eigenvalues --    5.76475   5.78891   5.80121   5.81787   5.89657
 Alpha virt. eigenvalues --    5.89983   5.94310   6.09460   6.11247   6.11665
 Alpha virt. eigenvalues --    6.16625   6.23272   6.26838   6.27039   6.27324
 Alpha virt. eigenvalues --    6.28539   6.40101   6.46354   6.49017   6.55061
 Alpha virt. eigenvalues --    6.55633   6.59914   6.62197   6.66299   6.77257
 Alpha virt. eigenvalues --    6.85480   7.10403   7.27988   7.31153   7.33390
 Alpha virt. eigenvalues --    7.33577   7.36317   7.41823   7.43962   7.49120
 Alpha virt. eigenvalues --    7.64020   7.72326   7.89954   7.97973   8.03219
 Alpha virt. eigenvalues --    8.12704   8.15733   8.18737   8.21044   8.37049
 Alpha virt. eigenvalues --    8.40008   8.49644   8.50291   8.54609   8.55911
 Alpha virt. eigenvalues --    8.60370   8.69342   8.76603   8.79140   8.93773
 Alpha virt. eigenvalues --    8.97853   9.09957   9.14539   9.29653   9.30099
 Alpha virt. eigenvalues --    9.37126   9.41933   9.44824   9.46262   9.56207
 Alpha virt. eigenvalues --    9.70658   9.74518   9.96639   9.97262  10.08196
 Alpha virt. eigenvalues --   10.17309  10.34675  10.40364  20.49977  20.76569
 Alpha virt. eigenvalues --   20.77079  21.06339  21.07081  21.26605  21.30491
 Alpha virt. eigenvalues --   21.41606  21.65804  21.71996  21.72663  21.77765
 Alpha virt. eigenvalues --   22.10935  22.29601  22.38776  22.69133  22.76474
 Alpha virt. eigenvalues --   23.16066  23.41631  23.60021  23.63652  23.70262
 Alpha virt. eigenvalues --   23.73812  24.18332
          Condensed to atoms (all electrons):
               1          2          3          4          5          6
     1  C    5.295735   0.500224   0.500224  -0.139310  -0.139310   0.036136
     2  C    0.500224   4.921036  -0.077916   0.492315   0.031315  -0.128686
     3  C    0.500224  -0.077916   4.921036   0.031315   0.492315  -0.128686
     4  C   -0.139310   0.492315   0.031315   4.984418  -0.104076   0.485432
     5  C   -0.139310   0.031315   0.492315  -0.104076   4.984418   0.485432
     6  C    0.036136  -0.128686  -0.128686   0.485432   0.485432   5.017189
     7  H   -0.025076   0.436789   0.001459  -0.020293  -0.001384   0.001498
     8  H   -0.025076   0.001459   0.436789  -0.001384  -0.020293   0.001498
     9  H    0.001791  -0.021999  -0.000714   0.435304   0.004177  -0.019056
    10  H    0.001791  -0.000714  -0.021999   0.004177   0.435304  -0.019056
    11  H   -0.000767   0.001973   0.001973  -0.025311  -0.025311   0.446937
               7          8          9         10         11
     1  C   -0.025076  -0.025076   0.001791   0.001791  -0.000767
     2  C    0.436789   0.001459  -0.021999  -0.000714   0.001973
     3  C    0.001459   0.436789  -0.000714  -0.021999   0.001973
     4  C   -0.020293  -0.001384   0.435304   0.004177  -0.025311
     5  C   -0.001384  -0.020293   0.004177   0.435304  -0.025311
     6  C    0.001498   0.001498  -0.019056  -0.019056   0.446937
     7  H    0.442929   0.000042  -0.005924   0.000007  -0.000030
     8  H    0.000042   0.442929   0.000007  -0.005924  -0.000030
     9  H   -0.005924   0.000007   0.465677  -0.000036  -0.007076
    10  H    0.000007  -0.005924  -0.000036   0.465677  -0.007076
    11  H   -0.000030  -0.000030  -0.007076  -0.007076   0.468619
          Atomic-Atomic Spin Densities.
               1          2          3          4          5          6
     1  C    1.018222  -0.035620  -0.035620  -0.015455  -0.015455   0.011352
     2  C   -0.035620   0.039485   0.006370   0.007619   0.001837  -0.002484
     3  C   -0.035620   0.006370   0.039485   0.001837   0.007619  -0.002484
     4  C   -0.015455   0.007619   0.001837   0.027573   0.004201  -0.005100
     5  C   -0.015455   0.001837   0.007619   0.004201   0.027573  -0.005100
     6  C    0.011352  -0.002484  -0.002484  -0.005100  -0.005100   0.004079
     7  H   -0.007930   0.004213  -0.000648  -0.004252  -0.000209   0.000298
     8  H   -0.007930  -0.000648   0.004213  -0.000209  -0.004252   0.000298
     9  H    0.001771  -0.002525  -0.000515   0.000402  -0.000117   0.000394
    10  H    0.001771  -0.000515  -0.002525  -0.000117   0.000402   0.000394
    11  H   -0.000446   0.000306   0.000306  -0.000051  -0.000051  -0.000060
               7          8          9         10         11
     1  C   -0.007930  -0.007930   0.001771   0.001771  -0.000446
     2  C    0.004213  -0.000648  -0.002525  -0.000515   0.000306
     3  C   -0.000648   0.004213  -0.000515  -0.002525   0.000306
     4  C   -0.004252  -0.000209   0.000402  -0.000117  -0.000051
     5  C   -0.000209  -0.004252  -0.000117   0.000402  -0.000051
     6  C    0.000298   0.000298   0.000394   0.000394  -0.000060
     7  H    0.012466   0.000113   0.000536   0.000012  -0.000010
     8  H    0.000113   0.012466   0.000012   0.000536  -0.000010
     9  H    0.000536   0.000012   0.002829   0.000015  -0.000088
    10  H    0.000012   0.000536   0.000015   0.002829  -0.000088
    11  H   -0.000010  -0.000010  -0.000088  -0.000088   0.000366
 Mulliken charges and spin densities:
               1          2
     1  C   -0.006361   0.914660
     2  C   -0.155795   0.018037
     3  C   -0.155795   0.018037
     4  C   -0.142586   0.016447
     5  C   -0.142586   0.016447
     6  C   -0.178638   0.001591
     7  H    0.169983   0.004589
     8  H    0.169983   0.004589
     9  H    0.147848   0.002715
    10  H    0.147848   0.002715
    11  H    0.146100   0.000174
 Sum of Mulliken charges =  -0.00000   1.00000
 Mulliken charges and spin densities with hydrogens summed into heavy atoms:
               1          2
     1  C   -0.006361   0.914660
     2  C    0.014187   0.022626
     3  C    0.014187   0.022626
     4  C    0.005262   0.019162
     5  C    0.005262   0.019162
     6  C   -0.032538   0.001765
 Electronic spatial extent (au):  <R**2>=            433.9150
 Charge=             -0.0000 electrons
 Dipole moment (field-independent basis, Debye):
    X=             -0.0000    Y=             -0.0000    Z=             -0.7380  Tot=              0.7380
 Quadrupole moment (field-independent basis, Debye-Ang):
   XX=            -39.9515   YY=            -30.2549   ZZ=            -34.0562
   XY=              0.0000   XZ=             -0.0000   YZ=              0.0000
 Traceless Quadrupole moment (field-independent basis, Debye-Ang):
   XX=             -5.1973   YY=              4.4993   ZZ=              0.6980
   XY=              0.0000   XZ=             -0.0000   YZ=              0.0000
 Octapole moment (field-independent basis, Debye-Ang**2):
  XXX=              0.0000  YYY=             -0.0000  ZZZ=             -9.5262  XYY=              0.0000
  XXY=              0.0000  XXZ=             -0.4441  XZZ=              0.0000  YZZ=             -0.0000
  YYZ=              0.6178  XYZ=              0.0000
 Hexadecapole moment (field-independent basis, Debye-Ang**3):
 XXXX=            -49.9605 YYYY=           -267.3455 ZZZZ=           -267.5913 XXXY=             -0.0000
 XXXZ=              0.0000 YYYX=             -0.0000 YYYZ=             -0.0000 ZZZX=              0.0000
 ZZZY=             -0.0000 XXYY=            -65.3398 XXZZ=            -59.4721 YYZZ=            -83.2481
 XXYZ=              0.0000 YYXZ=             -0.0000 ZZXY=             -0.0000
 N-N= 1.950925645304D+02 E-N=-9.257883557787D+02  KE= 2.299336130019D+02
 Symmetry A1   KE= 1.458161076701D+02
 Symmetry A2   KE= 2.054180607212D+00
 Symmetry B1   KE= 3.852784178116D+00
 Symmetry B2   KE= 7.821054054647D+01
 Symmetry A1   SP= 1.000000000000D+00
 Symmetry A2   SP= 1.092795735902D-15
 Symmetry B1   SP= 2.211873545087D-15
 Symmetry B2   SP= 8.010921510218D-15
                          Isotropic Fermi Contact Couplings
        Atom                 a.u.       MegaHertz       Gauss      10(-4) cm-1
     1  C(13)              0.33530     376.93738     134.50063     125.73278
     2  C(13)              0.03350      37.65650      13.43678      12.56086
     3  C(13)              0.03350      37.65650      13.43678      12.56086
     4  C(13)              0.02122      23.85391       8.51167       7.95681
     5  C(13)              0.02122      23.85391       8.51167       7.95681
     6  C(13)              0.00059       0.65773       0.23470       0.21940
     7  H(1)               0.00448      20.00441       7.13807       6.67275
     8  H(1)               0.00448      20.00441       7.13807       6.67275
     9  H(1)               0.00139       6.23398       2.22444       2.07943
    10  H(1)               0.00139       6.23398       2.22444       2.07943
    11  H(1)               0.00014       0.62080       0.22152       0.20708
 --------------------------------------------------------
       Center         ----  Spin Dipole Couplings  ----
                      3XX-RR        3YY-RR        3ZZ-RR
 --------------------------------------------------------
     1   Atom       -0.526764     -0.526794      1.053558
     2   Atom       -0.056227      0.041813      0.014414
     3   Atom       -0.056227      0.041813      0.014414
     4   Atom       -0.022627     -0.016059      0.038687
     5   Atom       -0.022627     -0.016059      0.038687
     6   Atom       -0.006750     -0.003887      0.010637
     7   Atom       -0.013143      0.023430     -0.010287
     8   Atom       -0.013143      0.023430     -0.010287
     9   Atom       -0.004671      0.001698      0.002974
    10   Atom       -0.004671      0.001698      0.002974
    11   Atom       -0.002527     -0.001920      0.004446
 --------------------------------------------------------
                        XY            XZ            YZ
 --------------------------------------------------------
     1   Atom        0.000000      0.000000      0.000000
     2   Atom        0.000000      0.000000     -0.060900
     3   Atom        0.000000      0.000000      0.060900
     4   Atom       -0.000000     -0.000000     -0.009725
     5   Atom        0.000000      0.000000      0.009725
     6   Atom        0.000000     -0.000000     -0.000000
     7   Atom       -0.000000      0.000000     -0.004339
     8   Atom        0.000000      0.000000      0.004339
     9   Atom        0.000000     -0.000000     -0.005446
    10   Atom        0.000000      0.000000      0.005446
    11   Atom        0.000000     -0.000000     -0.000000
 --------------------------------------------------------


 ---------------------------------------------------------------------------------
              Anisotropic Spin Dipole Couplings in Principal Axis System
 ---------------------------------------------------------------------------------

       Atom             a.u.   MegaHertz   Gauss  10(-4) cm-1        Axes

              Baa    -0.5268   -70.691   -25.224   -23.580  0.0000  1.0000 -0.0000
     1 C(13)  Bbb    -0.5268   -70.687   -25.223   -23.579  1.0000 -0.0000  0.0000
              Bcc     1.0536   141.377    50.447    47.158  0.0000  0.0000  1.0000
 
              Baa    -0.0562    -7.545    -2.692    -2.517  1.0000  0.0000  0.0000
     2 C(13)  Bbb    -0.0343    -4.604    -1.643    -1.536 -0.0000  0.6247  0.7809
              Bcc     0.0905    12.149     4.335     4.052 -0.0000  0.7809 -0.6247
 
              Baa    -0.0562    -7.545    -2.692    -2.517  1.0000 -0.0000  0.0000
     3 C(13)  Bbb    -0.0343    -4.604    -1.643    -1.536 -0.0000 -0.6247  0.7809
              Bcc     0.0905    12.149     4.335     4.052  0.0000  0.7809  0.6247
 
              Baa    -0.0226    -3.036    -1.083    -1.013  1.0000 -0.0000  0.0000
     4 C(13)  Bbb    -0.0177    -2.380    -0.849    -0.794  0.0000  0.9855  0.1699
              Bcc     0.0404     5.416     1.933     1.807 -0.0000 -0.1699  0.9855
 
              Baa    -0.0226    -3.036    -1.083    -1.013  1.0000 -0.0000  0.0000
     5 C(13)  Bbb    -0.0177    -2.380    -0.849    -0.794  0.0000  0.9855 -0.1699
              Bcc     0.0404     5.416     1.933     1.807  0.0000  0.1699  0.9855
 
              Baa    -0.0068    -0.906    -0.323    -0.302  1.0000 -0.0000  0.0000
     6 C(13)  Bbb    -0.0039    -0.522    -0.186    -0.174  0.0000  1.0000  0.0000
              Bcc     0.0106     1.427     0.509     0.476 -0.0000 -0.0000  1.0000
 
              Baa    -0.0131    -7.012    -2.502    -2.339  1.0000  0.0000  0.0000
     7 H(1)   Bbb    -0.0108    -5.782    -2.063    -1.929 -0.0000  0.1256  0.9921
              Bcc     0.0240    12.794     4.565     4.268 -0.0000  0.9921 -0.1256
 
              Baa    -0.0131    -7.012    -2.502    -2.339  1.0000 -0.0000  0.0000
     8 H(1)   Bbb    -0.0108    -5.782    -2.063    -1.929 -0.0000 -0.1256  0.9921
              Bcc     0.0240    12.794     4.565     4.268  0.0000  0.9921  0.1256
 
              Baa    -0.0047    -2.492    -0.889    -0.831  1.0000 -0.0000  0.0000
     9 H(1)   Bbb    -0.0031    -1.680    -0.599    -0.560  0.0000  0.7471  0.6647
              Bcc     0.0078     4.172     1.489     1.392 -0.0000 -0.6647  0.7471
 
              Baa    -0.0047    -2.492    -0.889    -0.831  1.0000 -0.0000  0.0000
    10 H(1)   Bbb    -0.0031    -1.680    -0.599    -0.560  0.0000  0.7471 -0.6647
              Bcc     0.0078     4.172     1.489     1.392  0.0000  0.6647  0.7471
 
              Baa    -0.0025    -1.348    -0.481    -0.450  1.0000 -0.0000  0.0000
    11 H(1)   Bbb    -0.0019    -1.024    -0.366    -0.342  0.0000  1.0000  0.0000
              Bcc     0.0044     2.372     0.847     0.791 -0.0000 -0.0000  1.0000
 

 ---------------------------------------------------------------------------------

 1\1\GINC-GAMBA\SP\ROHF\Gen\C6H5(2)\IRIKURA\28-Sep-2023\0\\# rohf/gen g
 eom=check guess=check\\phenyl, ROHF/cc-pVTZ-F12\\0,2\C,0,0.,0.,1.39147
 8\C,0,0.,1.221082,0.769021\C,0,0.,-1.221082,0.769021\C,0,0.,1.209044,-
 0.629752\C,0,0.,-1.209044,-0.629752\C,0,0.,0.,-1.318545\H,0,0.,2.15262
 1,1.318905\H,0,0.,-2.152621,1.318905\H,0,0.,2.145154,-1.173312\H,0,0.,
 -2.145154,-1.173312\H,0,0.,0.,-2.400014\\Version=ES64L-G16RevB.01\Stat
 e=2-A1\HF=-230.139207\RMSD=4.380e-09\Dipole=0.,0.,-0.2903394\Quadrupol
 e=-3.8640801,3.3451141,0.518966,0.,0.,0.\PG=C02V [C2(H1C1C1),SGV(C4H4)
 ]\\@


 CHINESE FORTUNE COOKIE OF JAN 1 1967 SAY....
 ALL THINGS ARE DIFFICULT BEFORE THEY ARE EASY.
 WE LEARN SO LITTLE AND FORGET SO MUCH.
 YOU WILL OVERCOME OBSTACLES TO ACHIEVE SUCCESS.
 AH SO.
 Job cpu time:       0 days  0 hours 16 minutes 42.0 seconds.
 Elapsed time:       0 days  0 hours  4 minutes 10.7 seconds.
 File lengths (MBytes):  RWF=    120 Int=      0 D2E=      0 Chk=     16 Scr=      1
 Normal termination of Gaussian 16 at Thu Sep 28 17:51:54 2023.
