 Entering Gaussian System, Link 0=g16
 AtFile(1): pcseg2.gbs
            -H     0
            S   4   1.00
                  0.754732D+02           0.427821D-02
                  0.113575D+02           0.328672D-01
                  0.260081D+01           0.159578D+00
                  0.735503D+00           0.500000D+00
            S   1   1.00
                  0.231761D+00           1.0000000
            S   1   1.00
                  0.741675D-01           1.0000000
            P   1   1.00
                  0.160000D+01           1.0000000
            P   1   1.00
                  0.450000D+00           1.0000000
            D   1   1.00
                  0.125000D+01           1.0000000
            ****
            -C     0
            S   7   1.00
                  0.731999D+04           0.695369D-03
                  0.109818D+04           0.537138D-02
                  0.250014D+03           0.274734D-01
                  0.707586D+02           0.105078D+00
                  0.228595D+02           0.291262D+00
                  0.803936D+01           0.500000D+00
                  0.289309D+01           0.362224D+00
            S   2   1.00
                  0.521640D+01          -0.957844D-01
                  0.556124D+00           0.500000D+00
            S   1   1.00
                  0.228813D+00           1.0000000
            S   1   1.00
                  0.936338D-01           1.0000000
            P   4   1.00
                  0.339855D+02           0.818395D-02
                  0.772957D+01           0.586921D-01
                  0.224954D+01           0.222514D+00
                  0.767681D+00           0.500000D+00
            P   1   1.00
                  0.263283D+00           1.0000000
            P   1   1.00
                  0.848744D-01           1.0000000
            D   1   1.00
                  0.140000D+01           1.0000000
            D   1   1.00
                  0.450000D+00           1.0000000
            F   1   1.00
                  0.950000D+00           1.0000000
            ****
            -O     0
            S   7   1.00
                  0.135887D+05           0.665492D-03
                  0.203847D+04           0.514222D-02
                  0.464041D+03           0.263472D-01
                  0.131339D+03           0.101500D+00
                  0.425340D+02           0.285877D+00
                  0.150429D+02           0.500000D+00
                  0.546616D+01           0.368211D+00
            S   2   1.00
                  0.100915D+02          -0.100084D+00
                  0.110429D+01           0.500000D+00
            S   1   1.00
                  0.448082D+00           1.0000000
            S   1   1.00
                  0.175325D+00           1.0000000
            P   4   1.00
                  0.608220D+02           0.908253D-02
                  0.140332D+02           0.645878D-01
                  0.418244D+01           0.241502D+00
                  0.142490D+01           0.500000D+00
            P   1   1.00
                  0.478741D+00           1.0000000
            P   1   1.00
                  0.146257D+00           1.0000000
            D   1   1.00
                  0.220000D+01           1.0000000
            D   1   1.00
                  0.650000D+00           1.0000000
            F   1   1.00
                  0.110000D+01           1.0000000
            ****
            -N     0
            S   7   1.00
                  0.101643D+05           0.682757D-03
                  0.152481D+04           0.527488D-02
                  0.347119D+03           0.270037D-01
                  0.982389D+02           0.103673D+00
                  0.317799D+02           0.289575D+00
                  0.112240D+02           0.500000D+00
                  0.406611D+01           0.364621D+00
            S   2   1.00
                  0.747898D+01          -0.975681D-01
                  0.805040D+00           0.500000D+00
            S   1   1.00
                  0.324626D+00           1.0000000
            S   1   1.00
                  0.128132D+00           1.0000000
            P   4   1.00
                  0.482704D+02           0.829547D-02
                  0.110815D+02           0.596223D-01
                  0.326643D+01           0.227889D+00
                  0.111680D+01           0.500000D+00
            P   1   1.00
                  0.382049D+00           1.0000000
            P   1   1.00
                  0.121222D+00           1.0000000
            D   1   1.00
                  0.180000D+01           1.0000000
            D   1   1.00
                  0.550000D+00           1.0000000
            F   1   1.00
                  0.102000D+01           1.0000000
            ****
            -F     0
            S   7   1.00
                  0.174507D+05           0.655972D-03
                  0.261768D+04           0.506944D-02
                  0.595857D+03           0.259899D-01
                  0.168651D+03           0.100353D+00
                  0.546654D+02           0.284095D+00
                  0.193717D+02           0.500000D+00
                  0.706202D+01           0.370721D+00
            S   2   1.00
                  0.131197D+02          -0.101997D+00
                  0.145046D+01           0.500000D+00
            S   1   1.00
                  0.588255D+00           1.0000000
            S   1   1.00
                  0.227960D+00           1.0000000
            P   4   1.00
                  0.779407D+02           0.931135D-02
                  0.180425D+02           0.663964D-01
                  0.542342D+01           0.246386D+00
                  0.184876D+01           0.500000D+00
            P   1   1.00
                  0.617455D+00           1.0000000
            P   1   1.00
                  0.185496D+00           1.0000000
            D   1   1.00
                  0.280000D+01           1.0000000
            D   1   1.00
                  0.800000D+00           1.0000000
            F   1   1.00
                  0.120000D+01           1.0000000
            ****
            -Cl     0
            S   8   1.00
                  0.154272D+06           0.222473D-03
                  0.231232D+05           0.172590D-02
                  0.526257D+04           0.899286D-02
                  0.148995D+04           0.367724D-01
                  0.485417D+03           0.121446D+00
                  0.174634D+03           0.304148D+00
                  0.672393D+02           0.500000D+00
                  0.265780D+02           0.360252D+00
            S   3   1.00
                  0.131826D+03          -0.531330D-01
                  0.400703D+02          -0.233346D+00
                  0.789448D+01           0.500000D+00
            S   2   1.00
                  0.427711D+01           0.500000D+00
                  0.196233D+01           0.370517D+00
            S   1   1.00
                  0.520793D+00           1.0000000
            S   1   1.00
                  0.181633D+00           1.0000000
            P   7   1.00
                  0.124440D+04           0.988206D-03
                  0.295109D+03           0.829674D-02
                  0.947224D+02           0.430906D-01
                  0.352588D+02           0.148443D+00
                  0.144211D+02           0.344744D+00
                  0.610371D+01           0.500000D+00
                  0.258886D+01           0.348278D+00
            P   2   1.00
                  0.109447D+02          -0.196768D-01
                  0.104413D+01           0.500000D+00
            P   1   1.00
                  0.376184D+00           1.0000000
            P   1   1.00
                  0.120613D+00           1.0000000
            D   1   1.00
                  0.231000D+01           1.0000000
            D   1   1.00
                  0.520000D+00           1.0000000
            F   1   1.00
                  0.720000D+00           1.0000000
            ****
            -S     0
            S   8   1.00
                  0.134700D+06           0.226231D-03
                  0.201904D+05           0.175488D-02
                  0.459528D+04           0.914190D-02
                  0.130109D+04           0.373551D-01
                  0.423902D+03           0.123121D+00
                  0.152485D+03           0.306801D+00
                  0.586925D+02           0.500000D+00
                  0.231461D+02           0.354358D+00
            S   3   1.00
                  0.116327D+03          -0.491772D-01
                  0.352841D+02          -0.215962D+00
                  0.677831D+01           0.500000D+00
            S   2   1.00
                  0.360404D+01           0.500000D+00
                  0.164871D+01           0.366278D+00
            S   1   1.00
                  0.421821D+00           1.0000000
            S   1   1.00
                  0.147554D+00           1.0000000
            P   7   1.00
                  0.104863D+04           0.105273D-02
                  0.248717D+03           0.879338D-02
                  0.797887D+02           0.453358D-01
                  0.296023D+02           0.154476D+00
                  0.120627D+02           0.352366D+00
                  0.507628D+01           0.500000D+00
                  0.213375D+01           0.346429D+00
            P   2   1.00
                  0.928958D+01          -0.185932D-01
                  0.837819D+00           0.500000D+00
            P   1   1.00
                  0.301495D+00           1.0000000
            P   1   1.00
                  0.974740D-01           1.0000000
            D   1   1.00
                  0.210000D+01           1.0000000
            D   1   1.00
                  0.480000D+00           1.0000000
            F   1   1.00
                  0.660000D+00           1.0000000
            ****
            -Br     0
            S    10   1.00
                  0.233625D+07           0.532336D-04
                  0.349961D+06           0.413715D-03
                  0.796444D+05           0.217123D-02
                  0.225555D+05           0.910109D-02
                  0.735546D+04           0.323789D-01
                  0.265352D+04           0.988755D-01
                  0.103517D+04           0.248138D+00
                  0.422205D+03           0.474328D+00
                  0.180035D+03           0.500000D+00
                  0.793308D+02           0.187769D+00
            S    4   1.00
                  0.620834D+03          -0.226511D-01
                  0.190829D+03          -0.109497D+00
                  0.312505D+02           0.500000D+00
                  0.135270D+02           0.492812D+00
            S    2   1.00
                  0.216097D+02          -0.165418D+00
                  0.372566D+01           0.500000D+00
            S    1   1.00
                  0.169770D+01           1.0000000
            S    1   1.00
                  0.489332D+00           1.0000000
            S    1   1.00
                  0.175712D+00           1.0000000
            P    8   1.00
                  0.960829D+04           0.478974D-03
                  0.227618D+04           0.417853D-02
                  0.736723D+03           0.229315D-01
                  0.281579D+03           0.892653D-01
                  0.118395D+03           0.255288D+00
                  0.527481D+02           0.479074D+00
                  0.245098D+02           0.500000D+00
                  0.112009D+02           0.200944D+00
            P    4   1.00
                  0.587849D+02          -0.189674D-01
                  0.918962D+01           0.264104D+00
                  0.413895D+01           0.500000D+00
                  0.184225D+01           0.319316D+00
            P    1   1.00
                  0.713862D+00           1.0000000
            P    1   1.00
                  0.274232D+00           1.0000000
            P    1   1.00
                  0.944411D-01           1.0000000
            D    7   1.00
                  0.398470D+03           0.204066D-02
                  0.118967D+03           0.175171D-01
                  0.450197D+02           0.829708D-01
                  0.190320D+02           0.236284D+00
                  0.855686D+01           0.428468D+00
                  0.382950D+01           0.500000D+00
                  0.166291D+01           0.349360D+00
            D    1   1.00
                  0.672953D+00           1.0000000
            D    1   1.00
                  0.252000D+00           1.0000000
            F    1   1.00
                  0.530000D+00           1.0000000
            ****
            -Si     0
            S    8   1.00
                  0.996133D+05           0.235546D-03
                  0.149311D+05           0.182707D-02
                  0.339820D+04           0.951425D-02
                  0.962140D+03           0.388172D-01
                  0.313430D+03           0.127328D+00
                  0.112683D+03           0.313522D+00
                  0.433372D+02           0.500000D+00
                  0.170029D+02           0.340347D+00
            S    3   1.00
                  0.884208D+02          -0.404451D-01
                  0.266756D+02          -0.178059D+00
                  0.479640D+01           0.500000D+00
            S    2   1.00
                  0.239385D+01           0.500000D+00
                  0.108333D+01           0.338016D+00
            S    1   1.00
                  0.252420D+00           1.0000000
            S    1   1.00
                  0.891210D-01           1.0000000
            P    7   1.00
                  0.709901D+03           0.123028D-02
                  0.168426D+03           0.101366D-01
                  0.539946D+02           0.511840D-01
                  0.198646D+02           0.169967D+00
                  0.801369D+01           0.370717D+00
                  0.331870D+01           0.500000D+00
                  0.136112D+01           0.344128D+00
            P    2   1.00
                  0.622158D+01          -0.166609D-01
                  0.503049D+00           0.500000D+00
            P    1   1.00
                  0.179848D+00           1.0000000
            P    1   1.00
                  0.591912D-01           1.0000000
            D    1   1.00
                  0.168000D+01           1.0000000
            D    1   1.00
                  0.380000D+00           1.0000000
            F    1   1.00
                  0.540000D+00           1.0000000
            ****
            -P     0
            S    8   1.00
                  0.116416D+06           0.230715D-03
                  0.174500D+05           0.178960D-02
                  0.397149D+04           0.932116D-02
                  0.112447D+04           0.380591D-01
                  0.366347D+03           0.125148D+00
                  0.131757D+03           0.310022D+00
                  0.506988D+02           0.500000D+00
                  0.199436D+02           0.347528D+00
            S    3   1.00
                  0.101878D+03          -0.446755D-01
                  0.308249D+02          -0.196376D+00
                  0.573688D+01           0.500000D+00
            S    2   1.00
                  0.296868D+01           0.500000D+00
                  0.135315D+01           0.355098D+00
            S    1   1.00
                  0.332196D+00           1.0000000
            S    1   1.00
                  0.116229D+00           1.0000000
            P    7   1.00
                  0.873928D+03           0.112375D-02
                  0.207298D+03           0.933330D-02
                  0.664628D+02           0.477213D-01
                  0.245665D+02           0.160733D+00
                  0.996820D+01           0.359760D+00
                  0.416536D+01           0.500000D+00
                  0.173022D+01           0.346593D+00
            P    2   1.00
                  0.772530D+01          -0.175718D-01
                  0.657252D+00           0.500000D+00
            P    1   1.00
                  0.239903D+00           1.0000000
            P    1   1.00
                  0.800988D-01           1.0000000
            D    1   1.00
                  0.189000D+01           1.0000000
            D    1   1.00
                  0.430000D+00           1.0000000
            F    1   1.00
                  0.600000D+00           1.0000000
            ****
            
 Initial command:
 /usr/local/apps/g16_b01_avx/g16/l1.exe "/wrk/irikura/Gau-21396.inp" -scrdir="/wrk/irikura/"
 Entering Link 1 = /usr/local/apps/g16_b01_avx/g16/l1.exe PID=     21398.
  
 Copyright (c) 1988-2017, Gaussian, Inc.  All Rights Reserved.
  
 This is part of the Gaussian(R) 16 program.  It is based on
 the Gaussian(R) 09 system (copyright 2009, Gaussian, Inc.),
 the Gaussian(R) 03 system (copyright 2003, Gaussian, Inc.),
 the Gaussian(R) 98 system (copyright 1998, Gaussian, Inc.),
 the Gaussian(R) 94 system (copyright 1995, Gaussian, Inc.),
 the Gaussian 92(TM) system (copyright 1992, Gaussian, Inc.),
 the Gaussian 90(TM) system (copyright 1990, Gaussian, Inc.),
 the Gaussian 88(TM) system (copyright 1988, Gaussian, Inc.),
 the Gaussian 86(TM) system (copyright 1986, Carnegie Mellon
 University), and the Gaussian 82(TM) system (copyright 1983,
 Carnegie Mellon University). Gaussian is a federally registered
 trademark of Gaussian, Inc.
  
 This software contains proprietary and confidential information,
 including trade secrets, belonging to Gaussian, Inc.
  
 This software is provided under written license and may be
 used, copied, transmitted, or stored only in accord with that
 written license.
  
 The following legend is applicable only to US Government
 contracts under FAR:
  
                    RESTRICTED RIGHTS LEGEND
  
 Use, reproduction and disclosure by the US Government is
 subject to restrictions as set forth in subparagraphs (a)
 and (c) of the Commercial Computer Software - Restricted
 Rights clause in FAR 52.227-19.
  
 Gaussian, Inc.
 340 Quinnipiac St., Bldg. 40, Wallingford CT 06492
  
  
 ---------------------------------------------------------------
 Warning -- This program may not be used in any manner that
 competes with the business of Gaussian, Inc. or will provide
 assistance to any competitor of Gaussian, Inc.  The licensee
 of this program is prohibited from giving any competitor of
 Gaussian, Inc. access to this program.  By using this program,
 the user acknowledges that Gaussian, Inc. is engaged in the
 business of creating and licensing software in the field of
 computational chemistry and represents and warrants to the
 licensee that it is not a competitor of Gaussian, Inc. and that
 it will not use this program in any manner prohibited above.
 ---------------------------------------------------------------
  

 Cite this work as:
 Gaussian 16, Revision B.01,
 M. J. Frisch, G. W. Trucks, H. B. Schlegel, G. E. Scuseria, 
 M. A. Robb, J. R. Cheeseman, G. Scalmani, V. Barone, 
 G. A. Petersson, H. Nakatsuji, X. Li, M. Caricato, A. V. Marenich, 
 J. Bloino, B. G. Janesko, R. Gomperts, B. Mennucci, H. P. Hratchian, 
 J. V. Ortiz, A. F. Izmaylov, J. L. Sonnenberg, D. Williams-Young, 
 F. Ding, F. Lipparini, F. Egidi, J. Goings, B. Peng, A. Petrone, 
 T. Henderson, D. Ranasinghe, V. G. Zakrzewski, J. Gao, N. Rega, 
 G. Zheng, W. Liang, M. Hada, M. Ehara, K. Toyota, R. Fukuda, 
 J. Hasegawa, M. Ishida, T. Nakajima, Y. Honda, O. Kitao, H. Nakai, 
 T. Vreven, K. Throssell, J. A. Montgomery, Jr., J. E. Peralta, 
 F. Ogliaro, M. J. Bearpark, J. J. Heyd, E. N. Brothers, K. N. Kudin, 
 V. N. Staroverov, T. A. Keith, R. Kobayashi, J. Normand, 
 K. Raghavachari, A. P. Rendell, J. C. Burant, S. S. Iyengar, 
 J. Tomasi, M. Cossi, J. M. Millam, M. Klene, C. Adamo, R. Cammi, 
 J. W. Ochterski, R. L. Martin, K. Morokuma, O. Farkas, 
 J. B. Foresman, and D. J. Fox, Gaussian, Inc., Wallingford CT, 2016.
 
 ******************************************
 Gaussian 16:  ES64L-G16RevB.01 20-Dec-2017
                16-Jun-2022 
 ******************************************
 %mem=1000mw
 %nprocs=12
 Will use up to   12 processors via shared memory.
 --------------------
 # b3lyp/gen opt freq
 --------------------
 1/18=20,19=15,26=3,38=1/1,3;
 2/9=110,12=2,17=6,18=5,40=1/2;
 3/5=7,11=2,25=1,30=1,71=1,74=-5/1,2,3;
 4//1;
 5/5=2,38=5/2;
 6/7=2,8=2,9=2,10=2,28=1/1;
 7//1,2,3,16;
 1/18=20,19=15,26=3/3(2);
 2/9=110/2;
 99//99;
 2/9=110/2;
 3/5=7,6=1,11=2,25=1,30=1,71=1,74=-5,82=7/1,2,3;
 4/5=5,16=3,69=1/1;
 5/5=2,38=5/2;
 7//1,2,3,16;
 1/18=20,19=15,26=3/3(-5);
 2/9=110/2;
 6/7=2,8=2,9=2,10=2,19=2,28=1/1;
 99/9=1/99;
 ---------------------
 tropyl, B3LYP/pcseg-2
 ---------------------
 Symbolic Z-matrix:
 Charge =  0 Multiplicity = 2
 C                     0.        0.        1.62514 
 C                     0.        1.26242   0.9943 
 C                     0.       -1.26242   0.9943 
 C                     0.        1.58589  -0.34236 
 C                     0.       -1.58589  -0.34236 
 C                     0.        0.67984  -1.46457 
 C                     0.       -0.67984  -1.46457 
 H                     0.        0.        2.70987 
 H                     0.        2.1181    1.66805 
 H                     0.       -2.1181    1.66805 
 H                     0.        2.64696  -0.57162 
 H                     0.       -2.64696  -0.57162 
 H                     0.        1.13764  -2.45102 
 H                     0.       -1.13764  -2.45102 
 

 GradGradGradGradGradGradGradGradGradGradGradGradGradGradGradGradGradGrad
 Berny optimization.
 Initialization pass.
                           ----------------------------
                           !    Initial Parameters    !
                           ! (Angstroms and Degrees)  !
 --------------------------                            --------------------------
 ! Name  Definition              Value          Derivative Info.                !
 --------------------------------------------------------------------------------
 ! R1    R(1,2)                  1.4113         estimate D2E/DX2                !
 ! R2    R(1,3)                  1.4113         estimate D2E/DX2                !
 ! R3    R(1,8)                  1.0847         estimate D2E/DX2                !
 ! R4    R(2,4)                  1.3752         estimate D2E/DX2                !
 ! R5    R(2,9)                  1.0891         estimate D2E/DX2                !
 ! R6    R(3,5)                  1.3752         estimate D2E/DX2                !
 ! R7    R(3,10)                 1.0891         estimate D2E/DX2                !
 ! R8    R(4,6)                  1.4423         estimate D2E/DX2                !
 ! R9    R(4,11)                 1.0856         estimate D2E/DX2                !
 ! R10   R(5,7)                  1.4423         estimate D2E/DX2                !
 ! R11   R(5,12)                 1.0856         estimate D2E/DX2                !
 ! R12   R(6,7)                  1.3597         estimate D2E/DX2                !
 ! R13   R(6,13)                 1.0875         estimate D2E/DX2                !
 ! R14   R(7,14)                 1.0875         estimate D2E/DX2                !
 ! A1    A(2,1,3)              126.8973         estimate D2E/DX2                !
 ! A2    A(2,1,8)              116.5514         estimate D2E/DX2                !
 ! A3    A(3,1,8)              116.5514         estimate D2E/DX2                !
 ! A4    A(1,2,4)              130.1553         estimate D2E/DX2                !
 ! A5    A(1,2,9)              115.2324         estimate D2E/DX2                !
 ! A6    A(4,2,9)              114.6123         estimate D2E/DX2                !
 ! A7    A(1,3,5)              130.1553         estimate D2E/DX2                !
 ! A8    A(1,3,10)             115.2324         estimate D2E/DX2                !
 ! A9    A(5,3,10)             114.6123         estimate D2E/DX2                !
 ! A10   A(2,4,6)              127.4791         estimate D2E/DX2                !
 ! A11   A(2,4,11)             115.7962         estimate D2E/DX2                !
 ! A12   A(6,4,11)             116.7247         estimate D2E/DX2                !
 ! A13   A(3,5,7)              127.4791         estimate D2E/DX2                !
 ! A14   A(3,5,12)             115.7962         estimate D2E/DX2                !
 ! A15   A(7,5,12)             116.7247         estimate D2E/DX2                !
 ! A16   A(4,6,7)              128.917          estimate D2E/DX2                !
 ! A17   A(4,6,13)             116.1873         estimate D2E/DX2                !
 ! A18   A(7,6,13)             114.8957         estimate D2E/DX2                !
 ! A19   A(5,7,6)              128.917          estimate D2E/DX2                !
 ! A20   A(5,7,14)             116.1873         estimate D2E/DX2                !
 ! A21   A(6,7,14)             114.8957         estimate D2E/DX2                !
 ! D1    D(3,1,2,4)              0.0            estimate D2E/DX2                !
 ! D2    D(3,1,2,9)            180.0            estimate D2E/DX2                !
 ! D3    D(8,1,2,4)            180.0            estimate D2E/DX2                !
 ! D4    D(8,1,2,9)              0.0            estimate D2E/DX2                !
 ! D5    D(2,1,3,5)              0.0            estimate D2E/DX2                !
 ! D6    D(2,1,3,10)           180.0            estimate D2E/DX2                !
 ! D7    D(8,1,3,5)            180.0            estimate D2E/DX2                !
 ! D8    D(8,1,3,10)             0.0            estimate D2E/DX2                !
 ! D9    D(1,2,4,6)              0.0            estimate D2E/DX2                !
 ! D10   D(1,2,4,11)           180.0            estimate D2E/DX2                !
 ! D11   D(9,2,4,6)            180.0            estimate D2E/DX2                !
 ! D12   D(9,2,4,11)             0.0            estimate D2E/DX2                !
 ! D13   D(1,3,5,7)              0.0            estimate D2E/DX2                !
 ! D14   D(1,3,5,12)           180.0            estimate D2E/DX2                !
 ! D15   D(10,3,5,7)           180.0            estimate D2E/DX2                !
 ! D16   D(10,3,5,12)            0.0            estimate D2E/DX2                !
 ! D17   D(2,4,6,7)              0.0            estimate D2E/DX2                !
 ! D18   D(2,4,6,13)           180.0            estimate D2E/DX2                !
 ! D19   D(11,4,6,7)           180.0            estimate D2E/DX2                !
 ! D20   D(11,4,6,13)            0.0            estimate D2E/DX2                !
 ! D21   D(3,5,7,6)              0.0            estimate D2E/DX2                !
 ! D22   D(3,5,7,14)           180.0            estimate D2E/DX2                !
 ! D23   D(12,5,7,6)           180.0            estimate D2E/DX2                !
 ! D24   D(12,5,7,14)            0.0            estimate D2E/DX2                !
 ! D25   D(4,6,7,5)              0.0            estimate D2E/DX2                !
 ! D26   D(4,6,7,14)           180.0            estimate D2E/DX2                !
 ! D27   D(13,6,7,5)           180.0            estimate D2E/DX2                !
 ! D28   D(13,6,7,14)            0.0            estimate D2E/DX2                !
 --------------------------------------------------------------------------------
 Trust Radius=3.00D-01 FncErr=1.00D-07 GrdErr=1.00D-06 EigMax=2.50D+02 EigMin=1.00D-04
 Number of steps in this run=     73 maximum allowed number of steps=    100.
 GradGradGradGradGradGradGradGradGradGradGradGradGradGradGradGradGradGrad

                          Input orientation:                          
 ---------------------------------------------------------------------
 Center     Atomic      Atomic             Coordinates (Angstroms)
 Number     Number       Type             X           Y           Z
 ---------------------------------------------------------------------
      1          6           0        0.000000    0.000000    1.625138
      2          6           0        0.000000    1.262422    0.994304
      3          6           0        0.000000   -1.262422    0.994304
      4          6           0        0.000000    1.585893   -0.342361
      5          6           0        0.000000   -1.585893   -0.342361
      6          6           0        0.000000    0.679836   -1.464570
      7          6           0        0.000000   -0.679836   -1.464570
      8          1           0        0.000000    0.000000    2.709874
      9          1           0        0.000000    2.118099    1.668048
     10          1           0        0.000000   -2.118099    1.668048
     11          1           0        0.000000    2.646959   -0.571622
     12          1           0        0.000000   -2.646959   -0.571622
     13          1           0        0.000000    1.137640   -2.451016
     14          1           0        0.000000   -1.137640   -2.451016
 ---------------------------------------------------------------------
                    Distance matrix (angstroms):
                    1          2          3          4          5
     1  C    0.000000
     2  C    1.411262   0.000000
     3  C    1.411262   2.524844   0.000000
     4  C    2.527075   1.375248   3.146358   0.000000
     5  C    2.527075   3.146358   1.375248   3.171786   0.000000
     6  C    3.163617   2.526948   3.133437   1.442322   2.528415
     7  C    3.163617   3.133437   2.526948   2.528415   1.442322
     8  H    1.084736   2.129998   2.129998   3.439650   3.439650
     9  H    2.118534   1.089089   3.447006   2.079660   4.214416
    10  H    2.118534   3.447006   1.089089   4.214416   2.079660
    11  H    3.439789   2.090231   4.211340   1.085551   4.239056
    12  H    3.439789   4.211340   2.090231   4.239056   1.085551
    13  H    4.231933   3.447579   4.198872   2.155773   3.444424
    14  H    4.231933   4.198872   3.447579   3.444424   2.155773
                    6          7          8          9         10
     6  C    0.000000
     7  C    1.359672   0.000000
     8  H    4.229440   4.229440   0.000000
     9  H    3.447013   4.200207   2.360454   0.000000
    10  H    4.200207   3.447013   2.360454   4.236198   0.000000
    11  H    2.160308   3.444549   4.215994   2.301264   5.265159
    12  H    3.444549   2.160308   4.215994   5.265159   2.301264
    13  H    1.087502   2.067920   5.284790   4.234145   5.250383
    14  H    2.067920   1.087502   5.284790   5.250383   4.234145
                   11         12         13         14
    11  H    0.000000
    12  H    5.293918   0.000000
    13  H    2.410429   4.225555   0.000000
    14  H    4.225555   2.410429   2.275280   0.000000
 Stoichiometry    C7H7(2)
 Framework group  C2V[C2(CH),SGV(C6H6)]
 Deg. of freedom    13
 Full point group                 C2V     NOp   4
 Largest Abelian subgroup         C2V     NOp   4
 Largest concise Abelian subgroup C2      NOp   2
                         Standard orientation:                         
 ---------------------------------------------------------------------
 Center     Atomic      Atomic             Coordinates (Angstroms)
 Number     Number       Type             X           Y           Z
 ---------------------------------------------------------------------
      1          6           0        0.000000    0.000000    1.625138
      2          6           0        0.000000    1.262422    0.994304
      3          6           0       -0.000000   -1.262422    0.994304
      4          6           0        0.000000    1.585893   -0.342361
      5          6           0       -0.000000   -1.585893   -0.342361
      6          6           0        0.000000    0.679836   -1.464570
      7          6           0       -0.000000   -0.679836   -1.464570
      8          1           0        0.000000    0.000000    2.709874
      9          1           0        0.000000    2.118099    1.668048
     10          1           0       -0.000000   -2.118099    1.668048
     11          1           0        0.000000    2.646959   -0.571622
     12          1           0       -0.000000   -2.646959   -0.571622
     13          1           0        0.000000    1.137640   -2.451016
     14          1           0       -0.000000   -1.137640   -2.451016
 ---------------------------------------------------------------------
 Rotational constants (GHZ):           3.7303768           3.7300297           1.8651016
 General basis read from cards:  (5D, 7F)
 There are   129 symmetry adapted cartesian basis functions of A1  symmetry.
 There are    49 symmetry adapted cartesian basis functions of A2  symmetry.
 There are    56 symmetry adapted cartesian basis functions of B1  symmetry.
 There are   116 symmetry adapted cartesian basis functions of B2  symmetry.
 There are   110 symmetry adapted basis functions of A1  symmetry.
 There are    46 symmetry adapted basis functions of A2  symmetry.
 There are    52 symmetry adapted basis functions of B1  symmetry.
 There are   100 symmetry adapted basis functions of B2  symmetry.
   308 basis functions,   483 primitive gaussians,   350 cartesian basis functions
    25 alpha electrons       24 beta electrons
       nuclear repulsion energy       258.2932496670 Hartrees.
 NAtoms=   14 NActive=   14 NUniq=    8 SFac= 3.06D+00 NAtFMM=   60 NAOKFM=F Big=F
 Integral buffers will be    131072 words long.
 Raffenetti 2 integral format.
 Two-electron integral symmetry is turned on.
 One-electron integrals computed using PRISM.
 NBasis=   308 RedAO= T EigKep=  5.09D-05  NBF=   110    46    52   100
 NBsUse=   308 1.00D-06 EigRej= -1.00D+00 NBFU=   110    46    52   100
 ExpMin= 7.42D-02 ExpMax= 7.32D+03 ExpMxC= 2.50D+02 IAcc=3 IRadAn=         5 AccDes= 0.00D+00
 Harris functional with IExCor=  402 and IRadAn=       5 diagonalized for initial guess.
 HarFok:  IExCor=  402 AccDes= 0.00D+00 IRadAn=         5 IDoV= 1 UseB2=F ITyADJ=14
 ICtDFT=  3500011 ScaDFX=  1.000000  1.000000  1.000000  1.000000
 FoFCou: FMM=F IPFlag=           0 FMFlag=      100000 FMFlg1=           0
         NFxFlg=           0 DoJE=T BraDBF=F KetDBF=T FulRan=T
         wScrn=  0.000000 ICntrl=       500 IOpCl=  0 I1Cent=   200000004 NGrid=           0
         NMat0=    1 NMatS0=      1 NMatT0=    0 NMatD0=    1 NMtDS0=    0 NMtDT0=    0
 Petite list used in FoFCou.
 Initial guess orbital symmetries:
 Alpha Orbitals:
       Occupied  (A1) (B2) (A1) (B2) (B2) (A1) (A1) (A1) (A1) (B2)
                 (A1) (B2) (B2) (A1) (A1) (A1) (B2) (B2) (A1) (A1)
                 (B1) (B2) (B1) (A2) (B1)
       Virtual   (A2) (A1) (A2) (B1) (A1) (B2) (A1) (B2) (B2) (A1)
                 (A1) (A1) (B2) (B1) (A1) (B2) (A1) (B2) (A2) (B1)
                 (A1) (B2) (A1) (B1) (A2) (B2) (A1) (A1) (B2) (A1)
                 (B2) (A1) (B2) (B1) (A2) (A1) (B2) (A1) (A1) (B2)
                 (B2) (B2) (A1) (B2) (A1) (B1) (B2) (A1) (B2) (A1)
                 (B2) (A1) (B2) (B1) (A2) (A2) (B1) (A1) (B1) (A2)
                 (B2) (A1) (A1) (A1) (B2) (A1) (B2) (A1) (B1) (A2)
                 (A1) (B2) (B1) (A1) (B2) (A2) (B1) (B2) (B1) (A2)
                 (A1) (B2) (B1) (A1) (B2) (B1) (A2) (A1) (B2) (B1)
                 (A2) (B1) (A1) (A2) (B2) (B2) (A1) (A2) (B1) (A1)
                 (B2) (A1) (A1) (B2) (B1) (A2) (B2) (A1) (A1) (B2)
                 (A1) (A1) (B2) (B2) (A1) (B2) (A2) (B1) (A1) (B2)
                 (A1) (A2) (B2) (A1) (A1) (B2) (B2) (A1) (B2) (A1)
                 (B2) (A1) (B2) (A1) (B2) (A1) (B2) (B1) (A2) (B1)
                 (B2) (A1) (B1) (A2) (B1) (A2) (A1) (A1) (B1) (B2)
                 (B2) (A1) (B1) (A2) (B1) (A2) (A1) (B2) (A1) (B2)
                 (A1) (A1) (B2) (B2) (A1) (A2) (B1) (A1) (B2) (A1)
                 (B2) (B2) (A2) (A1) (B1) (A2) (B1) (A1) (B2) (A1)
                 (A2) (B1) (B2) (A1) (B1) (B1) (A2) (A2) (A1) (B2)
                 (A1) (B2) (B2) (A1) (A2) (B1) (A1) (A2) (B1) (B2)
                 (A1) (A1) (B1) (B2) (B2) (A2) (B1) (A2) (B1) (A2)
                 (B1) (B1) (A2) (A1) (B2) (B1) (A2) (B1) (A2) (B1)
                 (B2) (A1) (B2) (A1) (A2) (B2) (A2) (B2) (B1) (A2)
                 (A1) (B2) (A1) (A1) (B2) (A1) (B2) (A1) (B2) (A2)
                 (B1) (B2) (A1) (B2) (B1) (A1) (A2) (A1) (B1) (A2)
                 (B2) (A1) (B2) (A1) (B2) (B1) (A1) (A2) (B2) (A1)
                 (B2) (A1) (A1) (A2) (B1) (A1) (B2) (B2) (A1) (B2)
                 (A1) (B2) (B2) (A1) (B2) (A1) (A1) (B2) (B2) (A1)
                 (B2) (A1) (B2)
 Beta  Orbitals:
       Occupied  (A1) (B2) (A1) (B2) (B2) (A1) (A1) (A1) (A1) (B2)
                 (A1) (B2) (B2) (A1) (A1) (A1) (B2) (B2) (A1) (A1)
                 (B1) (B2) (B1) (A2)
       Virtual   (B1) (A2) (A1) (A2) (B1) (A1) (B2) (A1) (B2) (B2)
                 (A1) (A1) (A1) (B2) (B1) (A1) (B2) (A1) (B2) (A2)
                 (B1) (A1) (B2) (A1) (B1) (A2) (B2) (A1) (A1) (B2)
                 (A1) (B2) (A1) (B2) (B1) (A2) (A1) (B2) (A1) (A1)
                 (B2) (B2) (B2) (A1) (B2) (A1) (B1) (B2) (A1) (B2)
                 (A1) (B2) (A1) (B2) (B1) (A2) (A2) (B1) (A1) (B1)
                 (A2) (B2) (A1) (A1) (A1) (B2) (A1) (B2) (A1) (B1)
                 (A2) (A1) (B2) (B1) (A1) (B2) (A2) (B1) (B2) (B1)
                 (A2) (A1) (B2) (B1) (A1) (B2) (B1) (A2) (A1) (B2)
                 (B1) (A2) (B1) (A1) (A2) (B2) (B2) (A1) (A2) (B1)
                 (A1) (B2) (A1) (A1) (B2) (B1) (A2) (B2) (A1) (A1)
                 (B2) (A1) (A1) (B2) (B2) (A1) (B2) (A2) (B1) (A1)
                 (B2) (A1) (A2) (B2) (A1) (A1) (B2) (B2) (A1) (B2)
                 (A1) (B2) (A1) (B2) (A1) (B2) (A1) (B2) (B1) (A2)
                 (B1) (B2) (A1) (B1) (A2) (B1) (A2) (A1) (A1) (B1)
                 (B2) (B2) (A1) (B1) (A2) (B1) (A2) (A1) (B2) (A1)
                 (B2) (A1) (A1) (B2) (B2) (A1) (A2) (B1) (A1) (B2)
                 (A1) (B2) (B2) (A2) (A1) (B1) (A2) (B1) (A1) (B2)
                 (A1) (A2) (B1) (B2) (A1) (B1) (B1) (A2) (A2) (A1)
                 (B2) (A1) (B2) (B2) (A1) (A2) (B1) (A1) (A2) (B1)
                 (B2) (A1) (A1) (B1) (B2) (B2) (A2) (B1) (A2) (B1)
                 (A2) (B1) (B1) (A2) (A1) (B2) (B1) (A2) (B1) (A2)
                 (B1) (B2) (A1) (B2) (A1) (A2) (B2) (A2) (B2) (B1)
                 (A2) (A1) (B2) (A1) (A1) (B2) (A1) (B2) (A1) (B2)
                 (A2) (B1) (B2) (A1) (B2) (B1) (A1) (A2) (A1) (B1)
                 (A2) (B2) (A1) (B2) (A1) (B2) (B1) (A1) (A2) (B2)
                 (A1) (B2) (A1) (A1) (A2) (B1) (A1) (B2) (B2) (A1)
                 (B2) (A1) (B2) (B2) (A1) (B2) (A1) (A1) (B2) (B2)
                 (A1) (B2) (A1) (B2)
 The electronic state of the initial guess is 2-B1.
 Initial guess <Sx>= 0.0000 <Sy>= 0.0000 <Sz>= 0.5000 <S**2>= 0.7500 S= 0.5000
 Requested convergence on RMS density matrix=1.00D-08 within 128 cycles.
 Requested convergence on MAX density matrix=1.00D-06.
 Requested convergence on             energy=1.00D-06.
 No special actions if energy rises.
 Integral accuracy reduced to 1.0D-05 until final iterations.
 Initial convergence to 1.0D-05 achieved.  Increase integral accuracy.
 SCF Done:  E(UB3LYP) =  -270.993686928     A.U. after   15 cycles
            NFock= 15  Conv=0.84D-08     -V/T= 2.0042
 <Sx>= 0.0000 <Sy>= 0.0000 <Sz>= 0.5000 <S**2>= 0.7714 S= 0.5106
 <L.S>=  0.00000000000    
 Annihilation of the first spin contaminant:
 S**2 before annihilation     0.7714,   after     0.7503

 **********************************************************************

            Population analysis using the SCF Density.

 **********************************************************************

 Orbital symmetries:
 Alpha Orbitals:
       Occupied  (A1) (B2) (A1) (B2) (A1) (B2) (A1) (A1) (A1) (B2)
                 (A1) (B2) (A1) (B2) (A1) (A1) (B2) (B2) (A1) (B1)
                 (A1) (B2) (B1) (A2) (B1)
       Virtual   (A2) (A1) (A1) (B2) (A1) (B2) (A2) (B1) (B2) (A1)
                 (A1) (B1) (A1) (B2) (A2) (B1) (A1) (B2) (A1) (B2)
                 (A1) (B1) (A2) (A1) (B2) (A1) (B2) (A1) (A1) (A2)
                 (B1) (B2) (B2) (A1) (B2) (A1) (B2) (A1) (A1) (B2)
                 (B2) (B2) (A1) (B2) (A1) (B1) (A1) (B2) (A1) (B2)
                 (A1) (B2) (B2) (B1) (A2) (A2) (B1) (B1) (A2) (A1)
                 (B2) (A1) (A1) (A1) (B2) (A1) (B2) (B1) (A2) (A1)
                 (A1) (B2) (B1) (A1) (B2) (A2) (B1) (B2) (A1) (B1)
                 (A2) (B2) (A1) (B2) (B1) (B1) (A2) (A1) (B2) (B1)
                 (A2) (A1) (B2) (B1) (B2) (A2) (A1) (A2) (B1) (A1)
                 (B2) (A1) (A1) (B2) (B1) (A2) (B2) (A1) (A1) (B2)
                 (A1) (B2) (A1) (B2) (A1) (A2) (B1) (B2) (A1) (B2)
                 (A1) (A2) (B2) (A1) (B2) (A1) (B2) (A1) (B2) (A1)
                 (B2) (A1) (B2) (A1) (B2) (A1) (B2) (B1) (A2) (B1)
                 (B2) (A1) (B1) (A2) (B1) (A2) (A1) (B1) (B2) (A1)
                 (B1) (A2) (B2) (A1) (B1) (A2) (A1) (B2) (A1) (B2)
                 (A1) (A1) (B2) (B2) (A1) (A2) (B1) (B2) (A1) (A1)
                 (B2) (B2) (A2) (A1) (B1) (A2) (B1) (A2) (B1) (A1)
                 (B2) (A1) (B2) (A1) (B1) (A2) (B1) (A1) (B2) (A2)
                 (A1) (B2) (B2) (A2) (A1) (B1) (A1) (B2) (A2) (B1)
                 (A1) (A1) (B1) (B2) (B1) (A2) (B2) (A2) (B1) (A2)
                 (B1) (B1) (A2) (A1) (B2) (B1) (A2) (A2) (B1) (B2)
                 (B1) (A1) (B2) (A1) (A2) (B2) (A2) (B2) (A1) (B1)
                 (A2) (B2) (A1) (B2) (A1) (A1) (A1) (B2) (B2) (A2)
                 (B1) (B2) (A1) (B2) (B1) (A1) (A1) (B1) (A2) (A2)
                 (B2) (A1) (B2) (A1) (B2) (B1) (A2) (A1) (B2) (A1)
                 (B2) (A1) (A2) (B1) (A1) (A1) (B2) (B2) (A1) (B2)
                 (A1) (B2) (B2) (A1) (B2) (A1) (A1) (B2) (B2) (A1)
                 (B2) (A1) (B2)
 Beta  Orbitals:
       Occupied  (A1) (B2) (A1) (B2) (B2) (A1) (A1) (A1) (A1) (B2)
                 (A1) (B2) (A1) (B2) (A1) (A1) (B2) (B2) (A1) (B1)
                 (A1) (B2) (B1) (A2)
       Virtual   (A2) (B1) (A1) (A1) (B2) (A1) (B2) (B2) (A1) (A2)
                 (B1) (A1) (B1) (A1) (B2) (B1) (A2) (A1) (B2) (A1)
                 (B2) (A1) (A2) (B1) (A1) (B2) (A1) (B2) (A1) (A1)
                 (B2) (B2) (A2) (B1) (A1) (B2) (A1) (B2) (A1) (A1)
                 (B2) (B2) (B2) (A1) (B2) (A1) (B1) (A1) (B2) (A1)
                 (B2) (A1) (B2) (B2) (B1) (A2) (B1) (A2) (A2) (B1)
                 (A1) (B2) (A1) (A1) (A1) (B2) (A1) (B2) (A2) (B1)
                 (A1) (A1) (B2) (B1) (A1) (B2) (B2) (A2) (B1) (A1)
                 (B2) (A2) (A1) (B2) (B1) (B1) (B1) (A2) (B2) (A1)
                 (B1) (A2) (A1) (B2) (B2) (A2) (B1) (A1) (A2) (B1)
                 (A1) (B2) (A1) (A1) (B2) (B1) (A2) (B2) (A1) (A1)
                 (B2) (A1) (B2) (A1) (B2) (A1) (B2) (A2) (B1) (A1)
                 (B2) (A1) (A2) (B2) (A1) (B2) (A1) (B2) (A1) (B2)
                 (A1) (B2) (A1) (B2) (A1) (B2) (A1) (B2) (B1) (A2)
                 (B1) (B2) (A1) (B1) (A2) (B1) (A2) (A1) (B2) (A1)
                 (B1) (B1) (A2) (B2) (A1) (B1) (A2) (A1) (B2) (A1)
                 (B2) (A1) (A1) (B2) (B2) (A1) (A2) (B1) (A1) (B2)
                 (A1) (B2) (B2) (A2) (B1) (A2) (A1) (B1) (A2) (B1)
                 (A1) (A1) (B2) (B2) (A1) (B1) (A2) (B1) (A1) (B2)
                 (A2) (A1) (B2) (A2) (B2) (A1) (B1) (A1) (B2) (A2)
                 (A1) (B1) (A1) (B1) (B2) (B1) (A2) (B2) (A2) (B1)
                 (A2) (B1) (B1) (A2) (A1) (B2) (B1) (A2) (A2) (B1)
                 (B2) (A1) (B1) (B2) (A1) (A2) (B2) (A2) (B2) (A1)
                 (B1) (A2) (B2) (A1) (B2) (A1) (A1) (A1) (B2) (B2)
                 (A2) (B1) (B2) (A1) (B2) (B1) (A1) (A1) (B1) (A2)
                 (A2) (B2) (A1) (B2) (A1) (B2) (B1) (A2) (A1) (B2)
                 (A1) (B2) (A1) (A2) (B1) (A1) (A1) (B2) (B2) (A1)
                 (B2) (A1) (B2) (B2) (A1) (B2) (A1) (A1) (B2) (B2)
                 (A1) (B2) (A1) (B2)
 The electronic state is 2-B1.
 Alpha  occ. eigenvalues --  -10.19110 -10.19109 -10.18712 -10.18636 -10.17957
 Alpha  occ. eigenvalues --  -10.17957 -10.17582  -0.84631  -0.77905  -0.77891
 Alpha  occ. eigenvalues --   -0.66984  -0.65170  -0.52916  -0.52803  -0.52301
 Alpha  occ. eigenvalues --   -0.45014  -0.45003  -0.39500  -0.39444  -0.37771
 Alpha  occ. eigenvalues --   -0.35792  -0.34281  -0.30037  -0.30032  -0.15139
 Alpha virt. eigenvalues --   -0.07608   0.00843   0.03220   0.03225   0.06500
 Alpha virt. eigenvalues --    0.06644   0.08992   0.09069   0.10043   0.10081
 Alpha virt. eigenvalues --    0.15792   0.16108   0.18785   0.18788   0.19486
 Alpha virt. eigenvalues --    0.19486   0.20306   0.20741   0.20766   0.21319
 Alpha virt. eigenvalues --    0.22817   0.24969   0.26087   0.28517   0.28550
 Alpha virt. eigenvalues --    0.31506   0.31829   0.32110   0.33067   0.33369
 Alpha virt. eigenvalues --    0.33414   0.33483   0.33741   0.35179   0.35505
 Alpha virt. eigenvalues --    0.37333   0.41497   0.41766   0.42195   0.43372
 Alpha virt. eigenvalues --    0.49067   0.49501   0.49508   0.55491   0.55813
 Alpha virt. eigenvalues --    0.58915   0.60302   0.60304   0.65759   0.66362
 Alpha virt. eigenvalues --    0.66791   0.66888   0.69065   0.70940   0.70943
 Alpha virt. eigenvalues --    0.81752   0.81761   0.83796   0.84150   0.85600
 Alpha virt. eigenvalues --    0.87526   0.87976   0.94000   0.95004   0.97275
 Alpha virt. eigenvalues --    1.00553   1.00741   1.03369   1.03371   1.04415
 Alpha virt. eigenvalues --    1.05784   1.05800   1.12296   1.14119   1.15679
 Alpha virt. eigenvalues --    1.18916   1.18941   1.19195   1.21579   1.21731
 Alpha virt. eigenvalues --    1.21756   1.21970   1.22825   1.22829   1.25472
 Alpha virt. eigenvalues --    1.26798   1.26808   1.30870   1.30871   1.40477
 Alpha virt. eigenvalues --    1.42433   1.44878   1.45115   1.45677   1.45730
 Alpha virt. eigenvalues --    1.46356   1.47317   1.53225   1.53403   1.55567
 Alpha virt. eigenvalues --    1.55619   1.61017   1.63537   1.63986   1.69507
 Alpha virt. eigenvalues --    1.69510   1.71716   1.71874   1.73781   1.76785
 Alpha virt. eigenvalues --    1.83865   1.83907   1.84214   1.85876   1.86091
 Alpha virt. eigenvalues --    1.86480   1.86610   1.86632   1.91290   1.92187
 Alpha virt. eigenvalues --    1.97273   2.03425   2.11250   2.14396   2.15587
 Alpha virt. eigenvalues --    2.20758   2.24020   2.24033   2.33536   2.33573
 Alpha virt. eigenvalues --    2.43304   2.43915   2.46484   2.46920   2.48276
 Alpha virt. eigenvalues --    2.63563   2.63592   2.89298   2.89569   2.93765
 Alpha virt. eigenvalues --    2.94598   2.94664   3.17012   3.17019   3.21533
 Alpha virt. eigenvalues --    3.22191   3.22489   3.26578   3.26649   3.26700
 Alpha virt. eigenvalues --    3.33152   3.33156   3.33889   3.34435   3.44765
 Alpha virt. eigenvalues --    3.46328   3.49513   3.49542   3.55692   3.56488
 Alpha virt. eigenvalues --    3.59986   3.65202   3.65398   3.67930   3.70610
 Alpha virt. eigenvalues --    3.75325   3.75477   3.79973   3.80021   3.82311
 Alpha virt. eigenvalues --    3.82972   3.92062   3.92805   3.95438   3.96049
 Alpha virt. eigenvalues --    3.96094   3.98066   4.05506   4.05614   4.05773
 Alpha virt. eigenvalues --    4.06516   4.06523   4.08599   4.12323   4.14684
 Alpha virt. eigenvalues --    4.16179   4.16223   4.17721   4.17829   4.18547
 Alpha virt. eigenvalues --    4.20183   4.20335   4.23400   4.23501   4.23815
 Alpha virt. eigenvalues --    4.23885   4.25039   4.29267   4.29725   4.29867
 Alpha virt. eigenvalues --    4.30060   4.31803   4.34062   4.35508   4.36291
 Alpha virt. eigenvalues --    4.36301   4.37562   4.43051   4.44047   4.46168
 Alpha virt. eigenvalues --    4.46294   4.47426   4.48389   4.50916   4.51025
 Alpha virt. eigenvalues --    4.52867   4.52892   4.59026   4.59094   4.61416
 Alpha virt. eigenvalues --    4.61474   4.61490   4.63397   4.63522   4.69478
 Alpha virt. eigenvalues --    4.71753   4.75900   4.82502   4.84077   4.85712
 Alpha virt. eigenvalues --    4.85738   4.91146   4.92640   5.00504   5.00516
 Alpha virt. eigenvalues --    5.03053   5.03519   5.05047   5.05964   5.08785
 Alpha virt. eigenvalues --    5.08826   5.14604   5.14853   5.14880   5.22727
 Alpha virt. eigenvalues --    5.26265   5.29775   5.30555   5.30575   5.31170
 Alpha virt. eigenvalues --    5.32881   5.34909   5.42262   5.42441   5.42510
 Alpha virt. eigenvalues --    5.44549   5.47183   5.47369   5.50530   5.52463
 Alpha virt. eigenvalues --    5.73722   5.73770   5.75818   5.75998   5.76555
 Alpha virt. eigenvalues --    5.79913   5.81152   5.83925   5.84860   5.86735
 Alpha virt. eigenvalues --    5.91511   5.94569   6.00856   6.06780   6.11757
 Alpha virt. eigenvalues --    6.18608   6.31870   6.32104   6.60345   6.60407
 Alpha virt. eigenvalues --    7.05819   8.28799   8.31843
  Beta  occ. eigenvalues --  -10.19300 -10.19299 -10.18585 -10.18511 -10.17445
  Beta  occ. eigenvalues --  -10.17445 -10.16905  -0.83942  -0.77201  -0.77182
  Beta  occ. eigenvalues --   -0.65667  -0.65053  -0.52673  -0.52368  -0.51905
  Beta  occ. eigenvalues --   -0.44841  -0.44827  -0.39217  -0.39174  -0.35940
  Beta  occ. eigenvalues --   -0.35486  -0.34183  -0.27900  -0.27885
  Beta virt. eigenvalues --   -0.07520  -0.07091   0.00884   0.03240   0.03246
  Beta virt. eigenvalues --    0.06577   0.06636   0.10118   0.10147   0.11027
  Beta virt. eigenvalues --    0.11053   0.16067   0.16616   0.18794   0.18815
  Beta virt. eigenvalues --    0.19890   0.19897   0.20681   0.20966   0.20974
  Beta virt. eigenvalues --    0.21384   0.22920   0.26056   0.26168   0.28614
  Beta virt. eigenvalues --    0.28637   0.32221   0.32331   0.32665   0.33344
  Beta virt. eigenvalues --    0.33468   0.33660   0.34085   0.34130   0.35551
  Beta virt. eigenvalues --    0.35817   0.37445   0.41933   0.42202   0.42584
  Beta virt. eigenvalues --    0.43421   0.49058   0.49642   0.49652   0.55856
  Beta virt. eigenvalues --    0.56178   0.59453   0.60536   0.60536   0.66162
  Beta virt. eigenvalues --    0.66369   0.67007   0.67087   0.69372   0.71401
  Beta virt. eigenvalues --    0.71409   0.82657   0.82701   0.84293   0.84527
  Beta virt. eigenvalues --    0.85911   0.87701   0.87991   0.94091   0.95219
  Beta virt. eigenvalues --    0.97319   1.00762   1.00956   1.03978   1.04007
  Beta virt. eigenvalues --    1.05003   1.05951   1.05972   1.12662   1.14775
  Beta virt. eigenvalues --    1.15668   1.19291   1.19454   1.19465   1.21800
  Beta virt. eigenvalues --    1.22138   1.22629   1.23044   1.23047   1.23200
  Beta virt. eigenvalues --    1.26570   1.27914   1.27926   1.31309   1.31309
  Beta virt. eigenvalues --    1.41874   1.42592   1.45009   1.45267   1.45809
  Beta virt. eigenvalues --    1.46620   1.47225   1.47886   1.54320   1.54530
  Beta virt. eigenvalues --    1.55808   1.55834   1.61743   1.63816   1.64045
  Beta virt. eigenvalues --    1.70480   1.70481   1.72281   1.72397   1.74267
  Beta virt. eigenvalues --    1.76879   1.84195   1.84236   1.84580   1.86034
  Beta virt. eigenvalues --    1.86298   1.86831   1.87297   1.87452   1.91706
  Beta virt. eigenvalues --    1.92581   1.97506   2.04374   2.11470   2.14717
  Beta virt. eigenvalues --    2.16037   2.21116   2.24357   2.24371   2.33869
  Beta virt. eigenvalues --    2.33912   2.43601   2.44261   2.46512   2.47444
  Beta virt. eigenvalues --    2.48426   2.63952   2.63976   2.89903   2.90179
  Beta virt. eigenvalues --    2.94482   2.94838   2.94912   3.17566   3.17580
  Beta virt. eigenvalues --    3.22291   3.22743   3.23253   3.27061   3.27079
  Beta virt. eigenvalues --    3.27584   3.34025   3.34025   3.34378   3.34960
  Beta virt. eigenvalues --    3.45529   3.46498   3.49903   3.49918   3.56021
  Beta virt. eigenvalues --    3.56717   3.61214   3.65745   3.66107   3.68067
  Beta virt. eigenvalues --    3.70935   3.75842   3.75996   3.80856   3.80989
  Beta virt. eigenvalues --    3.82510   3.83060   3.92140   3.93275   3.96860
  Beta virt. eigenvalues --    3.96918   3.97116   3.98943   4.05723   4.05831
  Beta virt. eigenvalues --    4.06061   4.06626   4.06633   4.09281   4.12556
  Beta virt. eigenvalues --    4.16275   4.16869   4.16871   4.18235   4.18347
  Beta virt. eigenvalues --    4.18694   4.20221   4.20363   4.24203   4.24260
  Beta virt. eigenvalues --    4.24342   4.24387   4.25426   4.30006   4.30651
  Beta virt. eigenvalues --    4.30734   4.30735   4.33022   4.34128   4.35631
  Beta virt. eigenvalues --    4.36348   4.36357   4.38185   4.44172   4.44384
  Beta virt. eigenvalues --    4.46971   4.47167   4.47889   4.48649   4.51447
  Beta virt. eigenvalues --    4.51513   4.53810   4.53829   4.59338   4.59439
  Beta virt. eigenvalues --    4.61452   4.61534   4.62806   4.63522   4.63671
  Beta virt. eigenvalues --    4.69989   4.72012   4.76731   4.82476   4.84292
  Beta virt. eigenvalues --    4.86386   4.86408   4.91248   4.92851   5.00620
  Beta virt. eigenvalues --    5.00657   5.03203   5.03869   5.05194   5.06076
  Beta virt. eigenvalues --    5.09717   5.09745   5.14642   5.15077   5.15109
  Beta virt. eigenvalues --    5.23145   5.26396   5.29960   5.30964   5.30987
  Beta virt. eigenvalues --    5.31950   5.32993   5.34946   5.42519   5.42547
  Beta virt. eigenvalues --    5.42655   5.45414   5.47337   5.47565   5.50580
  Beta virt. eigenvalues --    5.52493   5.73814   5.73878   5.76378   5.76577
  Beta virt. eigenvalues --    5.76741   5.80058   5.81303   5.84060   5.85173
  Beta virt. eigenvalues --    5.86845   5.91636   5.94710   6.00985   6.06934
  Beta virt. eigenvalues --    6.11779   6.18826   6.32071   6.32311   6.60468
  Beta virt. eigenvalues --    6.60530   7.05910   8.29103   8.32143
          Condensed to atoms (all electrons):
               1          2          3          4          5          6
     1  C    5.024992   0.453520   0.453520  -0.105427  -0.105427  -0.004359
     2  C    0.453520   4.753951  -0.062205   0.559727  -0.007269  -0.069675
     3  C    0.453520  -0.062205   4.753951  -0.007269   0.559727  -0.007946
     4  C   -0.105427   0.559727  -0.007269   4.967330  -0.002376   0.369758
     5  C   -0.105427  -0.007269   0.559727  -0.002376   4.967330  -0.088435
     6  C   -0.004359  -0.069675  -0.007946   0.369758  -0.088435   4.843617
     7  C   -0.004359  -0.007946  -0.069675  -0.088435   0.369758   0.608623
     8  H    0.450743  -0.048752  -0.048752   0.011413   0.011413  -0.001469
     9  H   -0.049841   0.435370   0.012664  -0.049902  -0.001188   0.013071
    10  H   -0.049841   0.012664   0.435370  -0.001188  -0.049902  -0.001503
    11  H    0.011891  -0.048375  -0.001717   0.448222  -0.001196  -0.049568
    12  H    0.011891  -0.001717  -0.048375  -0.001196   0.448222   0.011365
    13  H   -0.001069   0.011853  -0.001744  -0.049728   0.012640   0.441561
    14  H   -0.001069  -0.001744   0.011853   0.012640  -0.049728  -0.049186
               7          8          9         10         11         12
     1  C   -0.004359   0.450743  -0.049841  -0.049841   0.011891   0.011891
     2  C   -0.007946  -0.048752   0.435370   0.012664  -0.048375  -0.001717
     3  C   -0.069675  -0.048752   0.012664   0.435370  -0.001717  -0.048375
     4  C   -0.088435   0.011413  -0.049902  -0.001188   0.448222  -0.001196
     5  C    0.369758   0.011413  -0.001188  -0.049902  -0.001196   0.448222
     6  C    0.608623  -0.001469   0.013071  -0.001503  -0.049568   0.011365
     7  C    4.843617  -0.001469  -0.001503   0.013071   0.011365  -0.049568
     8  H   -0.001469   0.624935  -0.011537  -0.011537  -0.000165  -0.000165
     9  H   -0.001503  -0.011537   0.635070  -0.000301  -0.013505   0.000045
    10  H    0.013071  -0.011537  -0.000301   0.635070   0.000045  -0.013505
    11  H    0.011365  -0.000165  -0.013505   0.000045   0.626215   0.000026
    12  H   -0.049568  -0.000165   0.000045  -0.013505   0.000026   0.626215
    13  H   -0.049186   0.000033  -0.000271   0.000052  -0.009991  -0.000210
    14  H    0.441561   0.000033   0.000052  -0.000271  -0.000210  -0.009991
              13         14
     1  C   -0.001069  -0.001069
     2  C    0.011853  -0.001744
     3  C   -0.001744   0.011853
     4  C   -0.049728   0.012640
     5  C    0.012640  -0.049728
     6  C    0.441561  -0.049186
     7  C   -0.049186   0.441561
     8  H    0.000033   0.000033
     9  H   -0.000271   0.000052
    10  H    0.000052  -0.000271
    11  H   -0.009991  -0.000210
    12  H   -0.000210  -0.009991
    13  H    0.630436  -0.014404
    14  H   -0.014404   0.630436
          Atomic-Atomic Spin Densities.
               1          2          3          4          5          6
     1  C    0.613943  -0.036923  -0.036923  -0.052937  -0.052937   0.015667
     2  C   -0.036923  -0.134597   0.002103   0.035636   0.006964  -0.007677
     3  C   -0.036923   0.002103  -0.134597   0.006964   0.035636  -0.000093
     4  C   -0.052937   0.035636   0.006964   0.462640   0.019561  -0.093721
     5  C   -0.052937   0.006964   0.035636   0.019561   0.462640  -0.031782
     6  C    0.015667  -0.007677  -0.000093  -0.093721  -0.031782   0.125293
     7  C    0.015667  -0.000093  -0.007677  -0.031782  -0.093721   0.069602
     8  H    0.011442  -0.001450  -0.001450  -0.000997  -0.000997   0.000050
     9  H   -0.000487  -0.001148   0.000098   0.000179  -0.000007  -0.000025
    10  H   -0.000487   0.000098  -0.001148  -0.000007   0.000179   0.000096
    11  H   -0.000834  -0.001001   0.000088   0.008725   0.000011  -0.001175
    12  H   -0.000834   0.000088  -0.001001   0.000011   0.008725  -0.000719
    13  H   -0.000037  -0.000199   0.000129  -0.000934  -0.000412   0.003016
    14  H   -0.000037   0.000129  -0.000199  -0.000412  -0.000934   0.000026
               7          8          9         10         11         12
     1  C    0.015667   0.011442  -0.000487  -0.000487  -0.000834  -0.000834
     2  C   -0.000093  -0.001450  -0.001148   0.000098  -0.001001   0.000088
     3  C   -0.007677  -0.001450   0.000098  -0.001148   0.000088  -0.001001
     4  C   -0.031782  -0.000997   0.000179  -0.000007   0.008725   0.000011
     5  C   -0.093721  -0.000997  -0.000007   0.000179   0.000011   0.008725
     6  C    0.069602   0.000050  -0.000025   0.000096  -0.001175  -0.000719
     7  C    0.125293   0.000050   0.000096  -0.000025  -0.000719  -0.001175
     8  H    0.000050  -0.031967   0.000594   0.000594   0.000026   0.000026
     9  H    0.000096   0.000594   0.005544  -0.000006   0.000433  -0.000001
    10  H   -0.000025   0.000594  -0.000006   0.005544  -0.000001   0.000433
    11  H   -0.000719   0.000026   0.000433  -0.000001  -0.024753  -0.000005
    12  H   -0.001175   0.000026  -0.000001   0.000433  -0.000005  -0.024753
    13  H    0.000026  -0.000005  -0.000005   0.000005   0.000747   0.000007
    14  H    0.003016  -0.000005   0.000005  -0.000005   0.000007   0.000747
              13         14
     1  C   -0.000037  -0.000037
     2  C   -0.000199   0.000129
     3  C    0.000129  -0.000199
     4  C   -0.000934  -0.000412
     5  C   -0.000412  -0.000934
     6  C    0.003016   0.000026
     7  C    0.000026   0.003016
     8  H   -0.000005  -0.000005
     9  H   -0.000005   0.000005
    10  H    0.000005  -0.000005
    11  H    0.000747   0.000007
    12  H    0.000007   0.000747
    13  H   -0.008040   0.000372
    14  H    0.000372  -0.008040
 Mulliken charges and spin densities:
               1          2
     1  C   -0.085163   0.474284
     2  C    0.020600  -0.138069
     3  C    0.020600  -0.138069
     4  C   -0.063569   0.352926
     5  C   -0.063569   0.352926
     6  C   -0.015855   0.078557
     7  C   -0.015855   0.078557
     8  H    0.025277  -0.024092
     9  H    0.031775   0.005271
    10  H    0.031775   0.005271
    11  H    0.026964  -0.018452
    12  H    0.026964  -0.018452
    13  H    0.030027  -0.005330
    14  H    0.030027  -0.005330
 Sum of Mulliken charges =  -0.00000   1.00000
 Mulliken charges and spin densities with hydrogens summed into heavy atoms:
               1          2
     1  C   -0.059886   0.450192
     2  C    0.052375  -0.132798
     3  C    0.052375  -0.132798
     4  C   -0.036604   0.334474
     5  C   -0.036604   0.334474
     6  C    0.014173   0.073228
     7  C    0.014173   0.073228
 Electronic spatial extent (au):  <R**2>=            665.5883
 Charge=             -0.0000 electrons
 Dipole moment (field-independent basis, Debye):
    X=              0.0000    Y=              0.0000    Z=             -0.0604  Tot=              0.0604
 Quadrupole moment (field-independent basis, Debye-Ang):
   XX=            -46.8641   YY=            -37.8733   ZZ=            -37.8671
   XY=              0.0000   XZ=             -0.0000   YZ=             -0.0000
 Traceless Quadrupole moment (field-independent basis, Debye-Ang):
   XX=             -5.9960   YY=              2.9949   ZZ=              3.0011
   XY=              0.0000   XZ=             -0.0000   YZ=             -0.0000
 Octapole moment (field-independent basis, Debye-Ang**2):
  XXX=              0.0000  YYY=              0.0000  ZZZ=             -1.2174  XYY=              0.0000
  XXY=              0.0000  XXZ=             -0.0906  XZZ=              0.0000  YZZ=              0.0000
  YYZ=              0.8222  XYZ=              0.0000
 Hexadecapole moment (field-independent basis, Debye-Ang**3):
 XXXX=            -58.4029 YYYY=           -413.0645 ZZZZ=           -413.0591 XXXY=             -0.0000
 XXXZ=             -0.0000 YYYX=             -0.0000 YYYZ=              0.0000 ZZZX=             -0.0000
 ZZZY=             -0.0000 XXYY=            -93.8909 XXZZ=            -93.8904 YYZZ=           -135.0119
 XXYZ=              0.0000 YYXZ=             -0.0000 ZZXY=             -0.0000
 N-N= 2.582932496670D+02 E-N=-1.144861134239D+03  KE= 2.698708732440D+02
 Symmetry A1   KE= 1.496203097519D+02
 Symmetry A2   KE= 2.166079806048D+00
 Symmetry B1   KE= 5.347985705093D+00
 Symmetry B2   KE= 1.127364979810D+02
 Symmetry A1   SP=-2.120269236054D-14
 Symmetry A2   SP= 1.328369922740D-14
 Symmetry B1   SP= 1.000000000000D+00
 Symmetry B2   SP= 5.367324484862D-15
                          Isotropic Fermi Contact Couplings
        Atom                 a.u.       MegaHertz       Gauss      10(-4) cm-1
     1  C(13)              0.05850      65.76060      23.46502      21.93538
     2  C(13)             -0.03264     -36.69716     -13.09446     -12.24085
     3  C(13)             -0.03264     -36.69716     -13.09446     -12.24085
     4  C(13)              0.04087      45.94041      16.39268      15.32407
     5  C(13)              0.04087      45.94041      16.39268      15.32407
     6  C(13)              0.00007       0.08056       0.02874       0.02687
     7  C(13)              0.00007       0.08056       0.02874       0.02687
     8  H(1)              -0.00705     -31.49173     -11.23703     -10.50451
     9  H(1)               0.00152       6.79871       2.42595       2.26781
    10  H(1)               0.00152       6.79871       2.42595       2.26781
    11  H(1)              -0.00543     -24.28779      -8.66649      -8.10154
    12  H(1)              -0.00543     -24.28779      -8.66649      -8.10154
    13  H(1)              -0.00163      -7.30040      -2.60496      -2.43515
    14  H(1)              -0.00163      -7.30040      -2.60496      -2.43515
 --------------------------------------------------------
       Center         ----  Spin Dipole Couplings  ----
                      3XX-RR        3YY-RR        3ZZ-RR
 --------------------------------------------------------
     1   Atom        0.544765     -0.279606     -0.265159
     2   Atom       -0.117606      0.055017      0.062589
     3   Atom       -0.117606      0.055017      0.062589
     4   Atom        0.417443     -0.204717     -0.212726
     5   Atom        0.417443     -0.204717     -0.212726
     6   Atom        0.122225     -0.057716     -0.064508
     7   Atom        0.122225     -0.057716     -0.064508
     8   Atom        0.002503     -0.035491      0.032987
     9   Atom       -0.007024      0.001946      0.005078
    10   Atom       -0.007024      0.001946      0.005078
    11   Atom        0.000668      0.023853     -0.024521
    12   Atom        0.000668      0.023853     -0.024521
    13   Atom       -0.003562     -0.003676      0.007237
    14   Atom       -0.003562     -0.003676      0.007237
 --------------------------------------------------------
                        XY            XZ            YZ
 --------------------------------------------------------
     1   Atom        0.000000      0.000000      0.000000
     2   Atom       -0.000000      0.000000     -0.014534
     3   Atom        0.000000      0.000000      0.014534
     4   Atom        0.000000      0.000000     -0.000550
     5   Atom       -0.000000     -0.000000      0.000550
     6   Atom       -0.000000     -0.000000      0.004372
     7   Atom        0.000000     -0.000000     -0.004372
     8   Atom        0.000000      0.000000     -0.000000
     9   Atom        0.000000      0.000000     -0.003545
    10   Atom        0.000000     -0.000000      0.003545
    11   Atom        0.000000      0.000000     -0.011754
    12   Atom       -0.000000     -0.000000      0.011754
    13   Atom        0.000000      0.000000     -0.008360
    14   Atom       -0.000000     -0.000000      0.008360
 --------------------------------------------------------


 ---------------------------------------------------------------------------------
              Anisotropic Spin Dipole Couplings in Principal Axis System
 ---------------------------------------------------------------------------------

       Atom             a.u.   MegaHertz   Gauss  10(-4) cm-1        Axes

              Baa    -0.2796   -37.520   -13.388   -12.515  0.0000  1.0000 -0.0000
     1 C(13)  Bbb    -0.2652   -35.582   -12.696   -11.869  0.0000  0.0000  1.0000
              Bcc     0.5448    73.102    26.085    24.384  1.0000 -0.0000 -0.0000
 
              Baa    -0.1176   -15.782    -5.631    -5.264  1.0000  0.0000  0.0000
     2 C(13)  Bbb     0.0438     5.875     2.096     1.960 -0.0000  0.7912  0.6115
              Bcc     0.0738     9.906     3.535     3.304  0.0000 -0.6115  0.7912
 
              Baa    -0.1176   -15.782    -5.631    -5.264  1.0000 -0.0000  0.0000
     3 C(13)  Bbb     0.0438     5.875     2.096     1.960  0.0000  0.7912 -0.6115
              Bcc     0.0738     9.906     3.535     3.304  0.0000  0.6115  0.7912
 
              Baa    -0.2128   -28.551   -10.188    -9.524 -0.0000  0.0682  0.9977
     4 C(13)  Bbb    -0.2047   -27.466    -9.801    -9.162 -0.0000  0.9977 -0.0682
              Bcc     0.4174    56.017    19.988    18.685  1.0000  0.0000  0.0000
 
              Baa    -0.2128   -28.551   -10.188    -9.524  0.0000 -0.0682  0.9977
     5 C(13)  Bbb    -0.2047   -27.466    -9.801    -9.162 -0.0000  0.9977  0.0682
              Bcc     0.4174    56.017    19.988    18.685  1.0000  0.0000  0.0000
 
              Baa    -0.0666    -8.944    -3.191    -2.983  0.0000 -0.4396  0.8982
     6 C(13)  Bbb    -0.0556    -7.458    -2.661    -2.488 -0.0000  0.8982  0.4396
              Bcc     0.1222    16.401     5.852     5.471  1.0000  0.0000  0.0000
 
              Baa    -0.0666    -8.944    -3.191    -2.983  0.0000  0.4396  0.8982
     7 C(13)  Bbb    -0.0556    -7.458    -2.661    -2.488  0.0000  0.8982 -0.4396
              Bcc     0.1222    16.401     5.852     5.471  1.0000 -0.0000  0.0000
 
              Baa    -0.0355   -18.936    -6.757    -6.316  0.0000  1.0000 -0.0000
     8 H(1)   Bbb     0.0025     1.336     0.477     0.446  1.0000 -0.0000  0.0000
              Bcc     0.0330    17.600     6.280     5.871  0.0000  0.0000  1.0000
 
              Baa    -0.0070    -3.748    -1.337    -1.250  1.0000  0.0000  0.0000
     9 H(1)   Bbb    -0.0004    -0.194    -0.069    -0.065 -0.0000  0.8379  0.5458
              Bcc     0.0074     3.942     1.407     1.315  0.0000 -0.5458  0.8379
 
              Baa    -0.0070    -3.748    -1.337    -1.250  1.0000 -0.0000  0.0000
    10 H(1)   Bbb    -0.0004    -0.194    -0.069    -0.065  0.0000  0.8379 -0.5458
              Bcc     0.0074     3.942     1.407     1.315  0.0000  0.5458  0.8379
 
              Baa    -0.0272   -14.526    -5.183    -4.845 -0.0000  0.2243  0.9745
    11 H(1)   Bbb     0.0007     0.356     0.127     0.119  1.0000  0.0000  0.0000
              Bcc     0.0266    14.170     5.056     4.727 -0.0000  0.9745 -0.2243
 
              Baa    -0.0272   -14.526    -5.183    -4.845  0.0000 -0.2243  0.9745
    12 H(1)   Bbb     0.0007     0.356     0.127     0.119  1.0000  0.0000  0.0000
              Bcc     0.0266    14.170     5.056     4.727 -0.0000  0.9745  0.2243
 
              Baa    -0.0082    -4.376    -1.562    -1.460 -0.0000  0.8794  0.4761
    13 H(1)   Bbb    -0.0036    -1.900    -0.678    -0.634  1.0000  0.0000  0.0000
              Bcc     0.0118     6.276     2.240     2.094  0.0000 -0.4761  0.8794
 
              Baa    -0.0082    -4.376    -1.562    -1.460  0.0000  0.8794 -0.4761
    14 H(1)   Bbb    -0.0036    -1.900    -0.678    -0.634  1.0000  0.0000  0.0000
              Bcc     0.0118     6.276     2.240     2.094 -0.0000  0.4761  0.8794
 

 ---------------------------------------------------------------------------------

 Calling FoFJK, ICntrl=      2127 FMM=F ISym2X=1 I1Cent= 0 IOpClX= 1 NMat=1 NMatS=1 NMatT=0.
 ***** Axes restored to original set *****
 -------------------------------------------------------------------
 Center     Atomic                   Forces (Hartrees/Bohr)
 Number     Number              X              Y              Z
 -------------------------------------------------------------------
      1        6          -0.000000000   -0.000000000    0.000377079
      2        6           0.000000000    0.002563431   -0.000675072
      3        6           0.000000000   -0.002563431   -0.000675072
      4        6           0.000000000    0.001299234    0.003416570
      5        6           0.000000000   -0.001299234    0.003416570
      6        6          -0.000000000   -0.003633314   -0.002914783
      7        6          -0.000000000    0.003633314   -0.002914783
      8        1          -0.000000000    0.000000000   -0.002314129
      9        1           0.000000000   -0.002729455   -0.000653378
     10        1           0.000000000    0.002729455   -0.000653378
     11        1           0.000000000   -0.002732053   -0.001539711
     12        1           0.000000000    0.002732053   -0.001539711
     13        1           0.000000000    0.001353864    0.003334900
     14        1           0.000000000   -0.001353864    0.003334900
 -------------------------------------------------------------------
 Cartesian Forces:  Max     0.003633314 RMS     0.001896107

 GradGradGradGradGradGradGradGradGradGradGradGradGradGradGradGradGradGrad
 Berny optimization.
 FormGI is forming the generalized inverse of G from B-inverse, IUseBI=4.
 Internal  Forces:  Max     0.002809958 RMS     0.001394814
 Search for a local minimum.
 Step number   1 out of a maximum of   73
 All quantities printed in internal units (Hartrees-Bohrs-Radians)
 Mixed Optimization -- RFO/linear search
 Second derivative matrix not updated -- first step.
 ITU=  0
     Eigenvalues ---    0.01682   0.01857   0.01940   0.01967   0.02005
     Eigenvalues ---    0.02048   0.02106   0.02142   0.02182   0.02251
     Eigenvalues ---    0.02416   0.16000   0.16000   0.16000   0.16000
     Eigenvalues ---    0.16000   0.16000   0.16000   0.22000   0.22000
     Eigenvalues ---    0.22000   0.22000   0.34918   0.34918   0.35103
     Eigenvalues ---    0.35103   0.35332   0.35332   0.35428   0.38182
     Eigenvalues ---    0.38436   0.42470   0.43413   0.48195   0.49844
     Eigenvalues ---    0.52047
 RFO step:  Lambda=-5.14443426D-04 EMin= 1.68180566D-02
 Linear search not attempted -- first point.
 Iteration  1 RMS(Cart)=  0.00909599 RMS(Int)=  0.00006802
 Iteration  2 RMS(Cart)=  0.00006906 RMS(Int)=  0.00000004
 Iteration  3 RMS(Cart)=  0.00000000 RMS(Int)=  0.00000004
 ClnCor:  largest displacement from symmetrization is 7.45D-12 for atom     8.
 Variable       Old X    -DE/DX   Delta X   Delta X   Delta X     New X
                                 (Linear)    (Quad)   (Total)
    R1        2.66690  -0.00139   0.00000  -0.00316  -0.00316   2.66374
    R2        2.66690  -0.00139   0.00000  -0.00316  -0.00316   2.66374
    R3        2.04985  -0.00231   0.00000  -0.00652  -0.00652   2.04333
    R4        2.59884  -0.00244   0.00000  -0.00488  -0.00488   2.59396
    R5        2.05808  -0.00255   0.00000  -0.00729  -0.00729   2.05079
    R6        2.59884  -0.00244   0.00000  -0.00488  -0.00488   2.59396
    R7        2.05808  -0.00255   0.00000  -0.00729  -0.00729   2.05079
    R8        2.72559  -0.00066   0.00000  -0.00169  -0.00169   2.72391
    R9        2.05139  -0.00235   0.00000  -0.00663  -0.00663   2.04477
   R10        2.72559  -0.00066   0.00000  -0.00169  -0.00169   2.72391
   R11        2.05139  -0.00235   0.00000  -0.00663  -0.00663   2.04477
   R12        2.56941  -0.00281   0.00000  -0.00531  -0.00531   2.56410
   R13        2.05508  -0.00246   0.00000  -0.00698  -0.00698   2.04810
   R14        2.05508  -0.00246   0.00000  -0.00698  -0.00698   2.04810
    A1        2.21478   0.00078   0.00000   0.00360   0.00360   2.21838
    A2        2.03421  -0.00039   0.00000  -0.00180  -0.00180   2.03240
    A3        2.03421  -0.00039   0.00000  -0.00180  -0.00180   2.03240
    A4        2.27164  -0.00071   0.00000  -0.00321  -0.00321   2.26843
    A5        2.01118  -0.00085   0.00000  -0.00593  -0.00593   2.00526
    A6        2.00036   0.00157   0.00000   0.00914   0.00914   2.00950
    A7        2.27164  -0.00071   0.00000  -0.00321  -0.00321   2.26843
    A8        2.01118  -0.00085   0.00000  -0.00593  -0.00593   2.00526
    A9        2.00036   0.00157   0.00000   0.00914   0.00914   2.00950
   A10        2.22493   0.00049   0.00000   0.00219   0.00219   2.22712
   A11        2.02103   0.00189   0.00000   0.01221   0.01221   2.03323
   A12        2.03723  -0.00238   0.00000  -0.01440  -0.01440   2.02283
   A13        2.22493   0.00049   0.00000   0.00219   0.00219   2.22712
   A14        2.02103   0.00189   0.00000   0.01221   0.01221   2.03323
   A15        2.03723  -0.00238   0.00000  -0.01440  -0.01440   2.02283
   A16        2.25003  -0.00016   0.00000  -0.00079  -0.00079   2.24924
   A17        2.02785  -0.00262   0.00000  -0.01646  -0.01646   2.01140
   A18        2.00531   0.00279   0.00000   0.01724   0.01724   2.02255
   A19        2.25003  -0.00016   0.00000  -0.00079  -0.00079   2.24924
   A20        2.02785  -0.00262   0.00000  -0.01646  -0.01646   2.01140
   A21        2.00531   0.00279   0.00000   0.01724   0.01724   2.02255
    D1       -0.00000   0.00000   0.00000   0.00000   0.00000   0.00000
    D2        3.14159   0.00000   0.00000   0.00000   0.00000   3.14159
    D3        3.14159  -0.00000   0.00000  -0.00000   0.00000   3.14159
    D4        0.00000   0.00000   0.00000   0.00000  -0.00000   0.00000
    D5        0.00000  -0.00000   0.00000  -0.00000   0.00000   0.00000
    D6        3.14159  -0.00000   0.00000  -0.00000   0.00000   3.14159
    D7        3.14159   0.00000   0.00000   0.00000   0.00000   3.14159
    D8       -0.00000  -0.00000   0.00000  -0.00000   0.00000   0.00000
    D9       -0.00000   0.00000   0.00000   0.00000   0.00000   0.00000
   D10        3.14159   0.00000   0.00000   0.00000   0.00000   3.14159
   D11        3.14159  -0.00000   0.00000   0.00000   0.00000   3.14159
   D12        0.00000   0.00000   0.00000   0.00000   0.00000   0.00000
   D13        0.00000  -0.00000   0.00000  -0.00000   0.00000   0.00000
   D14        3.14159  -0.00000   0.00000  -0.00000   0.00000   3.14159
   D15        3.14159   0.00000   0.00000   0.00000   0.00000   3.14159
   D16        0.00000  -0.00000   0.00000  -0.00000   0.00000   0.00000
   D17        0.00000  -0.00000   0.00000  -0.00000   0.00000   0.00000
   D18        3.14159  -0.00000   0.00000  -0.00000   0.00000   3.14159
   D19        3.14159  -0.00000   0.00000  -0.00000   0.00000   3.14159
   D20        0.00000  -0.00000   0.00000  -0.00000  -0.00000   0.00000
   D21       -0.00000   0.00000   0.00000   0.00000   0.00000   0.00000
   D22        3.14159   0.00000   0.00000   0.00000   0.00000   3.14159
   D23        3.14159   0.00000   0.00000   0.00000   0.00000   3.14159
   D24        0.00000   0.00000   0.00000   0.00000  -0.00000   0.00000
   D25        0.00000   0.00000   0.00000   0.00000   0.00000   0.00000
   D26        3.14159   0.00000   0.00000   0.00000   0.00000   3.14159
   D27        3.14159  -0.00000   0.00000  -0.00000   0.00000   3.14159
   D28       -0.00000   0.00000   0.00000   0.00000   0.00000   0.00000
         Item               Value     Threshold  Converged?
 Maximum Force            0.002810     0.000450     NO 
 RMS     Force            0.001395     0.000300     NO 
 Maximum Displacement     0.026309     0.001800     NO 
 RMS     Displacement     0.009092     0.001200     NO 
 Predicted change in Energy=-2.578852D-04
 GradGradGradGradGradGradGradGradGradGradGradGradGradGradGradGradGradGrad

                          Input orientation:                          
 ---------------------------------------------------------------------
 Center     Atomic      Atomic             Coordinates (Angstroms)
 Number     Number       Type             X           Y           Z
 ---------------------------------------------------------------------
      1          6           0       -0.000000    0.000000    1.621353
      2          6           0       -0.000000    1.262061    0.993537
      3          6           0       -0.000000   -1.262061    0.993537
      4          6           0        0.000000    1.583045   -0.341069
      5          6           0       -0.000000   -1.583045   -0.341069
      6          6           0        0.000000    0.678432   -1.463296
      7          6           0        0.000000   -0.678432   -1.463296
      8          1           0       -0.000000    0.000000    2.702637
      9          1           0       -0.000000    2.109493    1.671466
     10          1           0       -0.000000   -2.109493    1.671466
     11          1           0        0.000000    2.637474   -0.583967
     12          1           0       -0.000000   -2.637474   -0.583967
     13          1           0        0.000000    1.151562   -2.438377
     14          1           0        0.000000   -1.151562   -2.438377
 ---------------------------------------------------------------------
                    Distance matrix (angstroms):
                    1          2          3          4          5
     1  C    0.000000
     2  C    1.409593   0.000000
     3  C    1.409593   2.524122   0.000000
     4  C    2.521336   1.372664   3.142579   0.000000
     5  C    2.521336   3.142579   1.372664   3.166091   0.000000
     6  C    3.158374   2.525203   3.130741   1.441429   2.524613
     7  C    3.158374   3.130741   2.525203   2.524613   1.441429
     8  H    1.081284   2.124576   2.124576   3.430770   3.430770
     9  H    2.110088   1.085232   3.439035   2.080252   4.205370
    10  H    2.110088   3.439035   1.085232   4.205370   2.080252
    11  H    3.437980   2.092912   4.206530   1.082044   4.227503
    12  H    3.437980   4.206530   2.092912   4.227503   1.082044
    13  H    4.219894   3.433693   4.195666   2.141233   3.446270
    14  H    4.219894   4.195666   3.433693   3.446270   2.141233
                    6          7          8          9         10
     6  C    0.000000
     7  C    1.356864   0.000000
     8  H    4.220814   4.220814   0.000000
     9  H    3.445964   4.195147   2.348036   0.000000
    10  H    4.195147   3.445964   2.348036   4.218985   0.000000
    11  H    2.147339   3.430518   4.214029   2.316408   5.255537
    12  H    3.430518   2.147339   4.214029   5.255537   2.316408
    13  H    1.083806   2.073563   5.268408   4.220005   5.246455
    14  H    2.073563   1.083806   5.268408   5.246455   4.220005
[...]
   D20        0.00000  -0.00000   0.00000  -0.00000  -0.00000   0.00000
   D21       -0.00000   0.00000   0.00000   0.00000   0.00000   0.00000
   D22        3.14159  -0.00000   0.00000   0.00000   0.00000   3.14159
   D23        3.14159   0.00000   0.00000   0.00000   0.00000   3.14159
   D24        0.00000   0.00000   0.00000   0.00000  -0.00000   0.00000
   D25       -0.00000   0.00000   0.00000   0.00000   0.00000   0.00000
   D26        3.14159   0.00000   0.00000   0.00000   0.00000   3.14159
   D27        3.14159  -0.00000   0.00000  -0.00000   0.00000   3.14159
   D28       -0.00000   0.00000   0.00000   0.00000   0.00000   0.00000
         Item               Value     Threshold  Converged?
 Maximum Force            0.000390     0.000450     YES
 RMS     Force            0.000099     0.000300     YES
 Maximum Displacement     0.000752     0.001800     YES
 RMS     Displacement     0.000307     0.001200     YES
 Predicted change in Energy=-1.037359D-06
 Optimization completed.
    -- Stationary point found.
                           ----------------------------
                           !   Optimized Parameters   !
                           ! (Angstroms and Degrees)  !
 --------------------------                            --------------------------
 ! Name  Definition              Value          Derivative Info.                !
 --------------------------------------------------------------------------------
 ! R1    R(1,2)                  1.4102         -DE/DX =    0.0001              !
 ! R2    R(1,3)                  1.4102         -DE/DX =    0.0001              !
 ! R3    R(1,8)                  1.0813         -DE/DX =    0.0001              !
 ! R4    R(2,4)                  1.3718         -DE/DX =   -0.0002              !
 ! R5    R(2,9)                  1.085          -DE/DX =    0.0001              !
 ! R6    R(3,5)                  1.3718         -DE/DX =   -0.0002              !
 ! R7    R(3,10)                 1.085          -DE/DX =    0.0001              !
 ! R8    R(4,6)                  1.4433         -DE/DX =    0.0004              !
 ! R9    R(4,11)                 1.082          -DE/DX =    0.0001              !
 ! R10   R(5,7)                  1.4433         -DE/DX =    0.0004              !
 ! R11   R(5,12)                 1.082          -DE/DX =    0.0001              !
 ! R12   R(6,7)                  1.3554         -DE/DX =   -0.0003              !
 ! R13   R(6,13)                 1.0837         -DE/DX =    0.0001              !
 ! R14   R(7,14)                 1.0837         -DE/DX =    0.0001              !
 ! A1    A(2,1,3)              127.2327         -DE/DX =    0.0001              !
 ! A2    A(2,1,8)              116.3837         -DE/DX =    0.0                 !
 ! A3    A(3,1,8)              116.3837         -DE/DX =    0.0                 !
 ! A4    A(1,2,4)              129.8561         -DE/DX =    0.0                 !
 ! A5    A(1,2,9)              114.8249         -DE/DX =    0.0                 !
 ! A6    A(4,2,9)              115.319          -DE/DX =    0.0                 !
 ! A7    A(1,3,5)              129.8561         -DE/DX =    0.0                 !
 ! A8    A(1,3,10)             114.8249         -DE/DX =    0.0                 !
 ! A9    A(5,3,10)             115.319          -DE/DX =    0.0                 !
 ! A10   A(2,4,6)              127.6845         -DE/DX =    0.0                 !
 ! A11   A(2,4,11)             116.7044         -DE/DX =    0.0                 !
 ! A12   A(6,4,11)             115.6111         -DE/DX =    0.0                 !
 ! A13   A(3,5,7)              127.6845         -DE/DX =    0.0                 !
 ! A14   A(3,5,12)             116.7044         -DE/DX =    0.0                 !
 ! A15   A(7,5,12)             115.6111         -DE/DX =    0.0                 !
 ! A16   A(4,6,7)              128.8431         -DE/DX =    0.0                 !
 ! A17   A(4,6,13)             114.9673         -DE/DX =    0.0                 !
 ! A18   A(7,6,13)             116.1896         -DE/DX =    0.0                 !
 ! A19   A(5,7,6)              128.8431         -DE/DX =    0.0                 !
 ! A20   A(5,7,14)             114.9673         -DE/DX =    0.0                 !
 ! A21   A(6,7,14)             116.1896         -DE/DX =    0.0                 !
 ! D1    D(3,1,2,4)              0.0            -DE/DX =    0.0                 !
 ! D2    D(3,1,2,9)            180.0            -DE/DX =    0.0                 !
 ! D3    D(8,1,2,4)            180.0            -DE/DX =    0.0                 !
 ! D4    D(8,1,2,9)              0.0            -DE/DX =    0.0                 !
 ! D5    D(2,1,3,5)              0.0            -DE/DX =    0.0                 !
 ! D6    D(2,1,3,10)           180.0            -DE/DX =    0.0                 !
 ! D7    D(8,1,3,5)            180.0            -DE/DX =    0.0                 !
 ! D8    D(8,1,3,10)             0.0            -DE/DX =    0.0                 !
 ! D9    D(1,2,4,6)              0.0            -DE/DX =    0.0                 !
 ! D10   D(1,2,4,11)           180.0            -DE/DX =    0.0                 !
 ! D11   D(9,2,4,6)            180.0            -DE/DX =    0.0                 !
 ! D12   D(9,2,4,11)             0.0            -DE/DX =    0.0                 !
 ! D13   D(1,3,5,7)              0.0            -DE/DX =    0.0                 !
 ! D14   D(1,3,5,12)           180.0            -DE/DX =    0.0                 !
 ! D15   D(10,3,5,7)           180.0            -DE/DX =    0.0                 !
 ! D16   D(10,3,5,12)            0.0            -DE/DX =    0.0                 !
 ! D17   D(2,4,6,7)              0.0            -DE/DX =    0.0                 !
 ! D18   D(2,4,6,13)           180.0            -DE/DX =    0.0                 !
 ! D19   D(11,4,6,7)           180.0            -DE/DX =    0.0                 !
 ! D20   D(11,4,6,13)            0.0            -DE/DX =    0.0                 !
 ! D21   D(3,5,7,6)              0.0            -DE/DX =    0.0                 !
 ! D22   D(3,5,7,14)           180.0            -DE/DX =    0.0                 !
 ! D23   D(12,5,7,6)           180.0            -DE/DX =    0.0                 !
 ! D24   D(12,5,7,14)            0.0            -DE/DX =    0.0                 !
 ! D25   D(4,6,7,5)              0.0            -DE/DX =    0.0                 !
 ! D26   D(4,6,7,14)           180.0            -DE/DX =    0.0                 !
 ! D27   D(13,6,7,5)           180.0            -DE/DX =    0.0                 !
 ! D28   D(13,6,7,14)            0.0            -DE/DX =    0.0                 !
 --------------------------------------------------------------------------------
 GradGradGradGradGradGradGradGradGradGradGradGradGradGradGradGradGradGrad


 ----------------------------------------------------------------------

 Electric dipole moment (input orientation):
 (Debye = 10**-18 statcoulomb cm , SI units = C m)
                  (au)            (Debye)         (10**-30 SI)
   Tot        0.268047D-01      0.681308D-01      0.227260D+00
   x          0.000000D+00      0.000000D+00      0.000000D+00
   y          0.000000D+00      0.000000D+00      0.000000D+00
   z         -0.268047D-01     -0.681308D-01     -0.227260D+00

 Dipole polarizability, Alpha (input orientation).
 (esu units = cm**3 , SI units = C**2 m**2 J**-1)
 Alpha(0;0):
               (au)            (10**-24 esu)      (10**-40 SI)
   iso        0.815579D+02      0.120856D+02      0.134471D+02
   aniso      0.534854D+02      0.792572D+01      0.881855D+01
   xx         0.459010D+02      0.680183D+01      0.756805D+01
   yx         0.000000D+00      0.000000D+00      0.000000D+00
   yy         0.994354D+02      0.147348D+02      0.163947D+02
   zx         0.000000D+00      0.000000D+00      0.000000D+00
   zy         0.000000D+00      0.000000D+00      0.000000D+00
   zz         0.993372D+02      0.147203D+02      0.163785D+02

 ----------------------------------------------------------------------

 Dipole orientation:
     6          0.00000000          0.00000000         -3.06260428
     6         -0.00000000         -2.38737257         -1.87835043
     6          0.00000000          2.38737257         -1.87835043
     6         -0.00000000         -2.99132497          0.64263264
     6          0.00000000          2.99132497          0.64263264
     6         -0.00000000         -1.28065374          2.76700468
     6         -0.00000000          1.28065374          2.76700468
     1          0.00000000          0.00000000         -5.10589253
     1         -0.00000000         -3.98552897         -3.16290639
     1          0.00000000          3.98552897         -3.16290639
     1         -0.00000000         -4.98174214          1.11065360
     1          0.00000000          4.98174214          1.11065360
     1         -0.00000000         -2.18448105          4.60466818
     1         -0.00000000          2.18448105          4.60466818

 Electric dipole moment (dipole orientation):
 (Debye = 10**-18 statcoulomb cm , SI units = C m)
                  (au)            (Debye)         (10**-30 SI)
   Tot        0.268047D-01      0.681308D-01      0.227260D+00
   x          0.000000D+00      0.000000D+00      0.000000D+00
   y          0.000000D+00      0.000000D+00      0.000000D+00
   z          0.268047D-01      0.681308D-01      0.227260D+00

 Dipole polarizability, Alpha (dipole orientation).
 (esu units = cm**3 , SI units = C**2 m**2 J**-1)
 Alpha(0;0):
               (au)            (10**-24 esu)      (10**-40 SI)
   iso        0.815579D+02      0.120856D+02      0.134471D+02
   aniso      0.534854D+02      0.792572D+01      0.881855D+01
   xx         0.459010D+02      0.680183D+01      0.756805D+01
   yx         0.000000D+00      0.000000D+00      0.000000D+00
   yy         0.994354D+02      0.147348D+02      0.163947D+02
   zx         0.000000D+00      0.000000D+00      0.000000D+00
   zy         0.000000D+00      0.000000D+00      0.000000D+00
   zz         0.993372D+02      0.147203D+02      0.163785D+02

 ----------------------------------------------------------------------
 1\1\GINC-GAMBA\Freq\UB3LYP\Gen\C7H7(2)\IRIKURA\16-Jun-2022\0\\#N Geom=
 AllCheck Guess=TCheck SCRF=Check GenChk UB3LYP/ChkBas Freq\\tropyl, B3
 LYP/pcseg-2\\0,2\C,0.,0.,1.62066039\C,0.,1.2633431594,0.9939802426\C,0
 .,-1.2633431594,0.9939802426\C,0.,1.5829410022,-0.3400665465\C,0.,-1.5
 829410022,-0.3400665465\C,0.,0.6776927766,-1.464235818\C,0.,-0.6776927
 766,-1.464235818\H,0.,0.,2.7019219691\H,0.,2.109051103,1.6737379826\H,
 0.,-2.109051103,1.6737379826\H,0.,2.6362244102,-0.5877325742\H,0.,-2.6
 362244102,-0.5877325742\H,0.,1.1559775898,-2.4366854659\H,0.,-1.155977
 5898,-2.4366854659\\Version=ES64L-G16RevB.01\State=2-B1\HF=-270.994009
 3\S2=0.771305\S2-1=0.\S2A=0.75028\RMSD=1.046e-09\RMSF=2.011e-04\ZeroPo
 int=0.1124852\Thermal=0.1181534\Dipole=0.,0.,-0.0268047\DipoleDeriv=-0
 .2124021,0.,0.,0.,-0.502133,0.0000002,0.,0.,0.0183865,-0.0560819,0.,0.
 ,0.,0.3289177,-0.0849129,0.,-0.1161685,0.2355026,-0.0560819,0.,0.,0.,0
 .3289177,0.084913,0.,0.1161685,0.2355024,-0.1786142,0.,0.,0.,0.0571039
 ,0.0393829,0.,0.0398918,-0.2914365,-0.1786142,0.,0.,0.,0.0571039,-0.03
 93828,0.,-0.0398918,-0.2914362,-0.1075195,0.,0.,0.,-0.0126346,-0.02320
 28,0.,0.0267905,0.1702016,-0.1075195,0.,0.,0.,-0.0126346,0.0232027,0.,
 -0.0267905,0.1702015,0.1505258,0.,0.,0.,0.0304493,0.,0.,0.,-0.1098604,
 0.108601,0.,0.,0.,-0.0510806,-0.0869484,0.,-0.0880067,-0.0102085,0.108
 601,0.,0.,0.,-0.0510806,0.0869483,0.,0.0880067,-0.0102085,0.1417868,0.
 ,0.,0.,-0.1051343,0.0316067,0.,0.0282786,0.0302127,0.1417868,0.,0.,0.,
 -0.1051343,-0.0316067,0.,-0.0282786,0.0302126,0.1227659,0.,0.,0.,0.018
 6698,0.0604525,0.,0.0644478,-0.0885348,0.1227659,0.,0.,0.,0.0186698,-0
 .0604525,0.,-0.0644478,-0.0885348\Polar=45.9010043,0.,99.4354019,0.,0.
 ,99.3372435\Quadrupole=-4.432126,2.2143593,2.2177667,0.,0.,0.\PG=C02V 
 [C2(C1H1),SGV(C6H6)]\NImag=1\\0.09575607,0.,0.38170595,0.,-0.00000005,
 0.65625875,-0.05324300,0.,0.,0.13598084,0.,-0.09030478,0.08984948,0.,0
 .52476929,0.,-0.13578254,-0.14675283,0.,0.11574718,0.58734358,-0.05324
 300,0.,0.,0.00107880,0.,0.,0.13598084,0.,-0.09030479,-0.08984948,0.,-0
 .14946354,0.11558981,0.,0.52476929,0.,0.13578256,-0.14675283,0.,-0.115
 58981,0.14972988,0.,-0.11574718,0.58734358,0.00909185,0.,0.,-0.0553175
 3,0.,0.,-0.00223803,0.,0.,0.10613045,0.,-0.02726731,0.04340375,0.,-0.1
 1204058,0.05761562,0.,0.01405974,0.00927502,0.,0.63625843,0.,0.2238900
 8,-0.01680004,0.,-0.08998487,-0.24498133,0.,-0.12181748,-0.13125151,0.
 ,-0.02828458,0.56777363,0.00909185,0.,0.,-0.00223803,0.,0.,-0.05531753
 ,0.,0.,-0.00686202,0.,0.,0.10613045,0.,-0.02726731,-0.04340375,0.,0.01
 405974,-0.00927502,0.,-0.11204058,-0.05761562,0.,-0.00572748,0.0075436
 0,0.,0.63625843,0.,-0.22389012,-0.01680004,0.,0.12181748,-0.13125151,0
 .,0.08998487,-0.24498133,0.,-0.00754360,0.12576854,0.,0.02828458,0.567
 77363,-0.00522800,0.,0.,0.00296985,0.,0.,-0.00052096,0.,0.,-0.05414960
 ,0.,0.,0.00668892,0.,0.,0.12528534,0.,-0.02673507,-0.00748215,0.,0.036
 37628,-0.02513863,0.,0.01094869,0.01429689,0.,-0.17095542,-0.03279742,
 0.,-0.02313436,0.00771729,0.,0.75187807,0.,-0.08277462,-0.00252687,0.,
 0.03629257,-0.08720460,0.,0.05342936,0.05850758,0.,-0.09444960,-0.1411
 6560,0.,0.02837650,-0.05190066,0.,-0.03564168,0.58800631,-0.00522800,0
 .,0.,-0.00052096,0.,0.,0.00296985,0.,0.,0.00668892,0.,0.,-0.05414960,0
 .,0.,-0.05745126,0.,0.,0.12528534,0.,-0.02673516,0.00748215,0.,0.01094
 869,-0.01429689,0.,0.03637628,0.02513863,0.,-0.02313436,-0.00771729,0.
 ,-0.17095542,0.03279742,0.,-0.43785731,0.00887223,0.,0.75187807,0.,0.0
 8277462,-0.00252687,0.,-0.05342936,0.05850758,0.,-0.03629257,-0.087204
 60,0.,-0.02837650,-0.05190066,0.,0.09444960,-0.14116560,0.,-0.00887223
 ,-0.08595608,0.,0.03564168,0.58800631,-0.02577376,0.,0.,0.00224316,0.,
 0.,0.00224316,0.,0.,0.00417047,0.,0.,0.00417047,0.,0.,0.00005588,0.,0.
 ,0.00005588,0.,0.,0.01839727,0.,-0.06068720,0.,0.,0.00300234,0.0281818
 8,0.,0.00300234,-0.02818188,0.,-0.00480629,0.00413350,0.,-0.00480629,-
 0.00413350,0.,-0.00057343,-0.00185111,0.,-0.00057343,0.00185111,0.,0.0
 6414059,0.,0.00000003,-0.33596805,0.,-0.00162772,-0.01236117,0.,0.0016
 2772,-0.01236117,0.,0.00244062,0.00116616,0.,-0.00244062,0.00116616,0.
 ,0.00037718,0.00051817,0.,-0.00037718,0.00051816,0.,0.,0.35654805,0.00
 667538,0.,0.,-0.04317913,0.,0.,0.00557976,0.,0.,0.00730812,0.,0.,0.000
 44755,0.,0.,0.00878297,0.,0.,0.00004677,0.,0.,-0.00302361,0.,0.,0.0264
 8281,0.,-0.01956342,-0.01947614,0.,-0.22313885,-0.12988906,0.,-0.00455
 167,0.00258139,0.,0.00697922,0.00440395,0.,0.00029685,0.00195065,0.,0.
 00129333,0.00192996,0.,0.00035854,-0.00037795,0.,0.00094343,0.00031813
 ,0.,0.23721048,0.,0.00865833,0.00982284,0.,-0.12808554,-0.16493316,0.,
 0.00465622,0.00233697,0.,-0.02681250,-0.01777533,0.,0.00002248,-0.0026
 9165,0.,0.00320549,-0.00479843,0.,-0.00015594,0.00120920,0.,0.00016673
 ,0.00115021,0.,0.13869437,0.17595438,0.00667538,0.,0.,0.00557976,0.,0.
 ,-0.04317913,0.,0.,0.00044755,0.,0.,0.00730812,0.,0.,0.00004677,0.,0.,
 0.00878297,0.,0.,-0.00302361,0.,0.,-0.00117474,0.,0.,0.02648281,0.,-0.
 01956342,0.01947614,0.,-0.00455167,-0.00258139,0.,-0.22313885,0.129889
 06,0.,0.00029685,-0.00195065,0.,0.00697922,-0.00440395,0.,0.00035854,0
 .00037795,0.,0.00129333,-0.00192996,0.,0.00094343,-0.00031813,0.,-0.00
 133045,0.00057070,0.,0.23721048,0.,-0.00865829,0.00982284,0.,-0.004656
 22,0.00233697,0.,0.12808554,-0.16493316,0.,-0.00002248,-0.00269165,0.,
 0.02681250,-0.01777533,0.,0.00015594,0.00120920,0.,-0.00320549,-0.0047
 9843,0.,-0.00016673,0.00115021,0.,-0.00057070,0.00013860,0.,-0.1386943
 7,0.17595438,0.00715155,0.,0.,0.00398249,0.,0.,-0.00004164,0.,0.,-0.03
 005177,0.,0.,0.00029657,0.,0.,0.00297471,0.,0.,0.00237570,0.,0.,0.0004
 9242,0.,0.,-0.00567336,0.,0.,-0.00052710,0.,0.,0.02053050,0.,0.0042112
 8,0.00099880,0.,-0.00736272,0.00181582,0.,-0.00103056,-0.00139629,0.,-
 0.31989924,0.05986649,0.,0.00066508,0.00102741,0.,-0.01708543,0.006916
 54,0.,-0.00016761,-0.00447181,0.,-0.00039337,0.00011851,0.,0.00146796,
 0.00015467,0.,-0.00005367,0.00002676,0.,0.33974177,0.,0.00252972,-0.00
 419677,0.,0.03124167,-0.00609768,0.,-0.00255170,-0.00271395,0.,0.06055
 630,-0.07201688,0.,0.00028002,0.00250820,0.,-0.02657727,0.00703338,0.,
 -0.00139681,-0.00491648,0.,0.00120651,-0.00070123,0.,0.00039449,0.0007
 3927,0.,0.00009383,0.00005169,0.,-0.06472563,0.07938293,0.00715155,0.,
 0.,-0.00004164,0.,0.,0.00398249,0.,0.,0.00029657,0.,0.,-0.03005177,0.,
 0.,0.00237570,0.,0.,0.00297471,0.,0.,0.00049242,0.,0.,-0.00052710,0.,0
 .,-0.00567336,0.,0.,-0.00018034,0.,0.,0.02053050,0.,0.00421129,-0.0009
 9880,0.,-0.00103056,0.00139629,0.,-0.00736272,-0.00181582,0.,0.0006650
 8,-0.00102741,0.,-0.31989924,-0.05986649,0.,-0.00016761,0.00447181,0.,
 -0.01708543,-0.00691654,0.,-0.00039337,-0.00011850,0.,-0.00005367,-0.0
 0002676,0.,0.00146796,-0.00015467,0.,-0.00008960,-0.00005215,0.,0.3397
 4177,0.,-0.00252974,-0.00419676,0.,0.00255170,-0.00271395,0.,-0.031241
 67,-0.00609768,0.,-0.00028002,0.00250820,0.,-0.06055630,-0.07201688,0.
 ,0.00139681,-0.00491648,0.,0.02657727,0.00703338,0.,-0.00120651,-0.000
 70123,0.,-0.00009383,0.00005169,0.,-0.00039449,0.00073927,0.,0.0000521
 5,0.00017021,0.,0.06472563,0.07938293,0.00056107,0.,0.,0.00281790,0.,0
 .,-0.00011251,0.,0.,0.00505544,0.,0.,0.00942960,0.,0.,-0.03824968,0.,0
 .,0.00641936,0.,0.,-0.00025008,0.,0.,-0.00086858,0.,0.,-0.00087684,0.,
 0.,-0.00120301,0.,0.,-0.00012671,0.,0.,0.02438832,0.,-0.00085003,-0.00
 021467,0.,-0.00160023,-0.00287734,0.,0.00033660,0.00050573,0.,0.009382
 32,-0.01947121,0.,-0.00381097,-0.00321327,0.,-0.10813685,0.10611126,0.
 ,-0.01620937,0.03206115,0.,0.00010062,0.00002195,0.,0.00000985,-0.0008
 6355,0.,0.00007840,0.00018468,0.,0.00097280,0.00004596,0.,-0.00097668,
 0.00104493,0.,0.12016759,0.,0.00092947,0.00030830,0.,-0.00527396,-0.00
 097231,0.,-0.00114740,-0.00064945,0.,0.01244410,-0.02154305,0.,-0.0000
 3388,0.00290953,0.,0.10811941,-0.27741839,0.,-0.00124041,0.00061247,0.
 ,0.00009781,-0.00006212,0.,0.00020674,-0.00119808,0.,0.00007199,-0.000
 00649,0.,-0.00038431,0.00093171,0.,-0.00000090,-0.00017441,0.,-0.11356
 214,0.29557601,0.00056107,0.,0.,-0.00011251,0.,0.,0.00281790,0.,0.,0.0
 0942960,0.,0.,0.00505544,0.,0.,0.00641936,0.,0.,-0.03824968,0.,0.,-0.0
 0025008,0.,0.,-0.00087684,0.,0.,-0.00086858,0.,0.,-0.00012671,0.,0.,-0
 .00120301,0.,0.,-0.00698427,0.,0.,0.02438832,0.,-0.00085002,0.00021467
 ,0.,0.00033660,-0.00050573,0.,-0.00160023,0.00287734,0.,-0.00381097,0.
 00321327,0.,0.00938232,0.01947121,0.,-0.01620937,-0.03206115,0.,-0.108
 13685,-0.10611126,0.,0.00010062,-0.00002195,0.,0.00007840,-0.00018468,
 0.,0.00000985,0.00086355,0.,-0.00097668,-0.00104493,0.,0.00097280,-0.0
 0004596,0.,0.00053595,-0.00022651,0.,0.12016759,0.,-0.00092944,0.00030
 830,0.,0.00114740,-0.00064945,0.,0.00527396,-0.00097231,0.,0.00003388,
 0.00290953,0.,-0.01244410,-0.02154305,0.,0.00124041,0.00061247,0.,-0.1
 0811941,-0.27741839,0.,-0.00009781,-0.00006212,0.,-0.00007199,-0.00000
 649,0.,-0.00020674,-0.00119808,0.,0.00000090,-0.00017441,0.,0.00038431
 ,0.00093171,0.,0.00022651,0.00168630,0.,0.11356214,0.29557601\\0.,0.,0
 .00010816,0.,-0.00015743,0.00025298,0.,0.00015743,0.00025298,0.,-0.000
 02367,-0.00055697,0.,0.00002367,-0.00055697,0.,0.00058300,0.00022988,0
 .,-0.00058300,0.00022988,0.,0.,-0.00013818,0.,-0.00006745,-0.00006379,
 0.,0.00006745,-0.00006379,0.,-0.00012229,0.00006150,0.,0.00012229,0.00
 006150,0.,-0.00007472,0.00009141,0.,0.00007472,0.00009141\\\@


 ... THE UNIVERSE IS NOT ONLY QUEERER THAN WE SUPPOSE,
 BUT QUEERER THAN WE CAN SUPPOSE ... 

                                   -- J. B. S. HALDANE
 Job cpu time:       0 days  1 hours  7 minutes 14.0 seconds.
 Elapsed time:       0 days  0 hours  5 minutes 36.2 seconds.
 File lengths (MBytes):  RWF=    153 Int=      0 D2E=      0 Chk=     12 Scr=      1
 Normal termination of Gaussian 16 at Thu Jun 16 12:01:55 2022.
