 Entering Gaussian System, Link 0=g16
 AtFile(1): pcseg2.gbs
            -H     0
            S   4   1.00
                  0.754732D+02           0.427821D-02
                  0.113575D+02           0.328672D-01
                  0.260081D+01           0.159578D+00
                  0.735503D+00           0.500000D+00
            S   1   1.00
                  0.231761D+00           1.0000000
            S   1   1.00
                  0.741675D-01           1.0000000
            P   1   1.00
                  0.160000D+01           1.0000000
            P   1   1.00
                  0.450000D+00           1.0000000
            D   1   1.00
                  0.125000D+01           1.0000000
            ****
            -C     0
            S   7   1.00
                  0.731999D+04           0.695369D-03
                  0.109818D+04           0.537138D-02
                  0.250014D+03           0.274734D-01
                  0.707586D+02           0.105078D+00
                  0.228595D+02           0.291262D+00
                  0.803936D+01           0.500000D+00
                  0.289309D+01           0.362224D+00
            S   2   1.00
                  0.521640D+01          -0.957844D-01
                  0.556124D+00           0.500000D+00
            S   1   1.00
                  0.228813D+00           1.0000000
            S   1   1.00
                  0.936338D-01           1.0000000
            P   4   1.00
                  0.339855D+02           0.818395D-02
                  0.772957D+01           0.586921D-01
                  0.224954D+01           0.222514D+00
                  0.767681D+00           0.500000D+00
            P   1   1.00
                  0.263283D+00           1.0000000
            P   1   1.00
                  0.848744D-01           1.0000000
            D   1   1.00
                  0.140000D+01           1.0000000
            D   1   1.00
                  0.450000D+00           1.0000000
            F   1   1.00
                  0.950000D+00           1.0000000
            ****
            -O     0
            S   7   1.00
                  0.135887D+05           0.665492D-03
                  0.203847D+04           0.514222D-02
                  0.464041D+03           0.263472D-01
                  0.131339D+03           0.101500D+00
                  0.425340D+02           0.285877D+00
                  0.150429D+02           0.500000D+00
                  0.546616D+01           0.368211D+00
            S   2   1.00
                  0.100915D+02          -0.100084D+00
                  0.110429D+01           0.500000D+00
            S   1   1.00
                  0.448082D+00           1.0000000
            S   1   1.00
                  0.175325D+00           1.0000000
            P   4   1.00
                  0.608220D+02           0.908253D-02
                  0.140332D+02           0.645878D-01
                  0.418244D+01           0.241502D+00
                  0.142490D+01           0.500000D+00
            P   1   1.00
                  0.478741D+00           1.0000000
            P   1   1.00
                  0.146257D+00           1.0000000
            D   1   1.00
                  0.220000D+01           1.0000000
            D   1   1.00
                  0.650000D+00           1.0000000
            F   1   1.00
                  0.110000D+01           1.0000000
            ****
            -N     0
            S   7   1.00
                  0.101643D+05           0.682757D-03
                  0.152481D+04           0.527488D-02
                  0.347119D+03           0.270037D-01
                  0.982389D+02           0.103673D+00
                  0.317799D+02           0.289575D+00
                  0.112240D+02           0.500000D+00
                  0.406611D+01           0.364621D+00
            S   2   1.00
                  0.747898D+01          -0.975681D-01
                  0.805040D+00           0.500000D+00
            S   1   1.00
                  0.324626D+00           1.0000000
            S   1   1.00
                  0.128132D+00           1.0000000
            P   4   1.00
                  0.482704D+02           0.829547D-02
                  0.110815D+02           0.596223D-01
                  0.326643D+01           0.227889D+00
                  0.111680D+01           0.500000D+00
            P   1   1.00
                  0.382049D+00           1.0000000
            P   1   1.00
                  0.121222D+00           1.0000000
            D   1   1.00
                  0.180000D+01           1.0000000
            D   1   1.00
                  0.550000D+00           1.0000000
            F   1   1.00
                  0.102000D+01           1.0000000
            ****
            -F     0
            S   7   1.00
                  0.174507D+05           0.655972D-03
                  0.261768D+04           0.506944D-02
                  0.595857D+03           0.259899D-01
                  0.168651D+03           0.100353D+00
                  0.546654D+02           0.284095D+00
                  0.193717D+02           0.500000D+00
                  0.706202D+01           0.370721D+00
            S   2   1.00
                  0.131197D+02          -0.101997D+00
                  0.145046D+01           0.500000D+00
            S   1   1.00
                  0.588255D+00           1.0000000
            S   1   1.00
                  0.227960D+00           1.0000000
            P   4   1.00
                  0.779407D+02           0.931135D-02
                  0.180425D+02           0.663964D-01
                  0.542342D+01           0.246386D+00
                  0.184876D+01           0.500000D+00
            P   1   1.00
                  0.617455D+00           1.0000000
            P   1   1.00
                  0.185496D+00           1.0000000
            D   1   1.00
                  0.280000D+01           1.0000000
            D   1   1.00
                  0.800000D+00           1.0000000
            F   1   1.00
                  0.120000D+01           1.0000000
            ****
            -Cl     0
            S   8   1.00
                  0.154272D+06           0.222473D-03
                  0.231232D+05           0.172590D-02
                  0.526257D+04           0.899286D-02
                  0.148995D+04           0.367724D-01
                  0.485417D+03           0.121446D+00
                  0.174634D+03           0.304148D+00
                  0.672393D+02           0.500000D+00
                  0.265780D+02           0.360252D+00
            S   3   1.00
                  0.131826D+03          -0.531330D-01
                  0.400703D+02          -0.233346D+00
                  0.789448D+01           0.500000D+00
            S   2   1.00
                  0.427711D+01           0.500000D+00
                  0.196233D+01           0.370517D+00
            S   1   1.00
                  0.520793D+00           1.0000000
            S   1   1.00
                  0.181633D+00           1.0000000
            P   7   1.00
                  0.124440D+04           0.988206D-03
                  0.295109D+03           0.829674D-02
                  0.947224D+02           0.430906D-01
                  0.352588D+02           0.148443D+00
                  0.144211D+02           0.344744D+00
                  0.610371D+01           0.500000D+00
                  0.258886D+01           0.348278D+00
            P   2   1.00
                  0.109447D+02          -0.196768D-01
                  0.104413D+01           0.500000D+00
            P   1   1.00
                  0.376184D+00           1.0000000
            P   1   1.00
                  0.120613D+00           1.0000000
            D   1   1.00
                  0.231000D+01           1.0000000
            D   1   1.00
                  0.520000D+00           1.0000000
            F   1   1.00
                  0.720000D+00           1.0000000
            ****
            -S     0
            S   8   1.00
                  0.134700D+06           0.226231D-03
                  0.201904D+05           0.175488D-02
                  0.459528D+04           0.914190D-02
                  0.130109D+04           0.373551D-01
                  0.423902D+03           0.123121D+00
                  0.152485D+03           0.306801D+00
                  0.586925D+02           0.500000D+00
                  0.231461D+02           0.354358D+00
            S   3   1.00
                  0.116327D+03          -0.491772D-01
                  0.352841D+02          -0.215962D+00
                  0.677831D+01           0.500000D+00
            S   2   1.00
                  0.360404D+01           0.500000D+00
                  0.164871D+01           0.366278D+00
            S   1   1.00
                  0.421821D+00           1.0000000
            S   1   1.00
                  0.147554D+00           1.0000000
            P   7   1.00
                  0.104863D+04           0.105273D-02
                  0.248717D+03           0.879338D-02
                  0.797887D+02           0.453358D-01
                  0.296023D+02           0.154476D+00
                  0.120627D+02           0.352366D+00
                  0.507628D+01           0.500000D+00
                  0.213375D+01           0.346429D+00
            P   2   1.00
                  0.928958D+01          -0.185932D-01
                  0.837819D+00           0.500000D+00
            P   1   1.00
                  0.301495D+00           1.0000000
            P   1   1.00
                  0.974740D-01           1.0000000
            D   1   1.00
                  0.210000D+01           1.0000000
            D   1   1.00
                  0.480000D+00           1.0000000
            F   1   1.00
                  0.660000D+00           1.0000000
            ****
            -Br     0
            S    10   1.00
                  0.233625D+07           0.532336D-04
                  0.349961D+06           0.413715D-03
                  0.796444D+05           0.217123D-02
                  0.225555D+05           0.910109D-02
                  0.735546D+04           0.323789D-01
                  0.265352D+04           0.988755D-01
                  0.103517D+04           0.248138D+00
                  0.422205D+03           0.474328D+00
                  0.180035D+03           0.500000D+00
                  0.793308D+02           0.187769D+00
            S    4   1.00
                  0.620834D+03          -0.226511D-01
                  0.190829D+03          -0.109497D+00
                  0.312505D+02           0.500000D+00
                  0.135270D+02           0.492812D+00
            S    2   1.00
                  0.216097D+02          -0.165418D+00
                  0.372566D+01           0.500000D+00
            S    1   1.00
                  0.169770D+01           1.0000000
            S    1   1.00
                  0.489332D+00           1.0000000
            S    1   1.00
                  0.175712D+00           1.0000000
            P    8   1.00
                  0.960829D+04           0.478974D-03
                  0.227618D+04           0.417853D-02
                  0.736723D+03           0.229315D-01
                  0.281579D+03           0.892653D-01
                  0.118395D+03           0.255288D+00
                  0.527481D+02           0.479074D+00
                  0.245098D+02           0.500000D+00
                  0.112009D+02           0.200944D+00
            P    4   1.00
                  0.587849D+02          -0.189674D-01
                  0.918962D+01           0.264104D+00
                  0.413895D+01           0.500000D+00
                  0.184225D+01           0.319316D+00
            P    1   1.00
                  0.713862D+00           1.0000000
            P    1   1.00
                  0.274232D+00           1.0000000
            P    1   1.00
                  0.944411D-01           1.0000000
            D    7   1.00
                  0.398470D+03           0.204066D-02
                  0.118967D+03           0.175171D-01
                  0.450197D+02           0.829708D-01
                  0.190320D+02           0.236284D+00
                  0.855686D+01           0.428468D+00
                  0.382950D+01           0.500000D+00
                  0.166291D+01           0.349360D+00
            D    1   1.00
                  0.672953D+00           1.0000000
            D    1   1.00
                  0.252000D+00           1.0000000
            F    1   1.00
                  0.530000D+00           1.0000000
            ****
            -Si     0
            S    8   1.00
                  0.996133D+05           0.235546D-03
                  0.149311D+05           0.182707D-02
                  0.339820D+04           0.951425D-02
                  0.962140D+03           0.388172D-01
                  0.313430D+03           0.127328D+00
                  0.112683D+03           0.313522D+00
                  0.433372D+02           0.500000D+00
                  0.170029D+02           0.340347D+00
            S    3   1.00
                  0.884208D+02          -0.404451D-01
                  0.266756D+02          -0.178059D+00
                  0.479640D+01           0.500000D+00
            S    2   1.00
                  0.239385D+01           0.500000D+00
                  0.108333D+01           0.338016D+00
            S    1   1.00
                  0.252420D+00           1.0000000
            S    1   1.00
                  0.891210D-01           1.0000000
            P    7   1.00
                  0.709901D+03           0.123028D-02
                  0.168426D+03           0.101366D-01
                  0.539946D+02           0.511840D-01
                  0.198646D+02           0.169967D+00
                  0.801369D+01           0.370717D+00
                  0.331870D+01           0.500000D+00
                  0.136112D+01           0.344128D+00
            P    2   1.00
                  0.622158D+01          -0.166609D-01
                  0.503049D+00           0.500000D+00
            P    1   1.00
                  0.179848D+00           1.0000000
            P    1   1.00
                  0.591912D-01           1.0000000
            D    1   1.00
                  0.168000D+01           1.0000000
            D    1   1.00
                  0.380000D+00           1.0000000
            F    1   1.00
                  0.540000D+00           1.0000000
            ****
            -P     0
            S    8   1.00
                  0.116416D+06           0.230715D-03
                  0.174500D+05           0.178960D-02
                  0.397149D+04           0.932116D-02
                  0.112447D+04           0.380591D-01
                  0.366347D+03           0.125148D+00
                  0.131757D+03           0.310022D+00
                  0.506988D+02           0.500000D+00
                  0.199436D+02           0.347528D+00
            S    3   1.00
                  0.101878D+03          -0.446755D-01
                  0.308249D+02          -0.196376D+00
                  0.573688D+01           0.500000D+00
            S    2   1.00
                  0.296868D+01           0.500000D+00
                  0.135315D+01           0.355098D+00
            S    1   1.00
                  0.332196D+00           1.0000000
            S    1   1.00
                  0.116229D+00           1.0000000
            P    7   1.00
                  0.873928D+03           0.112375D-02
                  0.207298D+03           0.933330D-02
                  0.664628D+02           0.477213D-01
                  0.245665D+02           0.160733D+00
                  0.996820D+01           0.359760D+00
                  0.416536D+01           0.500000D+00
                  0.173022D+01           0.346593D+00
            P    2   1.00
                  0.772530D+01          -0.175718D-01
                  0.657252D+00           0.500000D+00
            P    1   1.00
                  0.239903D+00           1.0000000
            P    1   1.00
                  0.800988D-01           1.0000000
            D    1   1.00
                  0.189000D+01           1.0000000
            D    1   1.00
                  0.430000D+00           1.0000000
            F    1   1.00
                  0.600000D+00           1.0000000
            ****
            
 Initial command:
 /usr/local/apps/g16_b01_avx/g16/l1.exe "/wrk/irikura/Gau-192368.inp" -scrdir="/wrk/irikura/"
 Entering Link 1 = /usr/local/apps/g16_b01_avx/g16/l1.exe PID=    192370.
  
 Copyright (c) 1988-2017, Gaussian, Inc.  All Rights Reserved.
  
 This is part of the Gaussian(R) 16 program.  It is based on
 the Gaussian(R) 09 system (copyright 2009, Gaussian, Inc.),
 the Gaussian(R) 03 system (copyright 2003, Gaussian, Inc.),
 the Gaussian(R) 98 system (copyright 1998, Gaussian, Inc.),
 the Gaussian(R) 94 system (copyright 1995, Gaussian, Inc.),
 the Gaussian 92(TM) system (copyright 1992, Gaussian, Inc.),
 the Gaussian 90(TM) system (copyright 1990, Gaussian, Inc.),
 the Gaussian 88(TM) system (copyright 1988, Gaussian, Inc.),
 the Gaussian 86(TM) system (copyright 1986, Carnegie Mellon
 University), and the Gaussian 82(TM) system (copyright 1983,
 Carnegie Mellon University). Gaussian is a federally registered
 trademark of Gaussian, Inc.
  
 This software contains proprietary and confidential information,
 including trade secrets, belonging to Gaussian, Inc.
  
 This software is provided under written license and may be
 used, copied, transmitted, or stored only in accord with that
 written license.
  
 The following legend is applicable only to US Government
 contracts under FAR:
  
                    RESTRICTED RIGHTS LEGEND
  
 Use, reproduction and disclosure by the US Government is
 subject to restrictions as set forth in subparagraphs (a)
 and (c) of the Commercial Computer Software - Restricted
 Rights clause in FAR 52.227-19.
  
 Gaussian, Inc.
 340 Quinnipiac St., Bldg. 40, Wallingford CT 06492
  
  
 ---------------------------------------------------------------
 Warning -- This program may not be used in any manner that
 competes with the business of Gaussian, Inc. or will provide
 assistance to any competitor of Gaussian, Inc.  The licensee
 of this program is prohibited from giving any competitor of
 Gaussian, Inc. access to this program.  By using this program,
 the user acknowledges that Gaussian, Inc. is engaged in the
 business of creating and licensing software in the field of
 computational chemistry and represents and warrants to the
 licensee that it is not a competitor of Gaussian, Inc. and that
 it will not use this program in any manner prohibited above.
 ---------------------------------------------------------------
  

 Cite this work as:
 Gaussian 16, Revision B.01,
 M. J. Frisch, G. W. Trucks, H. B. Schlegel, G. E. Scuseria, 
 M. A. Robb, J. R. Cheeseman, G. Scalmani, V. Barone, 
 G. A. Petersson, H. Nakatsuji, X. Li, M. Caricato, A. V. Marenich, 
 J. Bloino, B. G. Janesko, R. Gomperts, B. Mennucci, H. P. Hratchian, 
 J. V. Ortiz, A. F. Izmaylov, J. L. Sonnenberg, D. Williams-Young, 
 F. Ding, F. Lipparini, F. Egidi, J. Goings, B. Peng, A. Petrone, 
 T. Henderson, D. Ranasinghe, V. G. Zakrzewski, J. Gao, N. Rega, 
 G. Zheng, W. Liang, M. Hada, M. Ehara, K. Toyota, R. Fukuda, 
 J. Hasegawa, M. Ishida, T. Nakajima, Y. Honda, O. Kitao, H. Nakai, 
 T. Vreven, K. Throssell, J. A. Montgomery, Jr., J. E. Peralta, 
 F. Ogliaro, M. J. Bearpark, J. J. Heyd, E. N. Brothers, K. N. Kudin, 
 V. N. Staroverov, T. A. Keith, R. Kobayashi, J. Normand, 
 K. Raghavachari, A. P. Rendell, J. C. Burant, S. S. Iyengar, 
 J. Tomasi, M. Cossi, J. M. Millam, M. Klene, C. Adamo, R. Cammi, 
 J. W. Ochterski, R. L. Martin, K. Morokuma, O. Farkas, 
 J. B. Foresman, and D. J. Fox, Gaussian, Inc., Wallingford CT, 2016.
 
 ******************************************
 Gaussian 16:  ES64L-G16RevB.01 20-Dec-2017
                29-Sep-2023 
 ******************************************
 %chk=cccl2.chk
 %mem=500mw
 %nprocs=4
 Will use up to    4 processors via shared memory.
 ---------------------------------------
 # b3lyp/gen opt freq CPHF(Grid=OneStep)
 ---------------------------------------
 1/18=20,19=15,26=3,38=1/1,3;
 2/9=110,12=2,17=6,18=5,40=1/2;
 3/5=7,11=2,25=1,30=1,71=1,74=-5/1,2,3;
 4//1;
 5/5=2,38=5/2;
 6/7=2,8=2,9=2,10=2,28=1/1;
 7//1,2,3,16;
 1/18=20,19=15,26=3/3(2);
 2/9=110/2;
 99//99;
 2/9=110/2;
 3/5=7,6=1,11=2,25=1,30=1,71=1,74=-5,82=7/1,2,3;
 4/5=5,16=3,69=1/1;
 5/5=2,38=5/2;
 7//1,2,3,16;
 1/18=20,19=15,26=3/3(-5);
 2/9=110/2;
 6/7=2,8=2,9=2,10=2,19=2,28=1/1;
 99/9=1/99;
 ---------------------------------
 dichlorovinylidene, B3LYP/pcseg-2
 ---------------------------------
 Symbolic Z-matrix:
 Charge =  0 Multiplicity = 1
 C                     0.        0.        0.44532 
 C                     0.        0.        1.76273 
 Cl                    0.        1.50546  -0.38966 
 Cl                    0.       -1.50546  -0.38966 
 

 GradGradGradGradGradGradGradGradGradGradGradGradGradGradGradGradGradGrad
 Berny optimization.
 Initialization pass.
                           ----------------------------
                           !    Initial Parameters    !
                           ! (Angstroms and Degrees)  !
 --------------------------                            --------------------------
 ! Name  Definition              Value          Derivative Info.                !
 --------------------------------------------------------------------------------
 ! R1    R(1,2)                  1.3174         estimate D2E/DX2                !
 ! R2    R(1,3)                  1.7215         estimate D2E/DX2                !
 ! R3    R(1,4)                  1.7215         estimate D2E/DX2                !
 ! A1    A(2,1,3)              119.014          estimate D2E/DX2                !
 ! A2    A(2,1,4)              119.014          estimate D2E/DX2                !
 ! A3    A(3,1,4)              121.9721         estimate D2E/DX2                !
 ! D1    D(2,1,4,3)            180.0            estimate D2E/DX2                !
 --------------------------------------------------------------------------------
 Trust Radius=3.00D-01 FncErr=1.00D-07 GrdErr=1.00D-06 EigMax=2.50D+02 EigMin=1.00D-04
 Number of steps in this run=     20 maximum allowed number of steps=    100.
 GradGradGradGradGradGradGradGradGradGradGradGradGradGradGradGradGradGrad

                          Input orientation:                          
 ---------------------------------------------------------------------
 Center     Atomic      Atomic             Coordinates (Angstroms)
 Number     Number       Type             X           Y           Z
 ---------------------------------------------------------------------
      1          6           0        0.000000    0.000000    0.445316
      2          6           0        0.000000    0.000000    1.762732
      3         17           0        0.000000    1.505464   -0.389656
      4         17           0        0.000000   -1.505464   -0.389656
 ---------------------------------------------------------------------
                    Distance matrix (angstroms):
                    1          2          3          4
     1  C    0.000000
     2  C    1.317416   0.000000
     3  Cl   1.721511   2.626632   0.000000
     4  Cl   1.721511   2.626632   3.010928   0.000000
 Stoichiometry    C2Cl2
 Framework group  C2V[C2(CC),SGV(Cl2)]
 Deg. of freedom     3
 Full point group                 C2V     NOp   4
 Largest Abelian subgroup         C2V     NOp   4
 Largest concise Abelian subgroup C2      NOp   2
                         Standard orientation:                         
 ---------------------------------------------------------------------
 Center     Atomic      Atomic             Coordinates (Angstroms)
 Number     Number       Type             X           Y           Z
 ---------------------------------------------------------------------
      1          6           0        0.000000   -0.000000    0.445316
      2          6           0        0.000000   -0.000000    1.762732
      3         17           0        0.000000    1.505464   -0.389656
      4         17           0       -0.000000   -1.505464   -0.389656
 ---------------------------------------------------------------------
 Rotational constants (GHZ):          10.0514801           3.1883433           2.4205435
 General basis read from cards:  (5D, 7F)
 There are    59 symmetry adapted cartesian basis functions of A1  symmetry.
 There are    18 symmetry adapted cartesian basis functions of A2  symmetry.
 There are    28 symmetry adapted cartesian basis functions of B1  symmetry.
 There are    43 symmetry adapted cartesian basis functions of B2  symmetry.
 There are    49 symmetry adapted basis functions of A1  symmetry.
 There are    17 symmetry adapted basis functions of A2  symmetry.
 There are    25 symmetry adapted basis functions of B1  symmetry.
 There are    37 symmetry adapted basis functions of B2  symmetry.
   128 basis functions,   242 primitive gaussians,   148 cartesian basis functions
    23 alpha electrons       23 beta electrons
       nuclear repulsion energy       169.0596649594 Hartrees.
 NAtoms=    4 NActive=    4 NUniq=    3 SFac= 1.78D+00 NAtFMM=   60 NAOKFM=F Big=F
 Integral buffers will be    131072 words long.
 Raffenetti 2 integral format.
 Two-electron integral symmetry is turned on.
 One-electron integrals computed using PRISM.
 NBasis=   128 RedAO= T EigKep=  6.15D-04  NBF=    49    17    25    37
 NBsUse=   128 1.00D-06 EigRej= -1.00D+00 NBFU=    49    17    25    37
 ExpMin= 8.49D-02 ExpMax= 1.54D+05 ExpMxC= 1.49D+03 IAcc=3 IRadAn=         5 AccDes= 0.00D+00
 Harris functional with IExCor=  402 and IRadAn=       5 diagonalized for initial guess.
 HarFok:  IExCor=  402 AccDes= 0.00D+00 IRadAn=         5 IDoV= 1 UseB2=F ITyADJ=14
 ICtDFT=  3500011 ScaDFX=  1.000000  1.000000  1.000000  1.000000
 FoFCou: FMM=F IPFlag=           0 FMFlag=      100000 FMFlg1=           0
         NFxFlg=           0 DoJE=T BraDBF=F KetDBF=T FulRan=T
         wScrn=  0.000000 ICntrl=       500 IOpCl=  0 I1Cent=   200000004 NGrid=           0
         NMat0=    1 NMatS0=      1 NMatT0=    0 NMatD0=    1 NMtDS0=    0 NMtDT0=    0
 Petite list used in FoFCou.
 Initial guess orbital symmetries:
       Occupied  (B2) (A1) (A1) (A1) (B2) (A1) (A1) (B2) (A1) (B2)
                 (B1) (A2) (A1) (B2) (A1) (A1) (B2) (B1) (A1) (A1)
                 (A2) (B2) (B1)
       Virtual   (B2) (B1) (A1) (B2) (A1) (A1) (B1) (B2) (A1) (B2)
                 (B1) (A1) (A1) (B2) (A1) (A2) (B1) (B2) (A1) (A2)
                 (B1) (B2) (A2) (A1) (B1) (B2) (A1) (A1) (B2) (A2)
                 (A1) (B1) (A1) (B2) (A1) (B2) (A1) (B1) (B2) (A2)
                 (B1) (A1) (B1) (A1) (B2) (B2) (A1) (A1) (A2) (B1)
                 (A1) (B2) (A2) (B2) (B1) (A1) (A2) (B2) (B2) (B1)
                 (A1) (A1) (A2) (B1) (B2) (A1) (B2) (A1) (A1) (B1)
                 (A2) (B1) (B2) (A1) (B2) (B1) (A2) (B2) (A1) (B1)
                 (A1) (B2) (A2) (A1) (A2) (B2) (A1) (A1) (B1) (A1)
                 (A2) (B1) (B1) (B2) (A2) (A1) (B2) (B2) (B1) (B2)
                 (A1) (A1) (A1) (A1) (B2)
 The electronic state of the initial guess is 1-A1.
 Keep R1 ints in memory in symmetry-blocked form, NReq=42773371.
 Requested convergence on RMS density matrix=1.00D-08 within 128 cycles.
 Requested convergence on MAX density matrix=1.00D-06.
 Requested convergence on             energy=1.00D-06.
 No special actions if energy rises.
 Integral accuracy reduced to 1.0D-05 until final iterations.
 Initial convergence to 1.0D-05 achieved.  Increase integral accuracy.
 SCF Done:  E(RB3LYP) =  -996.541902137     A.U. after   13 cycles
            NFock= 13  Conv=0.45D-08     -V/T= 2.0011

 **********************************************************************

            Population analysis using the SCF Density.

 **********************************************************************

 Orbital symmetries:
       Occupied  (B2) (A1) (A1) (A1) (B2) (A1) (B2) (A1) (A1) (B2)
                 (A2) (B1) (A1) (B2) (A1) (A1) (B2) (B1) (A1) (A2)
                 (B2) (A1) (B1)
       Virtual   (B2) (A1) (B1) (B2) (A1) (A1) (B2) (B1) (A1) (B2)
                 (B1) (A1) (A1) (B2) (A2) (A1) (B1) (B2) (A2) (A1)
                 (B1) (B2) (A2) (A1) (B1) (B2) (A1) (A1) (B2) (A2)
                 (A1) (B1) (B2) (A1) (A1) (B2) (A1) (B1) (B2) (A2)
                 (A1) (B1) (B1) (A1) (B2) (B2) (A1) (A1) (A2) (B1)
                 (B2) (A1) (A2) (B2) (B1) (A1) (A2) (B2) (B2) (B1)
                 (A1) (A1) (A2) (B1) (B2) (A1) (B2) (A1) (A1) (A2)
                 (B1) (B1) (B2) (A1) (B2) (B1) (A2) (B2) (A1) (B1)
                 (A1) (B2) (A2) (A1) (B2) (A2) (A1) (A1) (B1) (A2)
                 (A1) (B1) (B1) (B2) (A2) (A1) (B2) (B2) (B1) (B2)
                 (A1) (A1) (A1) (A1) (B2)
 The electronic state is 1-A1.
 Alpha  occ. eigenvalues -- -101.57031-101.57031 -10.30140 -10.27101  -9.51427
 Alpha  occ. eigenvalues --   -9.51427  -7.27655  -7.27655  -7.26712  -7.26712
 Alpha  occ. eigenvalues --   -7.26634  -7.26634  -0.95693  -0.88168  -0.76579
 Alpha  occ. eigenvalues --   -0.56160  -0.50795  -0.44342  -0.38588  -0.36959
 Alpha  occ. eigenvalues --   -0.36244  -0.32920  -0.28822
 Alpha virt. eigenvalues --   -0.15577  -0.03211  -0.03044   0.06387   0.08636
 Alpha virt. eigenvalues --    0.13821   0.15705   0.16839   0.20989   0.22048
 Alpha virt. eigenvalues --    0.23865   0.25493   0.28500   0.30894   0.31000
 Alpha virt. eigenvalues --    0.31742   0.34189   0.35460   0.43347   0.44453
 Alpha virt. eigenvalues --    0.51014   0.51390   0.52659   0.57740   0.59845
 Alpha virt. eigenvalues --    0.60604   0.66003   0.69476   0.72897   0.88790
 Alpha virt. eigenvalues --    0.90180   0.97529   1.02192   1.03588   1.05920
 Alpha virt. eigenvalues --    1.11364   1.18340   1.22715   1.23178   1.25204
 Alpha virt. eigenvalues --    1.27499   1.29473   1.55679   1.58121   1.63125
 Alpha virt. eigenvalues --    1.77463   1.86565   1.89875   2.02380   2.05021
 Alpha virt. eigenvalues --    2.06507   2.06984   2.07323   2.07491   2.07515
 Alpha virt. eigenvalues --    2.12494   2.14954   2.15404   2.16707   2.17188
 Alpha virt. eigenvalues --    2.24634   2.29355   2.30680   2.31063   2.40670
 Alpha virt. eigenvalues --    2.45756   2.52720   2.60997   2.94315   3.12202
 Alpha virt. eigenvalues --    3.14368   3.22617   3.23661   3.25215   3.33515
 Alpha virt. eigenvalues --    3.40489   3.44765   3.45530   3.46207   3.50974
 Alpha virt. eigenvalues --    3.53224   3.60460   3.64613   3.78032   3.90248
 Alpha virt. eigenvalues --    3.91675   3.95403   4.00551   4.05306   4.13594
 Alpha virt. eigenvalues --    4.15512   4.25834   4.33232   4.39679   4.40973
 Alpha virt. eigenvalues --    4.52398   4.62265   4.77408   4.87550   5.00823
 Alpha virt. eigenvalues --    5.15436   5.29228   5.65734  32.89124  33.28743
          Condensed to atoms (all electrons):
               1          2          3          4
     1  C    5.156952   0.177646   0.266129   0.266129
     2  C    0.177646   5.970659  -0.031979  -0.031979
     3  Cl   0.266129  -0.031979  16.845244  -0.054995
     4  Cl   0.266129  -0.031979  -0.054995  16.845244
 Mulliken charges:
               1
     1  C    0.133143
     2  C   -0.084346
     3  Cl  -0.024399
     4  Cl  -0.024399
 Sum of Mulliken charges =  -0.00000
 Mulliken charges with hydrogens summed into heavy atoms:
               1
     1  C    0.133143
     2  C   -0.084346
     3  Cl  -0.024399
     4  Cl  -0.024399
 Electronic spatial extent (au):  <R**2>=            447.5448
 Charge=             -0.0000 electrons
 Dipole moment (field-independent basis, Debye):
    X=              0.0000    Y=             -0.0000    Z=             -1.6818  Tot=              1.6818
 Quadrupole moment (field-independent basis, Debye-Ang):
   XX=            -37.1736   YY=            -33.6146   ZZ=            -40.9895
   XY=             -0.0000   XZ=              0.0000   YZ=              0.0000
 Traceless Quadrupole moment (field-independent basis, Debye-Ang):
   XX=              0.0856   YY=              3.6446   ZZ=             -3.7302
   XY=             -0.0000   XZ=              0.0000   YZ=              0.0000
 Octapole moment (field-independent basis, Debye-Ang**2):
  XXX=              0.0000  YYY=             -0.0000  ZZZ=            -26.3888  XYY=              0.0000
  XXY=              0.0000  XXZ=             -4.5547  XZZ=              0.0000  YZZ=              0.0000
  YYZ=             -6.4444  XYZ=             -0.0000
 Hexadecapole moment (field-independent basis, Debye-Ang**3):
 XXXX=            -43.1980 YYYY=           -350.8622 ZZZZ=           -230.8677 XXXY=             -0.0000
 XXXZ=             -0.0000 YYYX=             -0.0000 YYYZ=              0.0000 ZZZX=             -0.0000
 ZZZY=              0.0000 XXYY=            -71.3417 XXZZ=            -41.1839 YYZZ=            -87.3859
 XXYZ=              0.0000 YYXZ=             -0.0000 ZZXY=             -0.0000
 N-N= 1.690596649594D+02 E-N=-2.703673883631D+03  KE= 9.954847960833D+02
 Symmetry A1   KE= 4.854457932197D+02
 Symmetry A2   KE= 4.626955591579D+01
 Symmetry B1   KE= 4.840509962807D+01
 Symmetry B2   KE= 4.153643473197D+02
 Calling FoFJK, ICntrl=      2127 FMM=F ISym2X=1 I1Cent= 0 IOpClX= 0 NMat=1 NMatS=1 NMatT=0.
 ***** Axes restored to original set *****
 -------------------------------------------------------------------
 Center     Atomic                   Forces (Hartrees/Bohr)
 Number     Number              X              Y              Z
 -------------------------------------------------------------------
      1        6          -0.000000000    0.000000000   -0.000181486
      2        6          -0.000000000   -0.000000000    0.000044673
      3       17           0.000000000    0.000018580    0.000068407
      4       17           0.000000000   -0.000018580    0.000068407
 -------------------------------------------------------------------
 Cartesian Forces:  Max     0.000181486 RMS     0.000061225

 GradGradGradGradGradGradGradGradGradGradGradGradGradGradGradGradGradGrad
 Berny optimization.
 FormGI is forming the generalized inverse of G from B-inverse, IUseBI=4.
 Internal  Forces:  Max     0.000149285 RMS     0.000071712
 Search for a local minimum.
 Step number   1 out of a maximum of   20
 All quantities printed in internal units (Hartrees-Bohrs-Radians)
 Mixed Optimization -- En-DIIS/RFO-DIIS
 Second derivative matrix not updated -- first step.
 The second derivative matrix:
                          R1        R2        R3        A1        A2
           R1           0.62580
           R2           0.00000   0.33421
           R3           0.00000   0.00000   0.33421
           A1           0.00000   0.00000   0.00000   0.25000
           A2           0.00000   0.00000   0.00000   0.00000   0.25000
           A3           0.00000   0.00000   0.00000   0.00000   0.00000
           D1           0.00000   0.00000   0.00000   0.00000   0.00000
                          A3        D1
           A3           0.25000
           D1           0.00000   0.00747
 ITU=  0
     Eigenvalues ---    0.00747   0.25000   0.25000   0.33421   0.33421
     Eigenvalues ---    0.62580
 RFO step:  Lambda=-1.38620501D-07 EMin= 7.46934884D-03
 Linear search not attempted -- first point.
 Iteration  1 RMS(Cart)=  0.00039089 RMS(Int)=  0.00000008
 Iteration  2 RMS(Cart)=  0.00000007 RMS(Int)=  0.00000000
 ClnCor:  largest displacement from symmetrization is 2.67D-10 for atom     1.
 Variable       Old X    -DE/DX   Delta X   Delta X   Delta X     New X
                                 (Linear)    (Quad)   (Total)
    R1        2.48956   0.00004   0.00000   0.00007   0.00007   2.48963
    R2        3.25318  -0.00002   0.00000  -0.00005  -0.00005   3.25313
    R3        3.25318  -0.00002   0.00000  -0.00005  -0.00005   3.25313
    A1        2.07719  -0.00007   0.00000  -0.00030  -0.00030   2.07689
    A2        2.07719  -0.00007   0.00000  -0.00030  -0.00030   2.07689
    A3        2.12881   0.00015   0.00000   0.00060   0.00060   2.12941
    D1        3.14159   0.00000   0.00000   0.00000   0.00000   3.14159
         Item               Value     Threshold  Converged?
 Maximum Force            0.000149     0.000450     YES
 RMS     Force            0.000072     0.000300     YES
 Maximum Displacement     0.000455     0.001800     YES
 RMS     Displacement     0.000391     0.001200     YES
 Predicted change in Energy=-6.931025D-08
 Optimization completed.
    -- Stationary point found.
                           ----------------------------
                           !   Optimized Parameters   !
                           ! (Angstroms and Degrees)  !
 --------------------------                            --------------------------
 ! Name  Definition              Value          Derivative Info.                !
 --------------------------------------------------------------------------------
 ! R1    R(1,2)                  1.3174         -DE/DX =    0.0                 !
 ! R2    R(1,3)                  1.7215         -DE/DX =    0.0                 !
 ! R3    R(1,4)                  1.7215         -DE/DX =    0.0                 !
 ! A1    A(2,1,3)              119.014          -DE/DX =   -0.0001              !
 ! A2    A(2,1,4)              119.014          -DE/DX =   -0.0001              !
 ! A3    A(3,1,4)              121.9721         -DE/DX =    0.0001              !
 ! D1    D(2,1,4,3)            180.0            -DE/DX =    0.0                 !
 --------------------------------------------------------------------------------
 GradGradGradGradGradGradGradGradGradGradGradGradGradGradGradGradGradGrad

                          Input orientation:                          
 ---------------------------------------------------------------------
 Center     Atomic      Atomic             Coordinates (Angstroms)
 Number     Number       Type             X           Y           Z
 ---------------------------------------------------------------------
      1          6           0        0.000000    0.000000    0.445316
      2          6           0        0.000000    0.000000    1.762732
      3         17           0        0.000000    1.505464   -0.389656
      4         17           0       -0.000000   -1.505464   -0.389656
 ---------------------------------------------------------------------
                    Distance matrix (angstroms):
                    1          2          3          4
     1  C    0.000000
     2  C    1.317416   0.000000
     3  Cl   1.721511   2.626632   0.000000
     4  Cl   1.721511   2.626632   3.010928   0.000000
 Stoichiometry    C2Cl2
 Framework group  C2V[C2(CC),SGV(Cl2)]
 Deg. of freedom     3
 Full point group                 C2V     NOp   4
 Largest Abelian subgroup         C2V     NOp   4
 Largest concise Abelian subgroup C2      NOp   2
                         Standard orientation:                         
 ---------------------------------------------------------------------
 Center     Atomic      Atomic             Coordinates (Angstroms)
 Number     Number       Type             X           Y           Z
 ---------------------------------------------------------------------
      1          6           0       -0.000000    0.000000    0.445316
      2          6           0       -0.000000    0.000000    1.762732
      3         17           0        0.000000    1.505464   -0.389656
      4         17           0       -0.000000   -1.505464   -0.389656
 ---------------------------------------------------------------------
 Rotational constants (GHZ):          10.0514801           3.1883433           2.4205435
 1\1\GINC-GAMBA\FOpt\RB3LYP\Gen\C2Cl2\IRIKURA\29-Sep-2023\0\\# b3lyp/ge
 n opt freq CPHF(Grid=OneStep)\\dichlorovinylidene, B3LYP/pcseg-2\\0,1\
 C,0.,0.,0.445316\C,0.,0.,1.762732\Cl,0.,1.505464,-0.389656\Cl,0.,-1.50
 5464,-0.389656\\Version=ES64L-G16RevB.01\State=1-A1\HF=-996.5419021\RM
 SD=4.532e-09\RMSF=6.122e-05\Dipole=0.,0.,-0.6616774\Quadrupole=0.06364
 17,2.7096947,-2.7733365,0.,0.,0.\PG=C02V [C2(C1C1),SGV(Cl2)]\\@


 THERE IS NOTHING NOBLE IN BEING SUPERIOR TO SOME OTHER MAN.
 TRUE NOBILITY IS BEING SUPERIOR TO YOUR FORMER SELF.

                                                   -- HINDU PROVERB
 Job cpu time:       0 days  0 hours  0 minutes 22.3 seconds.
 Elapsed time:       0 days  0 hours  0 minutes  5.6 seconds.
 File lengths (MBytes):  RWF=     10 Int=      0 D2E=      0 Chk=      2 Scr=      1
 Normal termination of Gaussian 16 at Fri Sep 29 01:01:04 2023.
 Link1:  Proceeding to internal job step number  2.
 ------------------------------------------------------------------
 #N Geom=AllCheck Guess=TCheck SCRF=Check GenChk RB3LYP/ChkBas Freq
 ------------------------------------------------------------------
 1/10=4,29=7,30=1,38=1,40=1/1,3;
 2/12=2,40=1/2;
 3/5=7,6=2,11=2,14=-4,25=1,30=1,67=1,70=2,71=2,74=-5,82=7,116=1,140=1/1,2,3;
 4/5=101/1;
 5/5=2,38=6,98=1/2;
 8/6=4,10=90,11=11/1;
 11/6=1,8=1,9=11,15=111,16=1/1,2,10;
 10/6=1,60=-420/2;
 6/7=2,8=2,9=2,10=2,28=1/1;
 7/8=1,10=1,25=1/1,2,3,16;
 1/10=4,30=1/3;
 99//99;
 Structure from the checkpoint file:  "cccl2.chk"
 ---------------------------------
 dichlorovinylidene, B3LYP/pcseg-2
 ---------------------------------
 Charge =  0 Multiplicity = 1
 Redundant internal coordinates found in file.  (old form).
 C,0,0.,0.,0.445316
 C,0,0.,0.,1.762732
 Cl,0,0.,1.505464,-0.389656
 Cl,0,0.,-1.505464,-0.389656
 Recover connectivity data from disk.

 GradGradGradGradGradGradGradGradGradGradGradGradGradGradGradGradGradGrad
 Berny optimization.
 Initialization pass.
                           ----------------------------
                           !    Initial Parameters    !
                           ! (Angstroms and Degrees)  !
 --------------------------                            --------------------------
 ! Name  Definition              Value          Derivative Info.                !
 --------------------------------------------------------------------------------
 ! R1    R(1,2)                  1.3174         calculate D2E/DX2 analytically  !
 ! R2    R(1,3)                  1.7215         calculate D2E/DX2 analytically  !
 ! R3    R(1,4)                  1.7215         calculate D2E/DX2 analytically  !
 ! A1    A(2,1,3)              119.014          calculate D2E/DX2 analytically  !
 ! A2    A(2,1,4)              119.014          calculate D2E/DX2 analytically  !
 ! A3    A(3,1,4)              121.9721         calculate D2E/DX2 analytically  !
 ! D1    D(2,1,4,3)            180.0            calculate D2E/DX2 analytically  !
 --------------------------------------------------------------------------------
 Trust Radius=3.00D-01 FncErr=1.00D-07 GrdErr=1.00D-07 EigMax=2.50D+02 EigMin=1.00D-04
 Number of steps in this run=      2 maximum allowed number of steps=      2.
 GradGradGradGradGradGradGradGradGradGradGradGradGradGradGradGradGradGrad

                          Input orientation:                          
 ---------------------------------------------------------------------
 Center     Atomic      Atomic             Coordinates (Angstroms)
 Number     Number       Type             X           Y           Z
 ---------------------------------------------------------------------
      1          6           0       -0.000000   -0.000000    0.445316
      2          6           0        0.000000   -0.000000    1.762732
      3         17           0        0.000000    1.505464   -0.389656
      4         17           0       -0.000000   -1.505464   -0.389656
 ---------------------------------------------------------------------
                    Distance matrix (angstroms):
                    1          2          3          4
     1  C    0.000000
     2  C    1.317416   0.000000
     3  Cl   1.721511   2.626632   0.000000
     4  Cl   1.721511   2.626632   3.010928   0.000000
 Stoichiometry    C2Cl2
 Framework group  C2V[C2(CC),SGV(Cl2)]
 Deg. of freedom     3
 Full point group                 C2V     NOp   4
 Largest Abelian subgroup         C2V     NOp   4
 Largest concise Abelian subgroup C2      NOp   2
                         Standard orientation:                         
 ---------------------------------------------------------------------
 Center     Atomic      Atomic             Coordinates (Angstroms)
 Number     Number       Type             X           Y           Z
 ---------------------------------------------------------------------
      1          6           0        0.000000    0.000000    0.445316
      2          6           0        0.000000    0.000000    1.762732
      3         17           0       -0.000000    1.505464   -0.389656
      4         17           0       -0.000000   -1.505464   -0.389656
 ---------------------------------------------------------------------
 Rotational constants (GHZ):          10.0514801           3.1883433           2.4205435
 Basis read from chk: "cccl2.chk" (5D, 7F)
 There are    59 symmetry adapted cartesian basis functions of A1  symmetry.
 There are    18 symmetry adapted cartesian basis functions of A2  symmetry.
 There are    28 symmetry adapted cartesian basis functions of B1  symmetry.
 There are    43 symmetry adapted cartesian basis functions of B2  symmetry.
 There are    49 symmetry adapted basis functions of A1  symmetry.
 There are    17 symmetry adapted basis functions of A2  symmetry.
 There are    25 symmetry adapted basis functions of B1  symmetry.
 There are    37 symmetry adapted basis functions of B2  symmetry.
   128 basis functions,   242 primitive gaussians,   148 cartesian basis functions
    23 alpha electrons       23 beta electrons
       nuclear repulsion energy       169.0596649594 Hartrees.
 NAtoms=    4 NActive=    4 NUniq=    3 SFac= 1.78D+00 NAtFMM=   60 NAOKFM=F Big=F
 Integral buffers will be    131072 words long.
 Raffenetti 2 integral format.
 Two-electron integral symmetry is turned on.
 One-electron integrals computed using PRISM.
 NBasis=   128 RedAO= T EigKep=  6.15D-04  NBF=    49    17    25    37
 NBsUse=   128 1.00D-06 EigRej= -1.00D+00 NBFU=    49    17    25    37
 Initial guess from the checkpoint file:  "cccl2.chk"
 B after Tr=     0.000000   -0.000000   -0.000000
         Rot=    1.000000    0.000000    0.000000   -0.000000 Ang=   0.00 deg.
 Initial guess orbital symmetries:
       Occupied  (B2) (A1) (A1) (A1) (B2) (A1) (B2) (A1) (A1) (B2)
                 (A2) (B1) (A1) (B2) (A1) (A1) (B2) (B1) (A1) (A2)
                 (B2) (A1) (B1)
       Virtual   (B2) (A1) (B1) (B2) (A1) (A1) (B2) (B1) (A1) (B2)
                 (B1) (A1) (A1) (B2) (A2) (A1) (B1) (B2) (A2) (A1)
                 (B1) (B2) (A2) (A1) (B1) (B2) (A1) (A1) (B2) (A2)
                 (A1) (B1) (B2) (A1) (A1) (B2) (A1) (B1) (B2) (A2)
                 (A1) (B1) (B1) (A1) (B2) (B2) (A1) (A1) (A2) (B1)
                 (B2) (A1) (A2) (B2) (B1) (A1) (A2) (B2) (B2) (B1)
                 (A1) (A1) (A2) (B1) (B2) (A1) (B2) (A1) (A1) (A2)
                 (B1) (B1) (B2) (A1) (B2) (B1) (A2) (B2) (A1) (B1)
                 (A1) (B2) (A2) (A1) (B2) (A2) (A1) (A1) (B1) (A2)
                 (A1) (B1) (B1) (B2) (A2) (A1) (B2) (B2) (B1) (B2)
                 (A1) (A1) (A1) (A1) (B2)
 Keep R1 ints in memory in symmetry-blocked form, NReq=42773371.
 Requested convergence on RMS density matrix=1.00D-08 within 128 cycles.
 Requested convergence on MAX density matrix=1.00D-06.
 Requested convergence on             energy=1.00D-06.
 No special actions if energy rises.
 SCF Done:  E(RB3LYP) =  -996.541902137     A.U. after    1 cycles
            NFock=  1  Conv=0.16D-08     -V/T= 2.0011
 DoSCS=F DFT=T ScalE2(SS,OS)=  1.000000  1.000000
 Range of M.O.s used for correlation:     1   128
 NBasis=   128 NAE=    23 NBE=    23 NFC=     0 NFV=     0
 NROrb=    128 NOA=    23 NOB=    23 NVA=   105 NVB=   105

 **** Warning!!: The largest alpha MO coefficient is  0.11491883D+02

 Symmetrizing basis deriv contribution to polar:
 IMax=3 JMax=2 DiffMx= 0.00D+00
 G2DrvN: will do     5 centers at a time, making    1 passes.
 Calling FoFCou, ICntrl=  3107 FMM=F I1Cent=   0 AccDes= 0.00D+00.
 End of G2Drv F.D. properties file   721 does not exist.
 End of G2Drv F.D. properties file   722 does not exist.
 End of G2Drv F.D. properties file   788 does not exist.
          IDoAtm=1111
          Differentiating once with respect to electric field.
                with respect to dipole field.
          Differentiating once with respect to nuclear coordinates.
 Keep R1 ints in memory in symmetry-blocked form, NReq=42776046.
          There are    12 degrees of freedom in the 1st order CPHF.  IDoFFX=4 NUNeed=    12.
     12 vectors produced by pass  0 Test12= 2.01D-14 8.33D-09 XBig12= 6.35D+01 5.53D+00.
 AX will form    12 AO Fock derivatives at one time.
     12 vectors produced by pass  1 Test12= 2.01D-14 8.33D-09 XBig12= 2.45D+01 2.80D+00.
     12 vectors produced by pass  2 Test12= 2.01D-14 8.33D-09 XBig12= 4.40D-01 1.40D-01.
     12 vectors produced by pass  3 Test12= 2.01D-14 8.33D-09 XBig12= 1.12D-02 2.34D-02.
     12 vectors produced by pass  4 Test12= 2.01D-14 8.33D-09 XBig12= 6.46D-05 2.27D-03.
     12 vectors produced by pass  5 Test12= 2.01D-14 8.33D-09 XBig12= 1.45D-07 1.06D-04.
     11 vectors produced by pass  6 Test12= 2.01D-14 8.33D-09 XBig12= 6.07D-10 4.91D-06.
      6 vectors produced by pass  7 Test12= 2.01D-14 8.33D-09 XBig12= 1.73D-12 3.08D-07.
      1 vectors produced by pass  8 Test12= 2.01D-14 8.33D-09 XBig12= 1.03D-14 3.12D-08.
 InvSVY:  IOpt=1 It=  1 EMax= 8.78D-16
 Solved reduced A of dimension    90 with    12 vectors.
 Isotropic polarizability for W=    0.000000       44.57 Bohr**3.
 End of Minotr F.D. properties file   721 does not exist.
 End of Minotr F.D. properties file   722 does not exist.
 End of Minotr F.D. properties file   788 does not exist.

 **********************************************************************

            Population analysis using the SCF Density.

 **********************************************************************

 Orbital symmetries:
       Occupied  (B2) (A1) (A1) (A1) (B2) (A1) (B2) (A1) (A1) (B2)
                 (A2) (B1) (A1) (B2) (A1) (A1) (B2) (B1) (A1) (A2)
                 (B2) (A1) (B1)
       Virtual   (B2) (A1) (B1) (B2) (A1) (A1) (B2) (B1) (A1) (B2)
                 (B1) (A1) (A1) (B2) (A2) (A1) (B1) (B2) (A2) (A1)
                 (B1) (B2) (A2) (A1) (B1) (B2) (A1) (A1) (B2) (A2)
                 (A1) (B1) (B2) (A1) (A1) (B2) (A1) (B1) (B2) (A2)
                 (A1) (B1) (B1) (A1) (B2) (B2) (A1) (A1) (A2) (B1)
                 (B2) (A1) (A2) (B2) (B1) (A1) (A2) (B2) (B2) (B1)
                 (A1) (A1) (A2) (B1) (B2) (A1) (B2) (A1) (A1) (A2)
                 (B1) (B1) (B2) (A1) (B2) (B1) (A2) (B2) (A1) (B1)
                 (A1) (B2) (A2) (A1) (B2) (A2) (A1) (A1) (B1) (A2)
                 (A1) (B1) (B1) (B2) (A2) (A1) (B2) (B2) (B1) (B2)
                 (A1) (A1) (A1) (A1) (B2)
 The electronic state is 1-A1.
 Alpha  occ. eigenvalues -- -101.57031-101.57031 -10.30141 -10.27101  -9.51427
 Alpha  occ. eigenvalues --   -9.51427  -7.27655  -7.27655  -7.26712  -7.26712
 Alpha  occ. eigenvalues --   -7.26634  -7.26634  -0.95693  -0.88168  -0.76579
 Alpha  occ. eigenvalues --   -0.56160  -0.50795  -0.44342  -0.38588  -0.36959
 Alpha  occ. eigenvalues --   -0.36244  -0.32920  -0.28822
 Alpha virt. eigenvalues --   -0.15577  -0.03211  -0.03044   0.06387   0.08636
 Alpha virt. eigenvalues --    0.13821   0.15705   0.16839   0.20989   0.22048
 Alpha virt. eigenvalues --    0.23865   0.25493   0.28500   0.30894   0.31000
 Alpha virt. eigenvalues --    0.31742   0.34189   0.35460   0.43347   0.44453
 Alpha virt. eigenvalues --    0.51014   0.51390   0.52659   0.57740   0.59845
 Alpha virt. eigenvalues --    0.60604   0.66003   0.69476   0.72897   0.88790
 Alpha virt. eigenvalues --    0.90180   0.97529   1.02192   1.03588   1.05920
 Alpha virt. eigenvalues --    1.11364   1.18340   1.22715   1.23178   1.25204
 Alpha virt. eigenvalues --    1.27499   1.29473   1.55679   1.58121   1.63125
 Alpha virt. eigenvalues --    1.77463   1.86565   1.89875   2.02380   2.05021
 Alpha virt. eigenvalues --    2.06507   2.06984   2.07323   2.07491   2.07515
 Alpha virt. eigenvalues --    2.12494   2.14954   2.15404   2.16707   2.17188
 Alpha virt. eigenvalues --    2.24634   2.29355   2.30680   2.31063   2.40670
 Alpha virt. eigenvalues --    2.45756   2.52720   2.60997   2.94315   3.12202
 Alpha virt. eigenvalues --    3.14368   3.22617   3.23661   3.25215   3.33515
 Alpha virt. eigenvalues --    3.40489   3.44765   3.45530   3.46207   3.50974
 Alpha virt. eigenvalues --    3.53224   3.60460   3.64613   3.78032   3.90248
 Alpha virt. eigenvalues --    3.91675   3.95403   4.00551   4.05306   4.13594
 Alpha virt. eigenvalues --    4.15512   4.25834   4.33232   4.39679   4.40973
 Alpha virt. eigenvalues --    4.52398   4.62265   4.77408   4.87550   5.00823
 Alpha virt. eigenvalues --    5.15436   5.29228   5.65734  32.89124  33.28743
          Condensed to atoms (all electrons):
               1          2          3          4
     1  C    5.156953   0.177646   0.266129   0.266129
     2  C    0.177646   5.970658  -0.031979  -0.031979
     3  Cl   0.266129  -0.031979  16.845244  -0.054995
     4  Cl   0.266129  -0.031979  -0.054995  16.845244
 Mulliken charges:
               1
     1  C    0.133143
     2  C   -0.084346
     3  Cl  -0.024399
     4  Cl  -0.024399
 Sum of Mulliken charges =  -0.00000
 Mulliken charges with hydrogens summed into heavy atoms:
               1
     1  C    0.133143
     2  C   -0.084346
     3  Cl  -0.024399
     4  Cl  -0.024399
 APT charges:
               1
     1  C    0.351581
     2  C    0.000456
     3  Cl  -0.176019
     4  Cl  -0.176019
 Sum of APT charges =  -0.00000
 APT charges with hydrogens summed into heavy atoms:
               1
     1  C    0.351581
     2  C    0.000456
     3  Cl  -0.176019
     4  Cl  -0.176019
 Electronic spatial extent (au):  <R**2>=            447.5448
 Charge=             -0.0000 electrons
 Dipole moment (field-independent basis, Debye):
    X=              0.0000    Y=              0.0000    Z=             -1.6818  Tot=              1.6818
 Quadrupole moment (field-independent basis, Debye-Ang):
   XX=            -37.1736   YY=            -33.6146   ZZ=            -40.9895
   XY=             -0.0000   XZ=              0.0000   YZ=              0.0000
 Traceless Quadrupole moment (field-independent basis, Debye-Ang):
   XX=              0.0856   YY=              3.6446   ZZ=             -3.7302
   XY=             -0.0000   XZ=              0.0000   YZ=              0.0000
 Octapole moment (field-independent basis, Debye-Ang**2):
  XXX=              0.0000  YYY=              0.0000  ZZZ=            -26.3888  XYY=              0.0000
  XXY=             -0.0000  XXZ=             -4.5547  XZZ=              0.0000  YZZ=             -0.0000
  YYZ=             -6.4444  XYZ=             -0.0000
 Hexadecapole moment (field-independent basis, Debye-Ang**3):
 XXXX=            -43.1980 YYYY=           -350.8622 ZZZZ=           -230.8677 XXXY=             -0.0000
 XXXZ=             -0.0000 YYYX=             -0.0000 YYYZ=              0.0000 ZZZX=             -0.0000
 ZZZY=             -0.0000 XXYY=            -71.3417 XXZZ=            -41.1839 YYZZ=            -87.3859
 XXYZ=             -0.0000 YYXZ=             -0.0000 ZZXY=             -0.0000
 N-N= 1.690596649594D+02 E-N=-2.703673885267D+03  KE= 9.954847962435D+02
 Symmetry A1   KE= 4.854457931570D+02
 Symmetry A2   KE= 4.626955591899D+01
 Symmetry B1   KE= 4.840509970294D+01
 Symmetry B2   KE= 4.153643474646D+02
  Exact polarizability:  27.804   0.000  55.008   0.000  -0.000  50.902
 Approx polarizability:  41.984   0.000  88.383   0.000  -0.000  88.408
 Calling FoFJK, ICntrl=    100127 FMM=F ISym2X=1 I1Cent= 0 IOpClX= 0 NMat=1 NMatS=1 NMatT=0.
 Full mass-weighted force constant matrix:
 Low frequencies ---   -2.2329   -0.0063   -0.0055   -0.0032    0.4430    4.3133
 Low frequencies ---  102.8942  263.5392  412.1506
 Diagonal vibrational polarizability:
        0.0030814      45.1770927       0.7778731
 Harmonic frequencies (cm**-1), IR intensities (KM/Mole), Raman scattering
 activities (A**4/AMU), depolarization ratios for plane and unpolarized
 incident light, reduced masses (AMU), force constants (mDyne/A),
 and normal coordinates:
                      1                      2                      3
                     B2                     A1                     B1
 Frequencies --    102.8940               263.5392               412.1506
 Red. masses --     14.1122                23.4614                12.4321
 Frc consts  --      0.0880                 0.9601                 1.2442
 IR Inten    --     15.7702                 0.0344                 0.0195
  Atom  AN      X      Y      Z        X      Y      Z        X      Y      Z
     1   6    -0.00  -0.32  -0.00     0.00   0.00  -0.48     0.92   0.00   0.00
     2   6     0.00   0.90  -0.00    -0.00  -0.00  -0.52    -0.36   0.00   0.00
     3  17     0.00  -0.10   0.19    -0.00   0.47   0.17    -0.10  -0.00   0.00
     4  17     0.00  -0.10  -0.19    -0.00  -0.47   0.17    -0.10  -0.00  -0.00
                      4                      5                      6
                     A1                     B2                     A1
 Frequencies --    584.0246               843.6749              1652.4654
 Red. masses --     18.0217                14.0232                12.0240
 Frc consts  --      3.6217                 5.8810                19.3447
 IR Inten    --      7.9176               134.6624                14.1905
  Atom  AN      X      Y      Z        X      Y      Z        X      Y      Z
     1   6    -0.00   0.00   0.53    -0.00   0.95  -0.00    -0.00  -0.00   0.76
     2   6     0.00  -0.00   0.68     0.00   0.09  -0.00     0.00  -0.00  -0.65
     3  17     0.00   0.30  -0.21     0.00  -0.18   0.11     0.00   0.01  -0.02
     4  17     0.00  -0.30  -0.21     0.00  -0.18  -0.11     0.00  -0.01  -0.02

 -------------------
 - Thermochemistry -
 -------------------
 Temperature   298.150 Kelvin.  Pressure   1.00000 Atm.
 Atom     1 has atomic number  6 and mass  12.00000
 Atom     2 has atomic number  6 and mass  12.00000
 Atom     3 has atomic number 17 and mass  34.96885
 Atom     4 has atomic number 17 and mass  34.96885
 Molecular mass:    93.93771 amu.
 Principal axes and moments of inertia in atomic units:
                           1         2         3
     Eigenvalues --   179.54980 566.04357 745.59337
           X            0.00000   0.00000   1.00000
           Y            1.00000   0.00000   0.00000
           Z            0.00000   1.00000   0.00000
 This molecule is an asymmetric top.
 Rotational symmetry number  2.
 Rotational temperatures (Kelvin)      0.48239     0.15302     0.11617
 Rotational constants (GHZ):          10.05148     3.18834     2.42054
 Zero-point vibrational energy      23080.4 (Joules/Mol)
                                    5.51636 (Kcal/Mol)
 Warning -- explicit consideration of   4 degrees of freedom as
           vibrations may cause significant error
 Vibrational temperatures:    148.04   379.17   592.99   840.28  1213.86
          (Kelvin)           2377.53
 
 Zero-point correction=                           0.008791 (Hartree/Particle)
 Thermal correction to Energy=                    0.013356
 Thermal correction to Enthalpy=                  0.014300
 Thermal correction to Gibbs Free Energy=        -0.019243
 Sum of electronic and zero-point Energies=           -996.533111
 Sum of electronic and thermal Energies=              -996.528546
 Sum of electronic and thermal Enthalpies=            -996.527602
 Sum of electronic and thermal Free Energies=         -996.561146
 
                     E (Thermal)             CV                S
                      KCal/Mol        Cal/Mol-Kelvin    Cal/Mol-Kelvin
 Total                    8.381             12.783             70.599
 Electronic               0.000              0.000              0.000
 Translational            0.889              2.981             39.532
 Rotational               0.889              2.981             24.453
 Vibrational              6.604              6.821              6.615
 Vibration     1          0.605              1.947              3.399
 Vibration     2          0.670              1.740              1.638
 Vibration     3          0.776              1.444              0.919
 Vibration     4          0.941              1.066              0.478
                       Q            Log10(Q)             Ln(Q)
 Total Bot       0.710132D+09          8.851339         20.380961
 Total V=0       0.784978D+13         12.894858         29.691507
 Vib (Bot)       0.402755D-03         -3.394959         -7.817182
 Vib (Bot)    1  0.199342D+01          0.299599          0.689852
 Vib (Bot)    2  0.735722D+00         -0.133286         -0.306903
 Vib (Bot)    3  0.428574D+00         -0.367975         -0.847293
 Vib (Bot)    4  0.259864D+00         -0.585253         -1.347595
 Vib (V=0)       0.445205D+01          0.648560          1.493364
 Vib (V=0)    1  0.255517D+01          0.407420          0.938119
 Vib (V=0)    2  0.138954D+01          0.142872          0.328975
 Vib (V=0)    3  0.115854D+01          0.063911          0.147161
 Vib (V=0)    4  0.106350D+01          0.026737          0.061563
 Electronic      0.100000D+01          0.000000          0.000000
 Translational   0.357861D+08          7.553714         17.393069
 Rotational      0.492702D+05          4.692584         10.805074
 ***** Axes restored to original set *****
 -------------------------------------------------------------------
 Center     Atomic                   Forces (Hartrees/Bohr)
 Number     Number              X              Y              Z
 -------------------------------------------------------------------
      1        6          -0.000000000   -0.000000000   -0.000181485
      2        6          -0.000000000    0.000000000    0.000044711
      3       17          -0.000000000    0.000018609    0.000068387
      4       17           0.000000000   -0.000018609    0.000068387
 -------------------------------------------------------------------
 Cartesian Forces:  Max     0.000181485 RMS     0.000061225
 FormGI is forming the generalized inverse of G from B-inverse, IUseBI=4.

 GradGradGradGradGradGradGradGradGradGradGradGradGradGradGradGradGradGrad
 Berny optimization.
 Internal  Forces:  Max     0.000149278 RMS     0.000071710
 Search for a local minimum.
 Step number   1 out of a maximum of    2
 All quantities printed in internal units (Hartrees-Bohrs-Radians)
 Second derivative matrix not updated -- analytic derivatives used.
 The second derivative matrix:
                          R1        R2        R3        A1        A2
           R1           0.58123
           R2           0.01518   0.23733
           R3           0.01518   0.02880   0.23733
           A1          -0.00269   0.01652  -0.02413   0.03342
           A2          -0.00269  -0.02413   0.01652   0.01692   0.03342
           A3           0.00539   0.00761   0.00761  -0.05034  -0.05034
           D1          -0.00000  -0.00000   0.00000  -0.00000   0.00000
                          A3        D1
           A3           0.10068
           D1           0.00000   0.04532
 ITU=  0
     Eigenvalues ---    0.00824   0.04532   0.14948   0.21678   0.26608
     Eigenvalues ---    0.58282
 Angle between quadratic step and forces=  10.43 degrees.
 Linear search not attempted -- first point.
 Iteration  1 RMS(Cart)=  0.00065702 RMS(Int)=  0.00000022
 Iteration  2 RMS(Cart)=  0.00000021 RMS(Int)=  0.00000000
 ClnCor:  largest displacement from symmetrization is 2.71D-11 for atom     1.
 Variable       Old X    -DE/DX   Delta X   Delta X   Delta X     New X
                                 (Linear)    (Quad)   (Total)
    R1        2.48956   0.00004   0.00000   0.00007   0.00007   2.48962
    R2        3.25318  -0.00002   0.00000  -0.00011  -0.00011   3.25307
    R3        3.25318  -0.00002   0.00000  -0.00011  -0.00011   3.25307
    A1        2.07719  -0.00007   0.00000  -0.00050  -0.00050   2.07669
    A2        2.07719  -0.00007   0.00000  -0.00050  -0.00050   2.07669
    A3        2.12881   0.00015   0.00000   0.00100   0.00100   2.12981
    D1        3.14159   0.00000   0.00000   0.00000   0.00000   3.14159
         Item               Value     Threshold  Converged?
 Maximum Force            0.000149     0.000450     YES
 RMS     Force            0.000072     0.000300     YES
 Maximum Displacement     0.000753     0.001800     YES
 RMS     Displacement     0.000657     0.001200     YES
 Predicted change in Energy=-1.150400D-07
 Optimization completed.
    -- Stationary point found.
                           ----------------------------
                           !   Optimized Parameters   !
                           ! (Angstroms and Degrees)  !
 --------------------------                            --------------------------
 ! Name  Definition              Value          Derivative Info.                !
 --------------------------------------------------------------------------------
 ! R1    R(1,2)                  1.3174         -DE/DX =    0.0                 !
 ! R2    R(1,3)                  1.7215         -DE/DX =    0.0                 !
 ! R3    R(1,4)                  1.7215         -DE/DX =    0.0                 !
 ! A1    A(2,1,3)              119.014          -DE/DX =   -0.0001              !
 ! A2    A(2,1,4)              119.014          -DE/DX =   -0.0001              !
 ! A3    A(3,1,4)              121.9721         -DE/DX =    0.0001              !
 ! D1    D(2,1,4,3)            180.0            -DE/DX =    0.0                 !
 --------------------------------------------------------------------------------
 GradGradGradGradGradGradGradGradGradGradGradGradGradGradGradGradGradGrad


 ----------------------------------------------------------------------

 Electric dipole moment (input orientation):
 (Debye = 10**-18 statcoulomb cm , SI units = C m)
                  (au)            (Debye)         (10**-30 SI)
   Tot        0.661677D+00      0.168181D+01      0.560993D+01
   x          0.000000D+00      0.000000D+00      0.000000D+00
   y          0.000000D+00      0.000000D+00      0.000000D+00
   z         -0.661677D+00     -0.168181D+01     -0.560993D+01

 Dipole polarizability, Alpha (input orientation).
 (esu units = cm**3 , SI units = C**2 m**2 J**-1)
 Alpha(0;0):
               (au)            (10**-24 esu)      (10**-40 SI)
   iso        0.445712D+02      0.660477D+01      0.734880D+01
   aniso      0.254005D+02      0.376396D+01      0.418797D+01
   xx         0.278043D+02      0.412017D+01      0.458431D+01
   yx         0.000000D+00      0.000000D+00      0.000000D+00
   yy         0.550077D+02      0.815129D+01      0.906954D+01
   zx         0.000000D+00      0.000000D+00      0.000000D+00
   zy         0.000000D+00      0.000000D+00      0.000000D+00
   zz         0.509016D+02      0.754285D+01      0.839255D+01

 ----------------------------------------------------------------------

 Dipole orientation:
     6         -0.00000000         -0.00000000         -0.84152528
     6         -0.00000000         -0.00000000         -3.33108071
    17          0.00000000         -2.84491465          0.73634312
    17         -0.00000000          2.84491465          0.73634312

 Electric dipole moment (dipole orientation):
 (Debye = 10**-18 statcoulomb cm , SI units = C m)
                  (au)            (Debye)         (10**-30 SI)
   Tot        0.661677D+00      0.168181D+01      0.560993D+01
   x          0.000000D+00      0.000000D+00      0.000000D+00
   y          0.000000D+00      0.000000D+00      0.000000D+00
   z          0.661677D+00      0.168181D+01      0.560993D+01

 Dipole polarizability, Alpha (dipole orientation).
 (esu units = cm**3 , SI units = C**2 m**2 J**-1)
 Alpha(0;0):
               (au)            (10**-24 esu)      (10**-40 SI)
   iso        0.445712D+02      0.660477D+01      0.734880D+01
   aniso      0.254005D+02      0.376396D+01      0.418797D+01
   xx         0.278043D+02      0.412017D+01      0.458431D+01
   yx         0.000000D+00      0.000000D+00      0.000000D+00
   yy         0.550077D+02      0.815129D+01      0.906954D+01
   zx         0.000000D+00      0.000000D+00      0.000000D+00
   zy         0.000000D+00      0.000000D+00      0.000000D+00
   zz         0.509016D+02      0.754285D+01      0.839255D+01

 ----------------------------------------------------------------------
 1\1\GINC-GAMBA\Freq\RB3LYP\Gen\C2Cl2\IRIKURA\29-Sep-2023\0\\#N Geom=Al
 lCheck Guess=TCheck SCRF=Check GenChk RB3LYP/ChkBas Freq\\dichloroviny
 lidene, B3LYP/pcseg-2\\0,1\C,0.,0.,0.445316\C,0.,0.,1.762732\Cl,0.,1.5
 05464,-0.389656\Cl,0.,-1.505464,-0.389656\\Version=ES64L-G16RevB.01\St
 ate=1-A1\HF=-996.5419021\RMSD=1.622e-09\RMSF=6.122e-05\ZeroPoint=0.008
 7909\Thermal=0.0133563\Dipole=0.,0.,-0.6616765\DipoleDeriv=-0.0238462,
 0.,0.,0.,1.2530969,0.,0.,0.,-0.1745079,-0.1534227,0.,0.,0.,-0.2989095,
 0.,0.,0.,0.4537013,0.0886344,0.,0.,0.,-0.4770937,0.1825968,0.,0.250108
 1,-0.1395967,0.0886344,0.,0.,0.,-0.4770937,-0.1825968,0.,-0.2501081,-0
 .1395967\Polar=27.8042946,0.,55.0076545,0.,0.,50.9016411\Quadrupole=0.
 0636405,2.7096938,-2.7733343,0.,0.,0.\PG=C02V [C2(C1C1),SGV(Cl2)]\NIma
 g=0\\0.06352195,0.,0.25064480,0.,0.,0.73923075,-0.02459939,0.,0.,0.009
 53395,0.,0.02127876,0.,0.,0.00530482,0.,0.,-0.57085432,0.,0.,0.5812306
 2,-0.01946128,0.,0.,0.00753272,0.,0.,0.00596098,0.,-0.13596178,0.07651
 587,0.,-0.01329179,0.01447767,0.,0.18441027,0.,0.08469306,-0.08418821,
 0.,0.00970141,-0.00518815,0.,-0.09269400,0.07510895,-0.01946128,0.,0.,
 0.00753272,0.,0.,0.00596758,0.,0.,0.00596098,0.,-0.13596178,-0.0765158
 7,0.,-0.01329179,-0.01447767,0.,-0.03515669,-0.00170047,0.,0.18441027,
 0.,-0.08469306,-0.08418821,0.,-0.00970141,-0.00518815,0.,0.00170047,0.
 01426742,0.,0.09269400,0.07510895\\0.,0.,0.00018148,0.,0.,-0.00004471,
 0.,-0.00001861,-0.00006839,0.,0.00001861,-0.00006839\\\@


 A MAN BEGINS CUTTING HIS WISDOM TEETH THE 1ST
 TIME HE BITES OFF MORE THAN HE CAN CHEW.
 Job cpu time:       0 days  0 hours  2 minutes 17.3 seconds.
 Elapsed time:       0 days  0 hours  0 minutes 34.4 seconds.
 File lengths (MBytes):  RWF=     13 Int=      0 D2E=      0 Chk=      2 Scr=      1
 Normal termination of Gaussian 16 at Fri Sep 29 01:01:39 2023.
 AtFile(1): ccpvtz-f12.gbs
            -H     0
            S    3   1.00
                 82.6400000              0.0020060
                 12.4100000              0.0153430
                  2.8240000              0.0755790
            S    1   1.00
                  0.7977000              1.0000000
            S    1   1.00
                  0.2581000              1.0000000
            S    1   1.00
                  0.0898900              1.0000000
            P    1   1.00
                  1.5513000              1.0000000
            P    1   1.00
                  0.5580000              1.0000000
            P    1   1.00
                  0.2007000              1.0000000
            D    1   1.00
                  0.4648000              1.0000000
            ****
            -He     0
            S    4   1.00
                528.5000000              0.0009400
                 79.3100000              0.0072140
                 18.0500000              0.0359750
                  5.0850000              0.1277820
            S    1   1.00
                  1.6090000              1.0000000
            S    1   1.00
                  0.5363000              1.0000000
            S    1   1.00
                  0.1833000              1.0000000
            S    1   1.00
                  0.0481900              1.0000000
            P    1   1.00
                  3.7026000              1.0000000
            P    1   1.00
                  1.2284000              1.0000000
            P    1   1.00
                  0.4075000              1.0000000
            D    1   1.00
                  0.6525000              1.0000000
            ****
            -Li     0
            S    9   1.00
               6601.0000000              0.0001170
                989.7000000              0.0009110
                225.7000000              0.0047280
                 64.2900000              0.0191970
                 21.1800000              0.0630470
                  7.7240000              0.1632080
                  3.0030000              0.3148270
                  1.2120000              0.3939360
                  0.4930000              0.1969180
            S    9   1.00
               6601.0000000             -0.0000180
                989.7000000             -0.0001420
                225.7000000             -0.0007410
                 64.2900000             -0.0030200
                 21.1800000             -0.0101230
                  7.7240000             -0.0270940
                  3.0030000             -0.0573590
                  1.2120000             -0.0938950
                  0.4930000             -0.1210910
            S    1   1.00
                  0.0951500              1.0000000
            S    1   1.00
                  0.0479100              1.0000000
            S    1   1.00
                  0.0222000              1.0000000
            S    1   1.00
                  0.0064000              1.0000000
            P    2   1.00
                  6.2500000              0.0033880
                  1.3700000              0.0193160
            P    1   1.00
                  0.3672000              1.0000000
            P    1   1.00
                  0.1192000              1.0000000
            P    1   1.00
                  0.0447400              1.0000000
            P    1   1.00
                  0.0179500              1.0000000
            P    1   1.00
                  0.0075000              1.0000000
            D    1   1.00
                  0.2351180              1.0000000
            D    1   1.00
                  0.1194040              1.0000000
            D    1   1.00
                  0.0606390              1.0000000
            F    1   1.00
                  0.1637750              1.0000000
            F    1   1.00
                  0.0759100              1.0000000
            ****
            -Be     0
            S    9   1.00
              14630.0000000              0.0000920
               2191.0000000              0.0007130
                498.2000000              0.0037350
                140.9000000              0.0154680
                 45.8600000              0.0528740
                 16.4700000              0.1456940
                  6.3190000              0.3026810
                  2.5350000              0.4049360
                  1.0350000              0.2223870
            S    9   1.00
              14630.0000000             -0.0000170
               2191.0000000             -0.0001300
                498.2000000             -0.0006790
                140.9000000             -0.0028570
                 45.8600000             -0.0098130
                 16.4700000             -0.0286090
                  6.3190000             -0.0637600
                  2.5350000             -0.1172310
                  1.0350000             -0.1212020
            S    1   1.00
                  0.2528000              1.0000000
            S    1   1.00
                  0.1052000              1.0000000
            S    1   1.00
                  0.0426100              1.0000000
            S    1   1.00
                  0.0141000              1.0000000
            P    2   1.00
                 14.0300000              0.0040990
                  3.1680000              0.0256260
            P    1   1.00
                  0.9024000              1.0000000
            P    1   1.00
                  0.3036000              1.0000000
            P    1   1.00
                  0.1130000              1.0000000
            P    1   1.00
                  0.0428600              1.0000000
            P    1   1.00
                  0.0084000              1.0000000
            D    1   1.00
                  0.4670460              1.0000000
            D    1   1.00
                  0.2205970              1.0000000
            D    1   1.00
                  0.1041940              1.0000000
            F    1   1.00
                  0.3166400              1.0000000
            F    1   1.00
                  0.1457880              1.0000000
            ****
            -B     0
            S    9   1.00
              23870.0000000              0.0000880
               3575.0000000              0.0006870
                812.8000000              0.0036000
                229.7000000              0.0149490
                 74.6900000              0.0514350
                 26.8100000              0.1433020
                 10.3200000              0.3009350
                  4.1780000              0.4035260
                  1.7270000              0.2253400
            S    9   1.00
              23870.0000000             -0.0000180
               3575.0000000             -0.0001390
                812.8000000             -0.0007250
                229.7000000             -0.0030630
                 74.6900000             -0.0105810
                 26.8100000             -0.0313650
                 10.3200000             -0.0710120
                  4.1780000             -0.1321030
                  1.7270000             -0.1230720
            S    1   1.00
                  0.4704000              1.0000000
            S    1   1.00
                  0.1896000              1.0000000
            S    1   1.00
                  0.0739400              1.0000000
            S    1   1.00
                  0.0272100              1.0000000
            P    2   1.00
                 22.2600000              0.0050950
                  5.0580000              0.0332060
            P    1   1.00
                  1.4870000              1.0000000
            P    1   1.00
                  0.5071000              1.0000000
            P    1   1.00
                  0.1812000              1.0000000
            P    1   1.00
                  0.0646300              1.0000000
            P    1   1.00
                  0.0187800              1.0000000
            D    1   1.00
                  1.4403000              1.0000000
            D    1   1.00
                  0.5333000              1.0000000
            D    1   1.00
                  0.1975000              1.0000000
            F    1   1.00
                  0.8479000              1.0000000
            F    1   1.00
                  0.2484000              1.0000000
            ****
            -C     0
            S    9   1.00
              33980.0000000              0.0000910
               5089.0000000              0.0007040
               1157.0000000              0.0036930
                326.6000000              0.0153600
                106.1000000              0.0529290
                 38.1100000              0.1470430
                 14.7500000              0.3056310
                  6.0350000              0.3993450
                  2.5300000              0.2170510
            S    9   1.00
              33980.0000000             -0.0000190
               5089.0000000             -0.0001510
               1157.0000000             -0.0007850
                326.6000000             -0.0033240
                106.1000000             -0.0115120
                 38.1100000             -0.0341600
                 14.7500000             -0.0771730
                  6.0350000             -0.1414930
[...]
 T. Vreven, K. Throssell, J. A. Montgomery, Jr., J. E. Peralta, 
 F. Ogliaro, M. J. Bearpark, J. J. Heyd, E. N. Brothers, K. N. Kudin, 
 V. N. Staroverov, T. A. Keith, R. Kobayashi, J. Normand, 
 K. Raghavachari, A. P. Rendell, J. C. Burant, S. S. Iyengar, 
 J. Tomasi, M. Cossi, J. M. Millam, M. Klene, C. Adamo, R. Cammi, 
 J. W. Ochterski, R. L. Martin, K. Morokuma, O. Farkas, 
 J. B. Foresman, and D. J. Fox, Gaussian, Inc., Wallingford CT, 2016.
 
 ******************************************
 Gaussian 16:  ES64L-G16RevB.01 20-Dec-2017
                29-Sep-2023 
 ******************************************
 %chk=cccl2.chk
 %mem=500mw
 %nprocs=4
 Will use up to    4 processors via shared memory.
 ---------------------------------
 # rohf/gen geom=check guess=check
 ---------------------------------
 1/29=2,38=1,172=1/1;
 2/12=2,40=1/2;
 3/5=7,11=2,14=-4,25=1,30=1,116=101/1,2,3;
 4/5=1/1;
 5/5=2,38=6/2;
 6/7=2,8=2,9=2,10=2,28=1/1;
 99/5=1,9=1/99;
 ------------------------------------
 dichlorovinylidene, ROHF/cc-pVTZ-F12
 ------------------------------------
 Structure from the checkpoint file:  "cccl2.chk"
 Charge =  0 Multiplicity = 1
 Redundant internal coordinates found in file.  (old form).
 C,0,0.,0.,0.445316
 C,0,0.,0.,1.762732
 Cl,0,0.,1.505464,-0.389656
 Cl,0,0.,-1.505464,-0.389656
 Recover connectivity data from disk.
                           ----------------------------
                           !    Current Parameters    !
                           ! (Angstroms and Degrees)  !
 --------------------------                            --------------------------
 ! Name  Definition              Value                                          !
 --------------------------------------------------------------------------------
 ! R1    R(1,2)                  1.3174                                         !
 ! R2    R(1,3)                  1.7215                                         !
 ! R3    R(1,4)                  1.7215                                         !
 ! A1    A(2,1,3)              119.014                                          !
 ! A2    A(2,1,4)              119.014                                          !
 ! A3    A(3,1,4)              121.9721                                         !
 ! D1    D(2,1,4,3)            180.0                                            !
 --------------------------------------------------------------------------------
                          Input orientation:                          
 ---------------------------------------------------------------------
 Center     Atomic      Atomic             Coordinates (Angstroms)
 Number     Number       Type             X           Y           Z
 ---------------------------------------------------------------------
      1          6           0       -0.000000   -0.000000    0.445316
      2          6           0        0.000000   -0.000000    1.762732
      3         17           0        0.000000    1.505464   -0.389656
      4         17           0       -0.000000   -1.505464   -0.389656
 ---------------------------------------------------------------------
                    Distance matrix (angstroms):
                    1          2          3          4
     1  C    0.000000
     2  C    1.317416   0.000000
     3  Cl   1.721511   2.626632   0.000000
     4  Cl   1.721511   2.626632   3.010928   0.000000
 Stoichiometry    C2Cl2
 Framework group  C2V[C2(CC),SGV(Cl2)]
 Deg. of freedom     3
 Full point group                 C2V     NOp   4
 Largest Abelian subgroup         C2V     NOp   4
 Largest concise Abelian subgroup C2      NOp   2
                         Standard orientation:                         
 ---------------------------------------------------------------------
 Center     Atomic      Atomic             Coordinates (Angstroms)
 Number     Number       Type             X           Y           Z
 ---------------------------------------------------------------------
      1          6           0        0.000000    0.000000    0.445316
      2          6           0        0.000000    0.000000    1.762732
      3         17           0        0.000000    1.505464   -0.389656
      4         17           0       -0.000000   -1.505464   -0.389656
 ---------------------------------------------------------------------
 Rotational constants (GHZ):          10.0514801           3.1883433           2.4205435
 General basis read from cards:  (5D, 7F)
 There are   103 symmetry adapted cartesian basis functions of A1  symmetry.
 There are    33 symmetry adapted cartesian basis functions of A2  symmetry.
 There are    53 symmetry adapted cartesian basis functions of B1  symmetry.
 There are    79 symmetry adapted cartesian basis functions of B2  symmetry.
 There are    85 symmetry adapted basis functions of A1  symmetry.
 There are    31 symmetry adapted basis functions of A2  symmetry.
 There are    47 symmetry adapted basis functions of B1  symmetry.
 There are    67 symmetry adapted basis functions of B2  symmetry.
   230 basis functions,   414 primitive gaussians,   268 cartesian basis functions
    23 alpha electrons       23 beta electrons
       nuclear repulsion energy       169.0596649594 Hartrees.
 NAtoms=    4 NActive=    4 NUniq=    3 SFac= 1.78D+00 NAtFMM=   60 NAOKFM=F Big=F
 Integral buffers will be    131072 words long.
 Raffenetti 2 integral format.
 Two-electron integral symmetry is turned on.
 One-electron integrals computed using PRISM.
 NBasis=   230 RedAO= T EigKep=  1.01D-04  NBF=    85    31    47    67
 NBsUse=   230 1.00D-06 EigRej= -1.00D+00 NBFU=    85    31    47    67
 Initial guess from the checkpoint file:  "cccl2.chk"
 B after Tr=    -0.000000    0.000000    0.000000
         Rot=    1.000000    0.000000   -0.000000    0.000000 Ang=   0.00 deg.
 Initial guess orbital symmetries:
       Occupied  (B2) (A1) (A1) (A1) (B2) (A1) (B2) (A1) (A1) (B2)
                 (A2) (B1) (A1) (B2) (A1) (A1) (B2) (B1) (A1) (A2)
                 (B2) (A1) (B1)
       Virtual   (B2) (A1) (B1) (B2) (A1) (A1) (B2) (B1) (A1) (B2)
                 (B1) (A1) (A1) (B2) (A2) (A1) (B1) (B2) (A2) (A1)
                 (B1) (B2) (A2) (A1) (B1) (B2) (A1) (A1) (B2) (A2)
                 (A1) (B1) (B2) (A1) (A1) (B2) (A1) (B1) (B2) (A2)
                 (A1) (B1) (B1) (A1) (B2) (B2) (A1) (A1) (A2) (B1)
                 (B2) (A1) (A2) (B2) (B1) (A1) (A2) (B2) (B2) (B1)
                 (A1) (A1) (A2) (B1) (B2) (A1) (B2) (A1) (A1) (A2)
                 (B1) (B1) (B2) (A1) (B2) (B1) (A2) (B2) (A1) (B1)
                 (A1) (B2) (A2) (A1) (B2) (A2) (A1) (A1) (B1) (A2)
                 (A1) (B1) (B1) (B2) (A2) (A1) (B2) (B2) (B1) (B2)
                 (A1) (A1) (A1) (A1) (B2) (A1) (A1) (A1) (A1) (A1)
                 (A1) (A1) (A1) (A1) (A1) (A1) (A1) (A1) (A1) (A1)
                 (A1) (A1) (A1) (A1) (A1) (A1) (A1) (A1) (A1) (A1)
                 (A1) (A1) (A1) (A1) (A1) (A1) (A1) (A1) (A1) (A1)
                 (A1) (A2) (A2) (A2) (A2) (A2) (A2) (A2) (A2) (A2)
                 (A2) (A2) (A2) (A2) (A2) (B1) (B1) (B1) (B1) (B1)
                 (B1) (B1) (B1) (B1) (B1) (B1) (B1) (B1) (B1) (B1)
                 (B1) (B1) (B1) (B1) (B1) (B1) (B1) (B2) (B2) (B2)
                 (B2) (B2) (B2) (B2) (B2) (B2) (B2) (B2) (B2) (B2)
                 (B2) (B2) (B2) (B2) (B2) (B2) (B2) (B2) (B2) (B2)
                 (B2) (B2) (B2) (B2) (B2) (B2) (B2)
 Keep R1 and R2 ints in memory in symmetry-blocked form, NReq=442229963.
 Requested convergence on RMS density matrix=1.00D-08 within 128 cycles.
 Requested convergence on MAX density matrix=1.00D-06.
 Requested convergence on             energy=1.00D-06.
 No special actions if energy rises.
 SCF Done:  E(ROHF) =  -994.653409050     A.U. after   12 cycles
            NFock= 12  Conv=0.49D-08     -V/T= 2.0001
 <Sx>= 0.0000 <Sy>= 0.0000 <Sz>= 0.0000 <S**2>=-0.0000 S=-0.0000
 <L.S>=  0.00000000000    
 Annihilation of the first spin contaminant:
 S**2 before annihilation    -0.0000,   after    -0.0000

 **********************************************************************

            Population analysis using the SCF Density.

 **********************************************************************

 Orbital symmetries:
       Occupied  (B2) (A1) (A1) (A1) (B2) (A1) (B2) (A1) (B2) (A1)
                 (A2) (B1) (A1) (B2) (A1) (A1) (B2) (B1) (A1) (A2)
                 (B2) (A1) (B1)
       Virtual   (B2) (A1) (A1) (B2) (B1) (B2) (A1) (B1) (A2) (A1)
                 (B1) (B2) (B2) (A1) (B1) (A1) (A1) (A1) (B2) (B2)
                 (A1) (A1) (B1) (B2) (A1) (B1) (A2) (A1) (A2) (B2)
                 (B1) (A1) (B1) (B2) (B2) (A1) (A2) (B2) (A1) (B1)
                 (A1) (A1) (B2) (A1) (A2) (B2) (A1) (B1) (B2) (A1)
                 (B2) (A1) (B1) (A1) (A2) (B2) (B1) (A1) (A2) (B2)
                 (A1) (B2) (A2) (B1) (A1) (B1) (B2) (A1) (A2) (B2)
                 (B1) (A1) (B2) (B1) (B1) (A2) (A1) (A1) (B2) (B1)
                 (A1) (A1) (B2) (A2) (B2) (B1) (A1) (A2) (B2) (B2)
                 (B1) (A1) (A1) (B2) (B1) (A2) (A1) (A1) (A2) (B1)
                 (B2) (B1) (A1) (B2) (B2) (A2) (B1) (B2) (A1) (A1)
                 (A2) (A1) (A1) (B2) (A1) (B1) (B2) (A1) (A1) (B1)
                 (B2) (A2) (A1) (B1) (B2) (B1) (A1) (A2) (B2) (A2)
                 (A1) (B2) (A1) (B2) (A1) (B1) (A2) (A1) (B1) (B2)
                 (B2) (B1) (B2) (A2) (B1) (A1) (B2) (A2) (A1) (A1)
                 (B1) (A1) (A1) (A2) (B1) (B2) (B1) (B2) (B2) (B2)
                 (A1) (A1) (A2) (B1) (B2) (A1) (B1) (B2) (B2) (A1)
                 (A1) (A2) (A1) (B1) (A2) (B1) (B2) (A1) (A1) (B2)
                 (A1) (B1) (B2) (B1) (A1) (B2) (A1) (B1) (A2) (A1)
                 (B2) (A2) (B1) (A1) (A1) (B2) (B2) (A1) (A1) (A1)
                 (B2) (B1) (A2) (B2) (A1) (B2) (A1)
 The electronic state is 1-A1.
 Alpha  occ. eigenvalues -- -104.89246-104.89246 -11.37009 -11.33646 -10.61657
 Alpha  occ. eigenvalues --  -10.61656  -8.08363  -8.08362  -8.08174  -8.08174
 Alpha  occ. eigenvalues --   -8.08157  -8.08157  -1.24209  -1.14260  -1.01531
 Alpha  occ. eigenvalues --   -0.72634  -0.64112  -0.59235  -0.53160  -0.50674
 Alpha  occ. eigenvalues --   -0.49236  -0.47908  -0.39645
 Alpha virt. eigenvalues --    0.01382   0.04808   0.06599   0.07024   0.07324
 Alpha virt. eigenvalues --    0.09770   0.10033   0.10510   0.11433   0.11579
 Alpha virt. eigenvalues --    0.13158   0.14265   0.14674   0.14950   0.15691
 Alpha virt. eigenvalues --    0.16315   0.19484   0.22806   0.25300   0.26523
 Alpha virt. eigenvalues --    0.33977   0.39126   0.41518   0.41572   0.42705
 Alpha virt. eigenvalues --    0.43384   0.43446   0.45656   0.46665   0.47105
 Alpha virt. eigenvalues --    0.47467   0.50271   0.51369   0.51659   0.52941
 Alpha virt. eigenvalues --    0.53939   0.54998   0.55489   0.63485   0.67344
 Alpha virt. eigenvalues --    0.67364   0.71414   0.74243   0.77223   0.77312
 Alpha virt. eigenvalues --    0.78996   0.91821   0.91942   0.96374   0.97800
 Alpha virt. eigenvalues --    1.06216   1.08456   1.10114   1.11219   1.11771
 Alpha virt. eigenvalues --    1.21183   1.21809   1.23293   1.25056   1.25523
 Alpha virt. eigenvalues --    1.27796   1.29223   1.30718   1.31362   1.34461
 Alpha virt. eigenvalues --    1.38767   1.39691   1.40489   1.41161   1.43352
 Alpha virt. eigenvalues --    1.43565   1.49214   1.49912   1.50182   1.52422
 Alpha virt. eigenvalues --    1.54846   1.57616   1.61008   1.61449   1.62528
 Alpha virt. eigenvalues --    1.63784   1.66414   1.66986   1.67096   1.70510
 Alpha virt. eigenvalues --    1.74615   1.75245   1.76329   1.77078   1.86168
 Alpha virt. eigenvalues --    1.88091   1.89469   1.98876   2.07476   2.09746
 Alpha virt. eigenvalues --    2.10675   2.11130   2.21584   2.25906   2.31543
 Alpha virt. eigenvalues --    2.32850   2.38955   2.40831   2.41319   2.51054
 Alpha virt. eigenvalues --    2.54243   2.57286   2.62812   2.64654   2.68433
 Alpha virt. eigenvalues --    2.80045   2.83786   2.86108   2.90333   2.97677
 Alpha virt. eigenvalues --    3.24238   3.29687   3.36924   3.37718   3.43403
 Alpha virt. eigenvalues --    3.44300   3.47598   3.48869   3.50059   3.50144
 Alpha virt. eigenvalues --    3.51663   3.52489   3.54585   3.56292   3.57782
 Alpha virt. eigenvalues --    3.66790   3.72809   3.74845   3.83077   4.16037
 Alpha virt. eigenvalues --    4.46769   4.50673   4.51129   4.57528   4.59583
 Alpha virt. eigenvalues --    4.64222   4.76160   4.79592   4.82592   4.83599
 Alpha virt. eigenvalues --    4.84003   4.88426   4.94864   4.95769   5.03354
 Alpha virt. eigenvalues --    5.05468   5.11113   5.19658   5.25014   5.25161
 Alpha virt. eigenvalues --    5.30384   5.33360   5.56734   5.70673   5.74311
 Alpha virt. eigenvalues --    5.87140   5.90946   6.05291   6.06740   6.12734
 Alpha virt. eigenvalues --    6.17003   6.33070   6.41330   6.72945   6.77012
 Alpha virt. eigenvalues --    7.47536   7.72551   7.86317   7.96342   7.99352
 Alpha virt. eigenvalues --    8.28191   8.32480   8.48779   8.80317   8.80523
 Alpha virt. eigenvalues --    9.22068  20.50072  20.74678  20.95019  21.13324
 Alpha virt. eigenvalues --   21.19321  21.39019  22.11673  22.12975  22.13666
 Alpha virt. eigenvalues --   22.15855  22.18808  22.20096  22.20998  22.31604
 Alpha virt. eigenvalues --   22.37212  22.38028  22.85788  23.85705  24.41378
 Alpha virt. eigenvalues --   24.66868  28.35792  28.36717  28.39131  28.44135
 Alpha virt. eigenvalues --   28.73568  28.83052
          Condensed to atoms (all electrons):
               1          2          3          4
     1  C    5.237420   0.483445   0.232611   0.232611
     2  C    0.483445   5.609319  -0.061197  -0.061197
     3  Cl   0.232611  -0.061197  16.786097  -0.035738
     4  Cl   0.232611  -0.061197  -0.035738  16.786097
          Atomic-Atomic Spin Densities.
               1          2          3          4
     1  C    0.000000   0.000000   0.000000   0.000000
     2  C    0.000000   0.000000   0.000000   0.000000
     3  Cl   0.000000   0.000000   0.000000   0.000000
     4  Cl   0.000000   0.000000   0.000000   0.000000
 Mulliken charges and spin densities:
               1          2
     1  C   -0.186087   0.000000
     2  C    0.029631   0.000000
     3  Cl   0.078228   0.000000
     4  Cl   0.078228   0.000000
 Sum of Mulliken charges =  -0.00000   0.00000
 Mulliken charges and spin densities with hydrogens summed into heavy atoms:
               1          2
     1  C   -0.186087   0.000000
     2  C    0.029631   0.000000
     3  Cl   0.078228   0.000000
     4  Cl   0.078228   0.000000
 Electronic spatial extent (au):  <R**2>=            447.8278
 Charge=             -0.0000 electrons
 Dipole moment (field-independent basis, Debye):
    X=             -0.0000    Y=              0.0000    Z=             -1.2767  Tot=              1.2767
 Quadrupole moment (field-independent basis, Debye-Ang):
   XX=            -37.4335   YY=            -33.9883   ZZ=            -40.7366
   XY=             -0.0000   XZ=             -0.0000   YZ=              0.0000
 Traceless Quadrupole moment (field-independent basis, Debye-Ang):
   XX=             -0.0473   YY=              3.3978   ZZ=             -3.3505
   XY=             -0.0000   XZ=             -0.0000   YZ=              0.0000
 Octapole moment (field-independent basis, Debye-Ang**2):
  XXX=              0.0000  YYY=             -0.0000  ZZZ=            -25.0077  XYY=              0.0000
  XXY=              0.0000  XXZ=             -4.4171  XZZ=              0.0000  YZZ=              0.0000
  YYZ=             -6.4589  XYZ=             -0.0000
 Hexadecapole moment (field-independent basis, Debye-Ang**3):
 XXXX=            -42.9129 YYYY=           -349.8444 ZZZZ=           -228.8708 XXXY=             -0.0000
 XXXZ=             -0.0000 YYYX=             -0.0000 YYYZ=              0.0000 ZZZX=             -0.0000
 ZZZY=             -0.0000 XXYY=            -71.8606 XXZZ=            -41.0235 YYZZ=            -86.6693
 XXYZ=             -0.0000 YYXZ=             -0.0000 ZZXY=             -0.0000
 N-N= 1.690596649594D+02 E-N=-2.702010158834D+03  KE= 9.945530306107D+02
 Symmetry A1   KE= 4.853135628398D+02
 Symmetry A2   KE= 4.598224192785D+01
 Symmetry B1   KE= 4.802260147309D+01
 Symmetry B2   KE= 4.152346243700D+02
 Symmetry A1   SP= 0.000000000000D+00
 Symmetry A2   SP= 0.000000000000D+00
 Symmetry B1   SP= 0.000000000000D+00
 Symmetry B2   SP= 0.000000000000D+00
                          Isotropic Fermi Contact Couplings
        Atom                 a.u.       MegaHertz       Gauss      10(-4) cm-1
     1  C(13)              0.00000       0.00000       0.00000       0.00000
     2  C(13)              0.00000       0.00000       0.00000       0.00000
     3  Cl(35)             0.00000       0.00000       0.00000       0.00000
     4  Cl(35)             0.00000       0.00000       0.00000       0.00000
 --------------------------------------------------------
       Center         ----  Spin Dipole Couplings  ----
                      3XX-RR        3YY-RR        3ZZ-RR
 --------------------------------------------------------
     1   Atom        0.000000      0.000000      0.000000
     2   Atom        0.000000      0.000000      0.000000
     3   Atom        0.000000      0.000000      0.000000
     4   Atom        0.000000      0.000000      0.000000
 --------------------------------------------------------
                        XY            XZ            YZ
 --------------------------------------------------------
     1   Atom        0.000000      0.000000      0.000000
     2   Atom        0.000000      0.000000      0.000000
     3   Atom        0.000000      0.000000      0.000000
     4   Atom        0.000000      0.000000      0.000000
 --------------------------------------------------------


 ---------------------------------------------------------------------------------
              Anisotropic Spin Dipole Couplings in Principal Axis System
 ---------------------------------------------------------------------------------

       Atom             a.u.   MegaHertz   Gauss  10(-4) cm-1        Axes

              Baa     0.0000     0.000     0.000     0.000  1.0000  0.0000  0.0000
     1 C(13)  Bbb     0.0000     0.000     0.000     0.000 -0.0000  1.0000  0.0000
              Bcc     0.0000     0.000     0.000     0.000  0.0000  0.0000  1.0000
 
              Baa     0.0000     0.000     0.000     0.000  1.0000  0.0000  0.0000
     2 C(13)  Bbb     0.0000     0.000     0.000     0.000 -0.0000  1.0000  0.0000
              Bcc     0.0000     0.000     0.000     0.000  0.0000  0.0000  1.0000
 
              Baa     0.0000     0.000     0.000     0.000  1.0000  0.0000  0.0000
     3 Cl(35) Bbb     0.0000     0.000     0.000     0.000 -0.0000  1.0000  0.0000
              Bcc     0.0000     0.000     0.000     0.000  0.0000  0.0000  1.0000
 
              Baa     0.0000     0.000     0.000     0.000  1.0000  0.0000  0.0000
     4 Cl(35) Bbb     0.0000     0.000     0.000     0.000 -0.0000  1.0000  0.0000
              Bcc     0.0000     0.000     0.000     0.000  0.0000  0.0000  1.0000
 

 ---------------------------------------------------------------------------------

 1\1\GINC-GAMBA\SP\ROHF\Gen\C2Cl2\IRIKURA\29-Sep-2023\0\\# rohf/gen geo
 m=check guess=check\\dichlorovinylidene, ROHF/cc-pVTZ-F12\\0,1\C,0,0.,
 0.,0.445316\C,0,0.,0.,1.762732\Cl,0,0.,1.505464,-0.389656\Cl,0,0.,-1.5
 05464,-0.389656\\Version=ES64L-G16RevB.01\State=1-A1\HF=-994.6534091\R
 MSD=4.886e-09\Dipole=0.,0.,-0.5022901\Quadrupole=-0.0352014,2.5262165,
 -2.4910151,0.,0.,0.\PG=C02V [C2(C1C1),SGV(Cl2)]\\@


 Experience is what you get when you don't get what you want.
 -- Dan Stanford
 Job cpu time:       0 days  0 hours  0 minutes 51.6 seconds.
 Elapsed time:       0 days  0 hours  0 minutes 13.4 seconds.
 File lengths (MBytes):  RWF=     26 Int=      0 D2E=      0 Chk=      5 Scr=      1
 Normal termination of Gaussian 16 at Fri Sep 29 01:01:53 2023.
