 Entering Gaussian System, Link 0=g16
 AtFile(1): pcseg2.gbs
            -H     0
            S   4   1.00
                  0.754732D+02           0.427821D-02
                  0.113575D+02           0.328672D-01
                  0.260081D+01           0.159578D+00
                  0.735503D+00           0.500000D+00
            S   1   1.00
                  0.231761D+00           1.0000000
            S   1   1.00
                  0.741675D-01           1.0000000
            P   1   1.00
                  0.160000D+01           1.0000000
            P   1   1.00
                  0.450000D+00           1.0000000
            D   1   1.00
                  0.125000D+01           1.0000000
            ****
            -C     0
            S   7   1.00
                  0.731999D+04           0.695369D-03
                  0.109818D+04           0.537138D-02
                  0.250014D+03           0.274734D-01
                  0.707586D+02           0.105078D+00
                  0.228595D+02           0.291262D+00
                  0.803936D+01           0.500000D+00
                  0.289309D+01           0.362224D+00
            S   2   1.00
                  0.521640D+01          -0.957844D-01
                  0.556124D+00           0.500000D+00
            S   1   1.00
                  0.228813D+00           1.0000000
            S   1   1.00
                  0.936338D-01           1.0000000
            P   4   1.00
                  0.339855D+02           0.818395D-02
                  0.772957D+01           0.586921D-01
                  0.224954D+01           0.222514D+00
                  0.767681D+00           0.500000D+00
            P   1   1.00
                  0.263283D+00           1.0000000
            P   1   1.00
                  0.848744D-01           1.0000000
            D   1   1.00
                  0.140000D+01           1.0000000
            D   1   1.00
                  0.450000D+00           1.0000000
            F   1   1.00
                  0.950000D+00           1.0000000
            ****
            -O     0
            S   7   1.00
                  0.135887D+05           0.665492D-03
                  0.203847D+04           0.514222D-02
                  0.464041D+03           0.263472D-01
                  0.131339D+03           0.101500D+00
                  0.425340D+02           0.285877D+00
                  0.150429D+02           0.500000D+00
                  0.546616D+01           0.368211D+00
            S   2   1.00
                  0.100915D+02          -0.100084D+00
                  0.110429D+01           0.500000D+00
            S   1   1.00
                  0.448082D+00           1.0000000
            S   1   1.00
                  0.175325D+00           1.0000000
            P   4   1.00
                  0.608220D+02           0.908253D-02
                  0.140332D+02           0.645878D-01
                  0.418244D+01           0.241502D+00
                  0.142490D+01           0.500000D+00
            P   1   1.00
                  0.478741D+00           1.0000000
            P   1   1.00
                  0.146257D+00           1.0000000
            D   1   1.00
                  0.220000D+01           1.0000000
            D   1   1.00
                  0.650000D+00           1.0000000
            F   1   1.00
                  0.110000D+01           1.0000000
            ****
            -N     0
            S   7   1.00
                  0.101643D+05           0.682757D-03
                  0.152481D+04           0.527488D-02
                  0.347119D+03           0.270037D-01
                  0.982389D+02           0.103673D+00
                  0.317799D+02           0.289575D+00
                  0.112240D+02           0.500000D+00
                  0.406611D+01           0.364621D+00
            S   2   1.00
                  0.747898D+01          -0.975681D-01
                  0.805040D+00           0.500000D+00
            S   1   1.00
                  0.324626D+00           1.0000000
            S   1   1.00
                  0.128132D+00           1.0000000
            P   4   1.00
                  0.482704D+02           0.829547D-02
                  0.110815D+02           0.596223D-01
                  0.326643D+01           0.227889D+00
                  0.111680D+01           0.500000D+00
            P   1   1.00
                  0.382049D+00           1.0000000
            P   1   1.00
                  0.121222D+00           1.0000000
            D   1   1.00
                  0.180000D+01           1.0000000
            D   1   1.00
                  0.550000D+00           1.0000000
            F   1   1.00
                  0.102000D+01           1.0000000
            ****
            -F     0
            S   7   1.00
                  0.174507D+05           0.655972D-03
                  0.261768D+04           0.506944D-02
                  0.595857D+03           0.259899D-01
                  0.168651D+03           0.100353D+00
                  0.546654D+02           0.284095D+00
                  0.193717D+02           0.500000D+00
                  0.706202D+01           0.370721D+00
            S   2   1.00
                  0.131197D+02          -0.101997D+00
                  0.145046D+01           0.500000D+00
            S   1   1.00
                  0.588255D+00           1.0000000
            S   1   1.00
                  0.227960D+00           1.0000000
            P   4   1.00
                  0.779407D+02           0.931135D-02
                  0.180425D+02           0.663964D-01
                  0.542342D+01           0.246386D+00
                  0.184876D+01           0.500000D+00
            P   1   1.00
                  0.617455D+00           1.0000000
            P   1   1.00
                  0.185496D+00           1.0000000
            D   1   1.00
                  0.280000D+01           1.0000000
            D   1   1.00
                  0.800000D+00           1.0000000
            F   1   1.00
                  0.120000D+01           1.0000000
            ****
            -Cl     0
            S   8   1.00
                  0.154272D+06           0.222473D-03
                  0.231232D+05           0.172590D-02
                  0.526257D+04           0.899286D-02
                  0.148995D+04           0.367724D-01
                  0.485417D+03           0.121446D+00
                  0.174634D+03           0.304148D+00
                  0.672393D+02           0.500000D+00
                  0.265780D+02           0.360252D+00
            S   3   1.00
                  0.131826D+03          -0.531330D-01
                  0.400703D+02          -0.233346D+00
                  0.789448D+01           0.500000D+00
            S   2   1.00
                  0.427711D+01           0.500000D+00
                  0.196233D+01           0.370517D+00
            S   1   1.00
                  0.520793D+00           1.0000000
            S   1   1.00
                  0.181633D+00           1.0000000
            P   7   1.00
                  0.124440D+04           0.988206D-03
                  0.295109D+03           0.829674D-02
                  0.947224D+02           0.430906D-01
                  0.352588D+02           0.148443D+00
                  0.144211D+02           0.344744D+00
                  0.610371D+01           0.500000D+00
                  0.258886D+01           0.348278D+00
            P   2   1.00
                  0.109447D+02          -0.196768D-01
                  0.104413D+01           0.500000D+00
            P   1   1.00
                  0.376184D+00           1.0000000
            P   1   1.00
                  0.120613D+00           1.0000000
            D   1   1.00
                  0.231000D+01           1.0000000
            D   1   1.00
                  0.520000D+00           1.0000000
            F   1   1.00
                  0.720000D+00           1.0000000
            ****
            -S     0
            S   8   1.00
                  0.134700D+06           0.226231D-03
                  0.201904D+05           0.175488D-02
                  0.459528D+04           0.914190D-02
                  0.130109D+04           0.373551D-01
                  0.423902D+03           0.123121D+00
                  0.152485D+03           0.306801D+00
                  0.586925D+02           0.500000D+00
                  0.231461D+02           0.354358D+00
            S   3   1.00
                  0.116327D+03          -0.491772D-01
                  0.352841D+02          -0.215962D+00
                  0.677831D+01           0.500000D+00
            S   2   1.00
                  0.360404D+01           0.500000D+00
                  0.164871D+01           0.366278D+00
            S   1   1.00
                  0.421821D+00           1.0000000
            S   1   1.00
                  0.147554D+00           1.0000000
            P   7   1.00
                  0.104863D+04           0.105273D-02
                  0.248717D+03           0.879338D-02
                  0.797887D+02           0.453358D-01
                  0.296023D+02           0.154476D+00
                  0.120627D+02           0.352366D+00
                  0.507628D+01           0.500000D+00
                  0.213375D+01           0.346429D+00
            P   2   1.00
                  0.928958D+01          -0.185932D-01
                  0.837819D+00           0.500000D+00
            P   1   1.00
                  0.301495D+00           1.0000000
            P   1   1.00
                  0.974740D-01           1.0000000
            D   1   1.00
                  0.210000D+01           1.0000000
            D   1   1.00
                  0.480000D+00           1.0000000
            F   1   1.00
                  0.660000D+00           1.0000000
            ****
            -Br     0
            S    10   1.00
                  0.233625D+07           0.532336D-04
                  0.349961D+06           0.413715D-03
                  0.796444D+05           0.217123D-02
                  0.225555D+05           0.910109D-02
                  0.735546D+04           0.323789D-01
                  0.265352D+04           0.988755D-01
                  0.103517D+04           0.248138D+00
                  0.422205D+03           0.474328D+00
                  0.180035D+03           0.500000D+00
                  0.793308D+02           0.187769D+00
            S    4   1.00
                  0.620834D+03          -0.226511D-01
                  0.190829D+03          -0.109497D+00
                  0.312505D+02           0.500000D+00
                  0.135270D+02           0.492812D+00
            S    2   1.00
                  0.216097D+02          -0.165418D+00
                  0.372566D+01           0.500000D+00
            S    1   1.00
                  0.169770D+01           1.0000000
            S    1   1.00
                  0.489332D+00           1.0000000
            S    1   1.00
                  0.175712D+00           1.0000000
            P    8   1.00
                  0.960829D+04           0.478974D-03
                  0.227618D+04           0.417853D-02
                  0.736723D+03           0.229315D-01
                  0.281579D+03           0.892653D-01
                  0.118395D+03           0.255288D+00
                  0.527481D+02           0.479074D+00
                  0.245098D+02           0.500000D+00
                  0.112009D+02           0.200944D+00
            P    4   1.00
                  0.587849D+02          -0.189674D-01
                  0.918962D+01           0.264104D+00
                  0.413895D+01           0.500000D+00
                  0.184225D+01           0.319316D+00
            P    1   1.00
                  0.713862D+00           1.0000000
            P    1   1.00
                  0.274232D+00           1.0000000
            P    1   1.00
                  0.944411D-01           1.0000000
            D    7   1.00
                  0.398470D+03           0.204066D-02
                  0.118967D+03           0.175171D-01
                  0.450197D+02           0.829708D-01
                  0.190320D+02           0.236284D+00
                  0.855686D+01           0.428468D+00
                  0.382950D+01           0.500000D+00
                  0.166291D+01           0.349360D+00
            D    1   1.00
                  0.672953D+00           1.0000000
            D    1   1.00
                  0.252000D+00           1.0000000
            F    1   1.00
                  0.530000D+00           1.0000000
            ****
            -Si     0
            S    8   1.00
                  0.996133D+05           0.235546D-03
                  0.149311D+05           0.182707D-02
                  0.339820D+04           0.951425D-02
                  0.962140D+03           0.388172D-01
                  0.313430D+03           0.127328D+00
                  0.112683D+03           0.313522D+00
                  0.433372D+02           0.500000D+00
                  0.170029D+02           0.340347D+00
            S    3   1.00
                  0.884208D+02          -0.404451D-01
                  0.266756D+02          -0.178059D+00
                  0.479640D+01           0.500000D+00
            S    2   1.00
                  0.239385D+01           0.500000D+00
                  0.108333D+01           0.338016D+00
            S    1   1.00
                  0.252420D+00           1.0000000
            S    1   1.00
                  0.891210D-01           1.0000000
            P    7   1.00
                  0.709901D+03           0.123028D-02
                  0.168426D+03           0.101366D-01
                  0.539946D+02           0.511840D-01
                  0.198646D+02           0.169967D+00
                  0.801369D+01           0.370717D+00
                  0.331870D+01           0.500000D+00
                  0.136112D+01           0.344128D+00
            P    2   1.00
                  0.622158D+01          -0.166609D-01
                  0.503049D+00           0.500000D+00
            P    1   1.00
                  0.179848D+00           1.0000000
            P    1   1.00
                  0.591912D-01           1.0000000
            D    1   1.00
                  0.168000D+01           1.0000000
            D    1   1.00
                  0.380000D+00           1.0000000
            F    1   1.00
                  0.540000D+00           1.0000000
            ****
            -P     0
            S    8   1.00
                  0.116416D+06           0.230715D-03
                  0.174500D+05           0.178960D-02
                  0.397149D+04           0.932116D-02
                  0.112447D+04           0.380591D-01
                  0.366347D+03           0.125148D+00
                  0.131757D+03           0.310022D+00
                  0.506988D+02           0.500000D+00
                  0.199436D+02           0.347528D+00
            S    3   1.00
                  0.101878D+03          -0.446755D-01
                  0.308249D+02          -0.196376D+00
                  0.573688D+01           0.500000D+00
            S    2   1.00
                  0.296868D+01           0.500000D+00
                  0.135315D+01           0.355098D+00
            S    1   1.00
                  0.332196D+00           1.0000000
            S    1   1.00
                  0.116229D+00           1.0000000
            P    7   1.00
                  0.873928D+03           0.112375D-02
                  0.207298D+03           0.933330D-02
                  0.664628D+02           0.477213D-01
                  0.245665D+02           0.160733D+00
                  0.996820D+01           0.359760D+00
                  0.416536D+01           0.500000D+00
                  0.173022D+01           0.346593D+00
            P    2   1.00
                  0.772530D+01          -0.175718D-01
                  0.657252D+00           0.500000D+00
            P    1   1.00
                  0.239903D+00           1.0000000
            P    1   1.00
                  0.800988D-01           1.0000000
            D    1   1.00
                  0.189000D+01           1.0000000
            D    1   1.00
                  0.430000D+00           1.0000000
            F    1   1.00
                  0.600000D+00           1.0000000
            ****
            
 Initial command:
 /usr/local/apps/g16_b01_avx/g16/l1.exe "/wrk/irikura/Gau-67139.inp" -scrdir="/wrk/irikura/"
 Entering Link 1 = /usr/local/apps/g16_b01_avx/g16/l1.exe PID=     67141.
  
 Copyright (c) 1988-2017, Gaussian, Inc.  All Rights Reserved.
  
 This is part of the Gaussian(R) 16 program.  It is based on
 the Gaussian(R) 09 system (copyright 2009, Gaussian, Inc.),
 the Gaussian(R) 03 system (copyright 2003, Gaussian, Inc.),
 the Gaussian(R) 98 system (copyright 1998, Gaussian, Inc.),
 the Gaussian(R) 94 system (copyright 1995, Gaussian, Inc.),
 the Gaussian 92(TM) system (copyright 1992, Gaussian, Inc.),
 the Gaussian 90(TM) system (copyright 1990, Gaussian, Inc.),
 the Gaussian 88(TM) system (copyright 1988, Gaussian, Inc.),
 the Gaussian 86(TM) system (copyright 1986, Carnegie Mellon
 University), and the Gaussian 82(TM) system (copyright 1983,
 Carnegie Mellon University). Gaussian is a federally registered
 trademark of Gaussian, Inc.
  
 This software contains proprietary and confidential information,
 including trade secrets, belonging to Gaussian, Inc.
  
 This software is provided under written license and may be
 used, copied, transmitted, or stored only in accord with that
 written license.
  
 The following legend is applicable only to US Government
 contracts under FAR:
  
                    RESTRICTED RIGHTS LEGEND
  
 Use, reproduction and disclosure by the US Government is
 subject to restrictions as set forth in subparagraphs (a)
 and (c) of the Commercial Computer Software - Restricted
 Rights clause in FAR 52.227-19.
  
 Gaussian, Inc.
 340 Quinnipiac St., Bldg. 40, Wallingford CT 06492
  
  
 ---------------------------------------------------------------
 Warning -- This program may not be used in any manner that
 competes with the business of Gaussian, Inc. or will provide
 assistance to any competitor of Gaussian, Inc.  The licensee
 of this program is prohibited from giving any competitor of
 Gaussian, Inc. access to this program.  By using this program,
 the user acknowledges that Gaussian, Inc. is engaged in the
 business of creating and licensing software in the field of
 computational chemistry and represents and warrants to the
 licensee that it is not a competitor of Gaussian, Inc. and that
 it will not use this program in any manner prohibited above.
 ---------------------------------------------------------------
  

 Cite this work as:
 Gaussian 16, Revision B.01,
 M. J. Frisch, G. W. Trucks, H. B. Schlegel, G. E. Scuseria, 
 M. A. Robb, J. R. Cheeseman, G. Scalmani, V. Barone, 
 G. A. Petersson, H. Nakatsuji, X. Li, M. Caricato, A. V. Marenich, 
 J. Bloino, B. G. Janesko, R. Gomperts, B. Mennucci, H. P. Hratchian, 
 J. V. Ortiz, A. F. Izmaylov, J. L. Sonnenberg, D. Williams-Young, 
 F. Ding, F. Lipparini, F. Egidi, J. Goings, B. Peng, A. Petrone, 
 T. Henderson, D. Ranasinghe, V. G. Zakrzewski, J. Gao, N. Rega, 
 G. Zheng, W. Liang, M. Hada, M. Ehara, K. Toyota, R. Fukuda, 
 J. Hasegawa, M. Ishida, T. Nakajima, Y. Honda, O. Kitao, H. Nakai, 
 T. Vreven, K. Throssell, J. A. Montgomery, Jr., J. E. Peralta, 
 F. Ogliaro, M. J. Bearpark, J. J. Heyd, E. N. Brothers, K. N. Kudin, 
 V. N. Staroverov, T. A. Keith, R. Kobayashi, J. Normand, 
 K. Raghavachari, A. P. Rendell, J. C. Burant, S. S. Iyengar, 
 J. Tomasi, M. Cossi, J. M. Millam, M. Klene, C. Adamo, R. Cammi, 
 J. W. Ochterski, R. L. Martin, K. Morokuma, O. Farkas, 
 J. B. Foresman, and D. J. Fox, Gaussian, Inc., Wallingford CT, 2016.
 
 ******************************************
 Gaussian 16:  ES64L-G16RevB.01 20-Dec-2017
                15-Sep-2023 
 ******************************************
 %mem=1000mw
 %nprocs=12
 Will use up to   12 processors via shared memory.
 ---------------------------------------
 # b3lyp/gen opt freq CPHF(Grid=OneStep)
 ---------------------------------------
 1/18=20,19=15,26=3,38=1/1,3;
 2/9=110,12=2,17=6,18=5,40=1/2;
 3/5=7,11=2,25=1,30=1,71=1,74=-5/1,2,3;
 4//1;
 5/5=2,38=5/2;
 6/7=2,8=2,9=2,10=2,28=1/1;
 7//1,2,3,16;
 1/18=20,19=15,26=3/3(2);
 2/9=110/2;
 99//99;
 2/9=110/2;
 3/5=7,6=1,11=2,25=1,30=1,71=1,74=-5,82=7/1,2,3;
 4/5=5,16=3,69=1/1;
 5/5=2,38=5/2;
 7//1,2,3,16;
 1/18=20,19=15,26=3/3(-5);
 2/9=110/2;
 6/7=2,8=2,9=2,10=2,19=2,28=1/1;
 99/9=1/99;
 ----------------------
 ethynyl, B3LYP/pcseg-2
 ----------------------
 Symbolic Z-matrix:
 Charge =  0 Multiplicity = 2
 C                     0.        0.       -0.47378 
 C                     0.        0.        0.72998 
 H                     0.        0.       -1.53721 
 

 GradGradGradGradGradGradGradGradGradGradGradGradGradGradGradGradGradGrad
 Berny optimization.
 Initialization pass.
                           ----------------------------
                           !    Initial Parameters    !
                           ! (Angstroms and Degrees)  !
 --------------------------                            --------------------------
 ! Name  Definition              Value          Derivative Info.                !
 --------------------------------------------------------------------------------
 ! R1    R(1,2)                  1.2038         estimate D2E/DX2                !
 ! R2    R(1,3)                  1.0634         estimate D2E/DX2                !
 ! A1    L(2,1,3,-1,-1)        180.0            estimate D2E/DX2                !
 ! A2    L(2,1,3,-2,-2)        180.0            estimate D2E/DX2                !
 --------------------------------------------------------------------------------
 Trust Radius=3.00D-01 FncErr=1.00D-07 GrdErr=1.00D-06 EigMax=2.50D+02 EigMin=1.00D-04
 Number of steps in this run=     20 maximum allowed number of steps=    100.
 GradGradGradGradGradGradGradGradGradGradGradGradGradGradGradGradGradGrad

                          Input orientation:                          
 ---------------------------------------------------------------------
 Center     Atomic      Atomic             Coordinates (Angstroms)
 Number     Number       Type             X           Y           Z
 ---------------------------------------------------------------------
      1          6           0        0.000000    0.000000   -0.473781
      2          6           0        0.000000    0.000000    0.729984
      3          1           0        0.000000    0.000000   -1.537213
 ---------------------------------------------------------------------
                    Distance matrix (angstroms):
                    1          2          3
     1  C    0.000000
     2  C    1.203765   0.000000
     3  H    1.063432   2.267197   0.000000
 Stoichiometry    C2H(2)
 Framework group  C*V[C*(HCC)]
 Deg. of freedom     2
 Full point group                 C*V     NOp   4
 Largest Abelian subgroup         C2V     NOp   4
 Largest concise Abelian subgroup C1      NOp   1
                         Standard orientation:                         
 ---------------------------------------------------------------------
 Center     Atomic      Atomic             Coordinates (Angstroms)
 Number     Number       Type             X           Y           Z
 ---------------------------------------------------------------------
      1          6           0        0.000000    0.000000   -0.473781
      2          6           0        0.000000    0.000000    0.729984
      3          1           0        0.000000    0.000000   -1.537213
 ---------------------------------------------------------------------
 Rotational constants (GHZ):           0.0000000          44.4225353          44.4225353
 General basis read from cards:  (5D, 7F)
 There are    40 symmetry adapted cartesian basis functions of A1  symmetry.
 There are     7 symmetry adapted cartesian basis functions of A2  symmetry.
 There are    19 symmetry adapted cartesian basis functions of B1  symmetry.
 There are    19 symmetry adapted cartesian basis functions of B2  symmetry.
 There are    33 symmetry adapted basis functions of A1  symmetry.
 There are     7 symmetry adapted basis functions of A2  symmetry.
 There are    17 symmetry adapted basis functions of B1  symmetry.
 There are    17 symmetry adapted basis functions of B2  symmetry.
    74 basis functions,   120 primitive gaussians,    85 cartesian basis functions
     7 alpha electrons        6 beta electrons
       nuclear repulsion energy        20.2117747271 Hartrees.
 NAtoms=    3 NActive=    3 NUniq=    3 SFac= 1.00D+00 NAtFMM=   60 NAOKFM=F Big=F
 Integral buffers will be    131072 words long.
 Raffenetti 2 integral format.
 Two-electron integral symmetry is turned on.
 One-electron integrals computed using PRISM.
 NBasis=    74 RedAO= T EigKep=  3.32D-04  NBF=    33     7    17    17
 NBsUse=    74 1.00D-06 EigRej= -1.00D+00 NBFU=    33     7    17    17
 ExpMin= 7.42D-02 ExpMax= 7.32D+03 ExpMxC= 2.50D+02 IAcc=3 IRadAn=         5 AccDes= 0.00D+00
 Harris functional with IExCor=  402 and IRadAn=       5 diagonalized for initial guess.
 HarFok:  IExCor=  402 AccDes= 0.00D+00 IRadAn=         5 IDoV= 1 UseB2=F ITyADJ=14
 ICtDFT=  3500011 ScaDFX=  1.000000  1.000000  1.000000  1.000000
 FoFCou: FMM=F IPFlag=           0 FMFlag=      100000 FMFlg1=           0
         NFxFlg=           0 DoJE=T BraDBF=F KetDBF=T FulRan=T
         wScrn=  0.000000 ICntrl=       500 IOpCl=  0 I1Cent=   200000004 NGrid=           0
         NMat0=    1 NMatS0=      1 NMatT0=    0 NMatD0=    1 NMtDS0=    0 NMtDT0=    0
 Petite list used in FoFCou.
 Initial guess orbital symmetries:
 Alpha Orbitals:
       Occupied  (SG) (SG) (SG) (SG) (PI) (PI) (SG)
       Virtual   (PI) (PI) (SG) (SG) (SG) (PI) (PI) (PI) (PI) (SG)
                 (SG) (SG) (SG) (PI) (PI) (DLTA) (DLTA) (SG) (PI)
                 (PI) (DLTA) (DLTA) (SG) (PI) (PI) (SG) (PI) (PI)
                 (SG) (PI) (PI) (SG) (SG) (SG) (DLTA) (DLTA) (PHI)
                 (PHI) (SG) (PI) (PI) (PHI) (PHI) (SG) (DLTA) (DLTA)
                 (PI) (PI) (DLTA) (DLTA) (DLTA) (DLTA) (PI) (PI)
                 (SG) (PI) (PI) (DLTA) (DLTA) (SG) (PI) (PI) (SG)
                 (PI) (PI) (SG) (SG)
 Beta  Orbitals:
       Occupied  (SG) (SG) (SG) (SG) (PI) (PI)
       Virtual   (SG) (PI) (PI) (SG) (SG) (SG) (PI) (PI) (PI) (PI)
                 (SG) (SG) (SG) (SG) (PI) (PI) (DLTA) (DLTA) (SG)
                 (PI) (PI) (DLTA) (DLTA) (SG) (PI) (PI) (SG) (PI)
                 (PI) (SG) (PI) (PI) (SG) (SG) (SG) (DLTA) (DLTA)
                 (PHI) (PHI) (SG) (PI) (PI) (PHI) (PHI) (SG) (DLTA)
                 (DLTA) (PI) (PI) (DLTA) (DLTA) (DLTA) (DLTA) (PI)
                 (PI) (SG) (PI) (PI) (DLTA) (DLTA) (SG) (PI) (PI)
                 (SG) (PI) (PI) (SG) (SG)
 The electronic state of the initial guess is 2-SG.
 Initial guess <Sx>= 0.0000 <Sy>= 0.0000 <Sz>= 0.5000 <S**2>= 0.7500 S= 0.5000
 Keep R1 and R2 ints in memory in symmetry-blocked form, NReq=14779632.
 Requested convergence on RMS density matrix=1.00D-08 within 128 cycles.
 Requested convergence on MAX density matrix=1.00D-06.
 Requested convergence on             energy=1.00D-06.
 No special actions if energy rises.
 Integral accuracy reduced to 1.0D-05 until final iterations.
 Initial convergence to 1.0D-05 achieved.  Increase integral accuracy.
 SCF Done:  E(UB3LYP) =  -76.6399143760     A.U. after   12 cycles
            NFock= 12  Conv=0.83D-08     -V/T= 2.0039
 <Sx>= 0.0000 <Sy>= 0.0000 <Sz>= 0.5000 <S**2>= 0.7723 S= 0.5111
 <L.S>=  0.00000000000    
 Annihilation of the first spin contaminant:
 S**2 before annihilation     0.7723,   after     0.7503

 **********************************************************************

            Population analysis using the SCF Density.

 **********************************************************************

 Orbital symmetries:
 Alpha Orbitals:
       Occupied  (SG) (SG) (SG) (SG) (SG) (PI) (PI)
       Virtual   (PI) (PI) (SG) (SG) (SG) (PI) (PI) (PI) (PI) (SG)
                 (SG) (SG) (SG) (PI) (PI) (DLTA) (DLTA) (SG) (PI)
                 (PI) (DLTA) (DLTA) (SG) (PI) (PI) (SG) (PI) (PI)
                 (SG) (PI) (PI) (SG) (SG) (SG) (DLTA) (DLTA) (PHI)
                 (PHI) (SG) (PI) (PI) (PHI) (PHI) (SG) (DLTA) (DLTA)
                 (PI) (PI) (DLTA) (DLTA) (DLTA) (DLTA) (PI) (PI)
                 (SG) (PI) (PI) (DLTA) (DLTA) (SG) (PI) (PI) (SG)
                 (PI) (PI) (SG) (SG)
 Beta  Orbitals:
       Occupied  (SG) (SG) (SG) (SG) (PI) (PI)
       Virtual   (SG) (PI) (PI) (SG) (SG) (SG) (PI) (PI) (PI) (PI)
                 (SG) (SG) (SG) (SG) (PI) (PI) (DLTA) (DLTA) (SG)
                 (PI) (PI) (DLTA) (DLTA) (SG) (PI) (PI) (SG) (PI)
                 (PI) (SG) (PI) (PI) (SG) (SG) (SG) (DLTA) (DLTA)
                 (PHI) (PHI) (SG) (PI) (PI) (PHI) (PHI) (SG) (DLTA)
                 (DLTA) (PI) (PI) (DLTA) (DLTA) (DLTA) (DLTA) (PI)
                 (PI) (SG) (PI) (PI) (DLTA) (DLTA) (SG) (PI) (PI)
                 (SG) (PI) (PI) (SG) (SG)
 The electronic state is 2-SG.
 Alpha  occ. eigenvalues --  -10.24449 -10.20082  -0.77999  -0.56186  -0.40821
 Alpha  occ. eigenvalues --   -0.32142  -0.32142
 Alpha virt. eigenvalues --    0.00549   0.00549   0.03624   0.09485   0.15169
 Alpha virt. eigenvalues --    0.16465   0.16465   0.26265   0.26265   0.29238
 Alpha virt. eigenvalues --    0.32067   0.48945   0.68194   0.76129   0.76129
 Alpha virt. eigenvalues --    0.81277   0.81277   0.90507   1.14062   1.14062
 Alpha virt. eigenvalues --    1.17152   1.17152   1.20750   1.27145   1.27145
 Alpha virt. eigenvalues --    1.30433   1.33427   1.33427   1.60919   1.82758
 Alpha virt. eigenvalues --    1.82758   1.87519   2.15102   2.52797   2.96299
 Alpha virt. eigenvalues --    2.96299   3.16432   3.16432   3.25485   3.38188
 Alpha virt. eigenvalues --    3.38188   3.54791   3.54791   3.65268   3.75748
 Alpha virt. eigenvalues --    3.75748   3.82407   3.82407   3.92643   3.92643
 Alpha virt. eigenvalues --    4.07255   4.07255   4.20089   4.20089   4.37052
 Alpha virt. eigenvalues --    4.46247   4.46247   4.56427   4.56427   4.73137
 Alpha virt. eigenvalues --    5.05173   5.05173   5.29762   5.78886   5.78886
 Alpha virt. eigenvalues --    6.20586   7.16517
  Beta  occ. eigenvalues --  -10.22239 -10.20045  -0.76005  -0.55215  -0.30779
  Beta  occ. eigenvalues --   -0.30779
  Beta virt. eigenvalues --   -0.20017   0.02611   0.02611   0.03765   0.10907
  Beta virt. eigenvalues --    0.15913   0.16619   0.16619   0.27176   0.27176
  Beta virt. eigenvalues --    0.31122   0.32147   0.50849   0.71224   0.77392
  Beta virt. eigenvalues --    0.77392   0.81929   0.81929   0.92797   1.16751
  Beta virt. eigenvalues --    1.16751   1.18475   1.18475   1.25489   1.27369
  Beta virt. eigenvalues --    1.27369   1.31687   1.35456   1.35456   1.62491
  Beta virt. eigenvalues --    1.84715   1.84715   1.88184   2.18481   2.58667
  Beta virt. eigenvalues --    2.98038   2.98038   3.17442   3.17442   3.28045
  Beta virt. eigenvalues --    3.40704   3.40704   3.55905   3.55905   3.67778
  Beta virt. eigenvalues --    3.77019   3.77019   3.82994   3.82994   3.94900
  Beta virt. eigenvalues --    3.94900   4.09107   4.09107   4.29535   4.29535
  Beta virt. eigenvalues --    4.39043   4.46782   4.46782   4.57612   4.57612
  Beta virt. eigenvalues --    4.75925   5.07322   5.07322   5.33784   5.79649
  Beta virt. eigenvalues --    5.79649   6.25195   7.19296
          Condensed to atoms (all electrons):
               1          2          3
     1  C    4.758810   0.933585   0.434960
     2  C    0.933585   5.073453  -0.035525
     3  H    0.434960  -0.035525   0.501699
          Atomic-Atomic Spin Densities.
               1          2          3
     1  C   -0.155530   0.003098  -0.007075
     2  C    0.003098   1.130749   0.000978
     3  H   -0.007075   0.000978   0.030782
 Mulliken charges and spin densities:
               1          2
     1  C   -0.127355  -0.159508
     2  C    0.028488   1.134824
     3  H    0.098867   0.024684
 Sum of Mulliken charges =  -0.00000   1.00000
 Mulliken charges and spin densities with hydrogens summed into heavy atoms:
               1          2
     1  C   -0.028488  -0.134824
     2  C    0.028488   1.134824
 Electronic spatial extent (au):  <R**2>=             50.0852
 Charge=             -0.0000 electrons
 Dipole moment (field-independent basis, Debye):
    X=              0.0000    Y=              0.0000    Z=             -0.7740  Tot=              0.7740
 Quadrupole moment (field-independent basis, Debye-Ang):
   XX=            -12.9277   YY=            -12.9277   ZZ=             -8.3348
   XY=              0.0000   XZ=              0.0000   YZ=              0.0000
 Traceless Quadrupole moment (field-independent basis, Debye-Ang):
   XX=             -1.5310   YY=             -1.5310   ZZ=              3.0619
   XY=              0.0000   XZ=              0.0000   YZ=              0.0000
 Octapole moment (field-independent basis, Debye-Ang**2):
  XXX=              0.0000  YYY=              0.0000  ZZZ=             -4.6980  XYY=              0.0000
  XXY=              0.0000  XXZ=             -0.4691  XZZ=              0.0000  YZZ=              0.0000
  YYZ=             -0.4691  XYZ=              0.0000
 Hexadecapole moment (field-independent basis, Debye-Ang**3):
 XXXX=            -16.4431 YYYY=            -16.4431 ZZZZ=            -37.5474 XXXY=              0.0000
 XXXZ=              0.0000 YYYX=              0.0000 YYYZ=              0.0000 ZZZX=              0.0000
 ZZZY=              0.0000 XXYY=             -5.4810 XXZZ=            -10.5174 YYZZ=            -10.5174
 XXYZ=              0.0000 YYXZ=              0.0000 ZZXY=              0.0000
 N-N= 2.021177472713D+01 E-N=-2.183937723075D+02  KE= 7.633984377831D+01
 Symmetry A1   KE= 7.173874097306D+01
 Symmetry A2   KE= 2.577944718738D-52
 Symmetry B1   KE= 2.300551402627D+00
 Symmetry B2   KE= 2.300551402627D+00
 Symmetry A1   SP= 1.000000000000D+00
 Symmetry A2   SP=-1.050046620085D-52
 Symmetry B1   SP=-6.296229678035D-15
 Symmetry B2   SP=-1.458163830566D-15
                          Isotropic Fermi Contact Couplings
        Atom                 a.u.       MegaHertz       Gauss      10(-4) cm-1
     1  C(13)              0.18247     205.13638      73.19776      68.42613
     2  C(13)              1.01968    1146.31915     409.03518     382.37091
     3  H(1)               0.01211      54.12403      19.31280      18.05383
 --------------------------------------------------------
       Center         ----  Spin Dipole Couplings  ----
                      3XX-RR        3YY-RR        3ZZ-RR
 --------------------------------------------------------
     1   Atom       -0.186401     -0.186401      0.372802
     2   Atom       -0.387079     -0.387079      0.774158
     3   Atom       -0.006317     -0.006317      0.012633
 --------------------------------------------------------
                        XY            XZ            YZ
 --------------------------------------------------------
     1   Atom        0.000000      0.000000      0.000000
     2   Atom        0.000000      0.000000      0.000000
     3   Atom        0.000000      0.000000      0.000000
 --------------------------------------------------------


 ---------------------------------------------------------------------------------
              Anisotropic Spin Dipole Couplings in Principal Axis System
 ---------------------------------------------------------------------------------

       Atom             a.u.   MegaHertz   Gauss  10(-4) cm-1        Axes

              Baa    -0.1864   -25.013    -8.925    -8.344  1.0000  0.0000  0.0000
     1 C(13)  Bbb    -0.1864   -25.013    -8.925    -8.344 -0.0000  1.0000  0.0000
              Bcc     0.3728    50.026    17.851    16.687  0.0000  0.0000  1.0000
 
              Baa    -0.3871   -51.942   -18.534   -17.326 -0.0000  1.0000  0.0000
     2 C(13)  Bbb    -0.3871   -51.942   -18.534   -17.326  1.0000  0.0000  0.0000
              Bcc     0.7742   103.885    37.069    34.652  0.0000  0.0000  1.0000
 
              Baa    -0.0063    -3.370    -1.203    -1.124  1.0000  0.0000  0.0000
     3 H(1)   Bbb    -0.0063    -3.370    -1.203    -1.124 -0.0000  1.0000  0.0000
              Bcc     0.0126     6.740     2.405     2.248  0.0000  0.0000  1.0000
 

 ---------------------------------------------------------------------------------

 Calling FoFJK, ICntrl=      2127 FMM=F ISym2X=1 I1Cent= 0 IOpClX= 1 NMat=1 NMatS=1 NMatT=0.
 ***** Axes restored to original set *****
 -------------------------------------------------------------------
 Center     Atomic                   Forces (Hartrees/Bohr)
 Number     Number              X              Y              Z
 -------------------------------------------------------------------
      1        6          -0.000000000   -0.000000000    0.008951175
      2        6          -0.000000000   -0.000000000   -0.008937573
      3        1          -0.000000000   -0.000000000   -0.000013602
 -------------------------------------------------------------------
 Cartesian Forces:  Max     0.008951175 RMS     0.004216422

 GradGradGradGradGradGradGradGradGradGradGradGradGradGradGradGradGradGrad
 Berny optimization.
 FormGI is forming the generalized inverse of G from B-inverse, IUseBI=4.
 Internal  Forces:  Max     0.008937573 RMS     0.004468791
 Search for a local minimum.
 Step number   1 out of a maximum of   20
 All quantities printed in internal units (Hartrees-Bohrs-Radians)
 Mixed Optimization -- RFO/linear search
 Second derivative matrix not updated -- first step.
 The second derivative matrix:
                          R1        R2        A1        A2
           R1           1.02954
           R2           0.00000   0.38073
           A1           0.00000   0.00000   0.00586
           A2           0.00000   0.00000   0.00000   0.00586
 ITU=  0
     Eigenvalues ---    0.00586   0.00586   0.38073   1.02954
 RFO step:  Lambda=-7.75888901D-05 EMin= 5.86273829D-03
 Linear search not attempted -- first point.
 Iteration  1 RMS(Cart)=  0.00353653 RMS(Int)=  0.00000000
 Iteration  2 RMS(Cart)=  0.00000000 RMS(Int)=  0.00000000
 ClnCor:  largest displacement from symmetrization is 6.84D-15 for atom     1.
 Variable       Old X    -DE/DX   Delta X   Delta X   Delta X     New X
                                 (Linear)    (Quad)   (Total)
    R1        2.27479  -0.00894   0.00000  -0.00868  -0.00868   2.26611
    R2        2.00960   0.00001   0.00000   0.00004   0.00004   2.00963
    A1        3.14159  -0.00000   0.00000  -0.00000   0.00000   3.14159
    A2        3.14159  -0.00000   0.00000   0.00000   0.00000   3.14159
         Item               Value     Threshold  Converged?
 Maximum Force            0.008938     0.000450     NO 
 RMS     Force            0.004469     0.000300     NO 
 Maximum Displacement     0.005775     0.001800     NO 
 RMS     Displacement     0.003537     0.001200     NO 
 Predicted change in Energy=-3.879444D-05
 GradGradGradGradGradGradGradGradGradGradGradGradGradGradGradGradGradGrad

                          Input orientation:                          
 ---------------------------------------------------------------------
 Center     Atomic      Atomic             Coordinates (Angstroms)
 Number     Number       Type             X           Y           Z
 ---------------------------------------------------------------------
      1          6           0        0.000000    0.000000   -0.472244
      2          6           0        0.000000    0.000000    0.726928
      3          1           0        0.000000    0.000000   -1.535694
 ---------------------------------------------------------------------
                    Distance matrix (angstroms):
                    1          2          3
     1  C    0.000000
     2  C    1.199171   0.000000
     3  H    1.063451   2.262622   0.000000
 Stoichiometry    C2H(2)
 Framework group  C*V[C*(HCC)]
 Deg. of freedom     2
 Full point group                 C*V     NOp   4
 Largest Abelian subgroup         C2V     NOp   4
 Largest concise Abelian subgroup C1      NOp   1
                         Standard orientation:                         
 ---------------------------------------------------------------------
 Center     Atomic      Atomic             Coordinates (Angstroms)
 Number     Number       Type             X           Y           Z
 ---------------------------------------------------------------------
      1          6           0        0.000000    0.000000   -0.471660
      2          6           0        0.000000    0.000000    0.727512
      3          1           0        0.000000    0.000000   -1.535111
 ---------------------------------------------------------------------
 Rotational constants (GHZ):           0.0000000          44.7116376          44.7116376
 Basis read from rwf:  (5D, 7F)
 There are    40 symmetry adapted cartesian basis functions of A1  symmetry.
 There are     7 symmetry adapted cartesian basis functions of A2  symmetry.
 There are    19 symmetry adapted cartesian basis functions of B1  symmetry.
 There are    19 symmetry adapted cartesian basis functions of B2  symmetry.
 There are    33 symmetry adapted basis functions of A1  symmetry.
 There are     7 symmetry adapted basis functions of A2  symmetry.
 There are    17 symmetry adapted basis functions of B1  symmetry.
 There are    17 symmetry adapted basis functions of B2  symmetry.
    74 basis functions,   120 primitive gaussians,    85 cartesian basis functions
     7 alpha electrons        6 beta electrons
       nuclear repulsion energy        20.2751745336 Hartrees.
 NAtoms=    3 NActive=    3 NUniq=    3 SFac= 1.00D+00 NAtFMM=   60 NAOKFM=F Big=F
 Integral buffers will be    131072 words long.
 Raffenetti 2 integral format.
 Two-electron integral symmetry is turned on.
 One-electron integrals computed using PRISM.
 NBasis=    74 RedAO= T EigKep=  3.27D-04  NBF=    33     7    17    17
 NBsUse=    74 1.00D-06 EigRej= -1.00D+00 NBFU=    33     7    17    17
 Initial guess from the checkpoint file:  "/wrk/irikura/Gau-67141.chk"
 B after Tr=     0.000000    0.000000    0.000000
         Rot=    1.000000    0.000000    0.000000    0.000000 Ang=   0.00 deg.
 Initial guess orbital symmetries:
 Alpha Orbitals:
       Occupied  (SG) (SG) (SG) (SG) (SG) (PI) (PI)
       Virtual   (PI) (PI) (SG) (SG) (SG) (PI) (PI) (PI) (PI) (SG)
                 (SG) (SG) (SG) (PI) (PI) (DLTA) (DLTA) (SG) (PI)
                 (PI) (DLTA) (DLTA) (SG) (PI) (PI) (SG) (PI) (PI)
                 (SG) (PI) (PI) (SG) (SG) (SG) (DLTA) (DLTA) (PHI)
                 (PHI) (SG) (PI) (PI) (PHI) (PHI) (SG) (DLTA) (DLTA)
                 (PI) (PI) (DLTA) (DLTA) (DLTA) (DLTA) (PI) (PI)
                 (SG) (PI) (PI) (DLTA) (DLTA) (SG) (PI) (PI) (SG)
                 (PI) (PI) (SG) (SG)
 Beta  Orbitals:
       Occupied  (SG) (SG) (SG) (SG) (PI) (PI)
       Virtual   (SG) (PI) (PI) (SG) (SG) (SG) (PI) (PI) (PI) (PI)
                 (SG) (SG) (SG) (SG) (PI) (PI) (DLTA) (DLTA) (SG)
                 (PI) (PI) (DLTA) (DLTA) (SG) (PI) (PI) (SG) (PI)
                 (PI) (SG) (PI) (PI) (SG) (SG) (SG) (DLTA) (DLTA)
                 (PHI) (PHI) (SG) (PI) (PI) (PHI) (PHI) (SG) (DLTA)
                 (DLTA) (PI) (PI) (DLTA) (DLTA) (DLTA) (DLTA) (PI)
                 (PI) (SG) (PI) (PI) (DLTA) (DLTA) (SG) (PI) (PI)
                 (SG) (PI) (PI) (SG) (SG)
 Initial guess <Sx>= 0.0000 <Sy>= 0.0000 <Sz>= 0.5000 <S**2>= 0.7722 S= 0.5110
 Keep R1 and R2 ints in memory in symmetry-blocked form, NReq=14779632.
 Requested convergence on RMS density matrix=1.00D-08 within 128 cycles.
 Requested convergence on MAX density matrix=1.00D-06.
 Requested convergence on             energy=1.00D-06.
 No special actions if energy rises.
 SCF Done:  E(UB3LYP) =  -76.6399524089     A.U. after    9 cycles
            NFock=  9  Conv=0.34D-08     -V/T= 2.0037
 <Sx>= 0.0000 <Sy>= 0.0000 <Sz>= 0.5000 <S**2>= 0.7717 S= 0.5108
 <L.S>=  0.00000000000    
 Annihilation of the first spin contaminant:
 S**2 before annihilation     0.7717,   after     0.7503
 Calling FoFJK, ICntrl=      2127 FMM=F ISym2X=1 I1Cent= 0 IOpClX= 1 NMat=1 NMatS=1 NMatT=0.
 ***** Axes restored to original set *****
 -------------------------------------------------------------------
 Center     Atomic                   Forces (Hartrees/Bohr)
 Number     Number              X              Y              Z
 -------------------------------------------------------------------
      1        6          -0.000000000   -0.000000000   -0.000291478
      2        6          -0.000000000   -0.000000000    0.000216147
      3        1          -0.000000000   -0.000000000    0.000075331
 -------------------------------------------------------------------
 Cartesian Forces:  Max     0.000291478 RMS     0.000123538

 GradGradGradGradGradGradGradGradGradGradGradGradGradGradGradGradGradGrad
 Berny optimization.
 Using GEDIIS/GDIIS optimizer.
 Internal  Forces:  Max     0.000216147 RMS     0.000114449
 Search for a local minimum.
 Step number   2 out of a maximum of   20
 All quantities printed in internal units (Hartrees-Bohrs-Radians)
 Mixed Optimization -- En-DIIS/RFO-DIIS
 Update second derivatives using D2CorX and points    1    2
 DE= -3.80D-05 DEPred=-3.88D-05 R= 9.80D-01
 TightC=F SS=  1.41D+00  RLast= 8.68D-03 DXNew= 5.0454D-01 2.6042D-02
 Trust test= 9.80D-01 RLast= 8.68D-03 DXMaxT set to 3.00D-01
 The second derivative matrix:
                          R1        R2        A1        A2
           R1           1.05448
           R2          -0.00868   0.38082
           A1           0.00000   0.00000   0.00586
           A2           0.00000   0.00000   0.00000   0.00586
 ITU=  1  0
 Use linear search instead of GDIIS.
     Eigenvalues ---    0.00586   0.00586   0.38071   1.05459
 RFO step:  Lambda=-1.40906836D-08 EMin= 5.86273829D-03
 Quartic linear search produced a step of -0.02333.
 Iteration  1 RMS(Cart)=  0.00008045 RMS(Int)=  0.00000000
 Iteration  2 RMS(Cart)=  0.00000000 RMS(Int)=  0.00000000
 ClnCor:  largest displacement from symmetrization is 0.00D+00 for atom     0.
 Variable       Old X    -DE/DX   Delta X   Delta X   Delta X     New X
                                 (Linear)    (Quad)   (Total)
    R1        2.26611   0.00022   0.00020  -0.00000   0.00020   2.26631
    R2        2.00963  -0.00008  -0.00000  -0.00019  -0.00019   2.00944
    A1        3.14159  -0.00000   0.00000  -0.00000   0.00000   3.14159
    A2        3.14159  -0.00000   0.00000  -0.00000   0.00000   3.14159
         Item               Value     Threshold  Converged?
 Maximum Force            0.000216     0.000450     YES
 RMS     Force            0.000114     0.000300     YES
 Maximum Displacement     0.000131     0.001800     YES
 RMS     Displacement     0.000080     0.001200     YES
 Predicted change in Energy=-2.925327D-08
 Optimization completed.
    -- Stationary point found.
                           ----------------------------
                           !   Optimized Parameters   !
                           ! (Angstroms and Degrees)  !
 --------------------------                            --------------------------
 ! Name  Definition              Value          Derivative Info.                !
 --------------------------------------------------------------------------------
 ! R1    R(1,2)                  1.1992         -DE/DX =    0.0002              !
 ! R2    R(1,3)                  1.0635         -DE/DX =   -0.0001              !
 ! A1    L(2,1,3,-1,-1)        180.0            -DE/DX =    0.0                 !
 ! A2    L(2,1,3,-2,-2)        180.0            -DE/DX =    0.0                 !
 --------------------------------------------------------------------------------
 GradGradGradGradGradGradGradGradGradGradGradGradGradGradGradGradGradGrad

                          Input orientation:                          
 ---------------------------------------------------------------------
 Center     Atomic      Atomic             Coordinates (Angstroms)
 Number     Number       Type             X           Y           Z
 ---------------------------------------------------------------------
      1          6           0        0.000000    0.000000   -0.472244
      2          6           0        0.000000    0.000000    0.726928
      3          1           0        0.000000    0.000000   -1.535694
 ---------------------------------------------------------------------
                    Distance matrix (angstroms):
                    1          2          3
     1  C    0.000000
     2  C    1.199171   0.000000
     3  H    1.063451   2.262622   0.000000
 Stoichiometry    C2H(2)
 Framework group  C*V[C*(HCC)]
 Deg. of freedom     2
 Full point group                 C*V     NOp   4
 Largest Abelian subgroup         C2V     NOp   4
 Largest concise Abelian subgroup C1      NOp   1
                         Standard orientation:                         
 ---------------------------------------------------------------------
 Center     Atomic      Atomic             Coordinates (Angstroms)
 Number     Number       Type             X           Y           Z
 ---------------------------------------------------------------------
      1          6           0        0.000000    0.000000   -0.471660
      2          6           0        0.000000    0.000000    0.727512
      3          1           0        0.000000    0.000000   -1.535111
 ---------------------------------------------------------------------
 Rotational constants (GHZ):           0.0000000          44.7116376          44.7116376

 **********************************************************************

            Population analysis using the SCF Density.

 **********************************************************************

 Orbital symmetries:
 Alpha Orbitals:
       Occupied  (SG) (SG) (SG) (SG) (SG) (PI) (PI)
       Virtual   (PI) (PI) (SG) (SG) (SG) (PI) (PI) (PI) (PI) (SG)
                 (SG) (SG) (SG) (PI) (PI) (DLTA) (DLTA) (SG) (PI)
                 (PI) (DLTA) (DLTA) (SG) (PI) (PI) (SG) (PI) (PI)
                 (SG) (PI) (PI) (SG) (SG) (SG) (DLTA) (DLTA) (PHI)
                 (PHI) (SG) (PI) (PI) (PHI) (PHI) (SG) (DLTA) (DLTA)
                 (PI) (PI) (DLTA) (DLTA) (DLTA) (DLTA) (PI) (PI)
                 (SG) (PI) (PI) (DLTA) (DLTA) (SG) (PI) (PI) (SG)
                 (PI) (PI) (SG) (SG)
 Beta  Orbitals:
       Occupied  (SG) (SG) (SG) (SG) (PI) (PI)
       Virtual   (SG) (PI) (PI) (SG) (SG) (SG) (PI) (PI) (PI) (PI)
                 (SG) (SG) (SG) (SG) (PI) (PI) (DLTA) (DLTA) (SG)
                 (PI) (PI) (DLTA) (DLTA) (SG) (PI) (PI) (SG) (PI)
                 (PI) (SG) (PI) (PI) (SG) (SG) (SG) (DLTA) (DLTA)
                 (PHI) (PHI) (SG) (PI) (PI) (PHI) (PHI) (SG) (DLTA)
                 (DLTA) (PI) (PI) (DLTA) (DLTA) (DLTA) (DLTA) (PI)
                 (PI) (SG) (PI) (PI) (DLTA) (DLTA) (SG) (PI) (PI)
                 (SG) (PI) (PI) (SG) (SG)
 The electronic state is 2-SG.
 Alpha  occ. eigenvalues --  -10.24314 -10.19951  -0.78085  -0.56136  -0.40789
 Alpha  occ. eigenvalues --   -0.32205  -0.32205
 Alpha virt. eigenvalues --    0.00678   0.00678   0.03639   0.09494   0.15173
 Alpha virt. eigenvalues --    0.16446   0.16446   0.26333   0.26333   0.29345
 Alpha virt. eigenvalues --    0.32068   0.48979   0.68526   0.76222   0.76222
 Alpha virt. eigenvalues --    0.81264   0.81264   0.90475   1.14096   1.14096
 Alpha virt. eigenvalues --    1.17310   1.17310   1.20950   1.27273   1.27273
 Alpha virt. eigenvalues --    1.30391   1.33450   1.33450   1.60950   1.82989
 Alpha virt. eigenvalues --    1.82989   1.87880   2.15840   2.51922   2.96476
 Alpha virt. eigenvalues --    2.96476   3.16273   3.16273   3.26259   3.38611
 Alpha virt. eigenvalues --    3.38611   3.55089   3.55089   3.65771   3.75977
 Alpha virt. eigenvalues --    3.75977   3.82395   3.82395   3.92734   3.92734
 Alpha virt. eigenvalues --    4.07346   4.07346   4.19824   4.19824   4.37751
 Alpha virt. eigenvalues --    4.46443   4.46443   4.57048   4.57048   4.74003
 Alpha virt. eigenvalues --    5.05935   5.05935   5.31126   5.79104   5.79104
 Alpha virt. eigenvalues --    6.20851   7.19165
  Beta  occ. eigenvalues --  -10.22108 -10.19909  -0.76090  -0.55181  -0.30843
  Beta  occ. eigenvalues --   -0.30843
  Beta virt. eigenvalues --   -0.19961   0.02736   0.02736   0.03779   0.10928
  Beta virt. eigenvalues --    0.15911   0.16601   0.16601   0.27252   0.27252
  Beta virt. eigenvalues --    0.31209   0.32151   0.50902   0.71556   0.77486
  Beta virt. eigenvalues --    0.77486   0.81915   0.81915   0.92758   1.16750
  Beta virt. eigenvalues --    1.16750   1.18636   1.18636   1.25728   1.27479
  Beta virt. eigenvalues --    1.27479   1.31589   1.35530   1.35530   1.62539
  Beta virt. eigenvalues --    1.84952   1.84952   1.88536   2.19140   2.57917
  Beta virt. eigenvalues --    2.98208   2.98208   3.17279   3.17279   3.28849
  Beta virt. eigenvalues --    3.41140   3.41140   3.56205   3.56205   3.68273
  Beta virt. eigenvalues --    3.77214   3.77214   3.82955   3.82955   3.95029
  Beta virt. eigenvalues --    3.95029   4.09194   4.09194   4.29292   4.29292
  Beta virt. eigenvalues --    4.39735   4.46961   4.46961   4.58240   4.58240
  Beta virt. eigenvalues --    4.76807   5.08065   5.08065   5.35051   5.79889
  Beta virt. eigenvalues --    5.79889   6.25516   7.21949
          Condensed to atoms (all electrons):
               1          2          3
     1  C    4.758217   0.935518   0.435785
     2  C    0.935518   5.068126  -0.035370
     3  H    0.435785  -0.035370   0.501791
          Atomic-Atomic Spin Densities.
               1          2          3
     1  C   -0.153176   0.002751  -0.006940
     2  C    0.002751   1.129296   0.001040
     3  H   -0.006940   0.001040   0.030178
 Mulliken charges and spin densities:
               1          2
     1  C   -0.129520  -0.157365
     2  C    0.031726   1.133087
     3  H    0.097794   0.024278
 Sum of Mulliken charges =  -0.00000   1.00000
 Mulliken charges and spin densities with hydrogens summed into heavy atoms:
               1          2
     1  C   -0.031726  -0.133087
     2  C    0.031726   1.133087
 Electronic spatial extent (au):  <R**2>=             49.9177
 Charge=             -0.0000 electrons
 Dipole moment (field-independent basis, Debye):
    X=              0.0000    Y=              0.0000    Z=             -0.7720  Tot=              0.7720
 Quadrupole moment (field-independent basis, Debye-Ang):
   XX=            -12.9074   YY=            -12.9074   ZZ=             -8.3426
   XY=              0.0000   XZ=              0.0000   YZ=              0.0000
 Traceless Quadrupole moment (field-independent basis, Debye-Ang):
   XX=             -1.5216   YY=             -1.5216   ZZ=              3.0432
   XY=              0.0000   XZ=              0.0000   YZ=              0.0000
 Octapole moment (field-independent basis, Debye-Ang**2):
  XXX=              0.0000  YYY=              0.0000  ZZZ=             -4.6792  XYY=              0.0000
  XXY=              0.0000  XXZ=             -0.4667  XZZ=              0.0000  YZZ=              0.0000
  YYZ=             -0.4667  XYZ=              0.0000
 Hexadecapole moment (field-independent basis, Debye-Ang**3):
 XXXX=            -16.3884 YYYY=            -16.3884 ZZZZ=            -37.4011 XXXY=              0.0000
 XXXZ=              0.0000 YYYX=              0.0000 YYYZ=              0.0000 ZZZX=              0.0000
 ZZZY=              0.0000 XXYY=             -5.4628 XXZZ=            -10.4692 YYZZ=            -10.4692
 XXYZ=              0.0000 YYXZ=              0.0000 ZZXY=              0.0000
 N-N= 2.027517453359D+01 E-N=-2.185410294654D+02  KE= 7.636051682481D+01
 Symmetry A1   KE= 7.175286889826D+01
 Symmetry A2   KE= 1.541812207100D-52
 Symmetry B1   KE= 2.303823963273D+00
 Symmetry B2   KE= 2.303823963273D+00
 Symmetry A1   SP= 1.000000000000D+00
 Symmetry A2   SP= 2.459451795559D-52
 Symmetry B1   SP=-5.100026033000D-15
 Symmetry B2   SP=-2.760886950916D-15
                          Isotropic Fermi Contact Couplings
        Atom                 a.u.       MegaHertz       Gauss      10(-4) cm-1
     1  C(13)              0.18351     206.30251      73.61387      68.81511
     2  C(13)              1.01691    1143.20103     407.92256     381.33082
     3  H(1)               0.01187      53.05407      18.93101      17.69693
 --------------------------------------------------------
       Center         ----  Spin Dipole Couplings  ----
                      3XX-RR        3YY-RR        3ZZ-RR
 --------------------------------------------------------
     1   Atom       -0.185450     -0.185450      0.370899
     2   Atom       -0.389453     -0.389453      0.778906
     3   Atom       -0.006398     -0.006398      0.012796
 --------------------------------------------------------
                        XY            XZ            YZ
 --------------------------------------------------------
     1   Atom        0.000000      0.000000      0.000000
     2   Atom        0.000000      0.000000      0.000000
     3   Atom        0.000000      0.000000      0.000000
 --------------------------------------------------------


 ---------------------------------------------------------------------------------
              Anisotropic Spin Dipole Couplings in Principal Axis System
 ---------------------------------------------------------------------------------

       Atom             a.u.   MegaHertz   Gauss  10(-4) cm-1        Axes

              Baa    -0.1854   -24.886    -8.880    -8.301 -0.0000  1.0000  0.0000
     1 C(13)  Bbb    -0.1854   -24.886    -8.880    -8.301  1.0000  0.0000  0.0000
              Bcc     0.3709    49.771    17.760    16.602  0.0000  0.0000  1.0000
 
              Baa    -0.3895   -52.261   -18.648   -17.432  1.0000  0.0000  0.0000
     2 C(13)  Bbb    -0.3895   -52.261   -18.648   -17.432 -0.0000  1.0000  0.0000
              Bcc     0.7789   104.522    37.296    34.865  0.0000  0.0000  1.0000
 
              Baa    -0.0064    -3.414    -1.218    -1.139  1.0000  0.0000  0.0000
     3 H(1)   Bbb    -0.0064    -3.414    -1.218    -1.139 -0.0000  1.0000  0.0000
              Bcc     0.0128     6.827     2.436     2.277  0.0000  0.0000  1.0000
 

 ---------------------------------------------------------------------------------

 1\1\GINC-GAMBA\FOpt\UB3LYP\Gen\C2H1(2)\IRIKURA\15-Sep-2023\0\\# b3lyp/
 gen opt freq CPHF(Grid=OneStep)\\ethynyl, B3LYP/pcseg-2\\0,2\C,0.,0.,-
 0.472243526\C,0.,0.,0.7269279537\H,0.,0.,-1.5356944278\\Version=ES64L-
 G16RevB.01\State=2-SG\HF=-76.6399524\S2=0.771733\S2-1=0.\S2A=0.750278\
 RMSD=3.447e-09\RMSF=1.235e-04\Dipole=0.,0.,-0.3037255\Quadrupole=-1.13
 128,-1.13128,2.26256,0.,0.,0.\PG=C*V [C*(H1C1C1)]\\@


  DISAPPOINTMENT IS THE NURSE OF WISDOM.               
                              SIR BOYLE ROCHE                 
 Job cpu time:       0 days  0 hours  0 minutes 59.9 seconds.
 Elapsed time:       0 days  0 hours  0 minutes  5.1 seconds.
 File lengths (MBytes):  RWF=     10 Int=      0 D2E=      0 Chk=      2 Scr=      1
 Normal termination of Gaussian 16 at Fri Sep 15 22:52:58 2023.
 Link1:  Proceeding to internal job step number  2.
 ------------------------------------------------------------------
 #N Geom=AllCheck Guess=TCheck SCRF=Check GenChk UB3LYP/ChkBas Freq
 ------------------------------------------------------------------
 1/10=4,29=7,30=1,38=1,40=1/1,3;
 2/12=2,40=1/2;
 3/5=7,6=2,11=2,14=-4,25=1,30=1,67=1,70=2,71=2,74=-5,82=7,116=2,140=1/1,2,3;
 4/5=101/1;
 5/5=2,38=6,98=1/2;
 8/6=4,10=90,11=11/1;
 11/6=1,8=1,9=11,15=111,16=1/1,2,10;
 10/6=1,60=-420/2;
 6/7=2,8=2,9=2,10=2,28=1/1;
 7/8=1,10=1,25=1/1,2,3,16;
 1/10=4,30=1/3;
 99//99;
 Structure from the checkpoint file:  "/wrk/irikura/Gau-67141.chk"
 ----------------------
 ethynyl, B3LYP/pcseg-2
 ----------------------
 Charge =  0 Multiplicity = 2
 Redundant internal coordinates found in file.  (old form).
 C,0,0.,0.,-0.472243526
 C,0,0.,0.,0.7269279537
 H,0,0.,0.,-1.5356944278
 Recover connectivity data from disk.

 GradGradGradGradGradGradGradGradGradGradGradGradGradGradGradGradGradGrad
 Berny optimization.
 Initialization pass.
                           ----------------------------
                           !    Initial Parameters    !
                           ! (Angstroms and Degrees)  !
 --------------------------                            --------------------------
 ! Name  Definition              Value          Derivative Info.                !
 --------------------------------------------------------------------------------
 ! R1    R(1,2)                  1.1992         calculate D2E/DX2 analytically  !
 ! R2    R(1,3)                  1.0635         calculate D2E/DX2 analytically  !
 ! A1    L(2,1,3,-1,-1)        180.0            calculate D2E/DX2 analytically  !
 ! A2    L(2,1,3,-2,-2)        180.0            calculate D2E/DX2 analytically  !
 --------------------------------------------------------------------------------
 Trust Radius=3.00D-01 FncErr=1.00D-07 GrdErr=1.00D-07 EigMax=2.50D+02 EigMin=1.00D-04
 Number of steps in this run=      2 maximum allowed number of steps=      2.
 GradGradGradGradGradGradGradGradGradGradGradGradGradGradGradGradGradGrad

                          Input orientation:                          
 ---------------------------------------------------------------------
 Center     Atomic      Atomic             Coordinates (Angstroms)
 Number     Number       Type             X           Y           Z
 ---------------------------------------------------------------------
      1          6           0        0.000000    0.000000   -0.472244
      2          6           0        0.000000    0.000000    0.726928
      3          1           0        0.000000    0.000000   -1.535694
 ---------------------------------------------------------------------
                    Distance matrix (angstroms):
                    1          2          3
     1  C    0.000000
     2  C    1.199171   0.000000
     3  H    1.063451   2.262622   0.000000
 Stoichiometry    C2H(2)
 Framework group  C*V[C*(HCC)]
 Deg. of freedom     2
 Full point group                 C*V     NOp   4
 Largest Abelian subgroup         C2V     NOp   4
 Largest concise Abelian subgroup C1      NOp   1
                         Standard orientation:                         
 ---------------------------------------------------------------------
 Center     Atomic      Atomic             Coordinates (Angstroms)
 Number     Number       Type             X           Y           Z
 ---------------------------------------------------------------------
      1          6           0        0.000000    0.000000   -0.471660
      2          6           0        0.000000    0.000000    0.727512
      3          1           0        0.000000    0.000000   -1.535111
 ---------------------------------------------------------------------
 Rotational constants (GHZ):           0.0000000          44.7116376          44.7116376
 Basis read from chk: "/wrk/irikura/Gau-67141.chk" (5D, 7F)
 There are    40 symmetry adapted cartesian basis functions of A1  symmetry.
 There are     7 symmetry adapted cartesian basis functions of A2  symmetry.
 There are    19 symmetry adapted cartesian basis functions of B1  symmetry.
 There are    19 symmetry adapted cartesian basis functions of B2  symmetry.
 There are    33 symmetry adapted basis functions of A1  symmetry.
 There are     7 symmetry adapted basis functions of A2  symmetry.
 There are    17 symmetry adapted basis functions of B1  symmetry.
 There are    17 symmetry adapted basis functions of B2  symmetry.
    74 basis functions,   120 primitive gaussians,    85 cartesian basis functions
     7 alpha electrons        6 beta electrons
       nuclear repulsion energy        20.2751745336 Hartrees.
 NAtoms=    3 NActive=    3 NUniq=    3 SFac= 1.00D+00 NAtFMM=   60 NAOKFM=F Big=F
 Integral buffers will be    131072 words long.
 Raffenetti 2 integral format.
 Two-electron integral symmetry is turned on.
 One-electron integrals computed using PRISM.
 NBasis=    74 RedAO= T EigKep=  3.27D-04  NBF=    33     7    17    17
 NBsUse=    74 1.00D-06 EigRej= -1.00D+00 NBFU=    33     7    17    17
 Initial guess from the checkpoint file:  "/wrk/irikura/Gau-67141.chk"
 B after Tr=     0.000000    0.000000    0.000000
         Rot=    1.000000    0.000000    0.000000    0.000000 Ang=   0.00 deg.
 Initial guess orbital symmetries:
 Alpha Orbitals:
       Occupied  (SG) (SG) (SG) (SG) (SG) (PI) (PI)
       Virtual   (PI) (PI) (SG) (SG) (SG) (PI) (PI) (PI) (PI) (SG)
                 (SG) (SG) (SG) (PI) (PI) (DLTA) (DLTA) (SG) (PI)
                 (PI) (DLTA) (DLTA) (SG) (PI) (PI) (SG) (PI) (PI)
                 (SG) (PI) (PI) (SG) (SG) (SG) (DLTA) (DLTA) (PHI)
                 (PHI) (SG) (PI) (PI) (PHI) (PHI) (SG) (DLTA) (DLTA)
                 (PI) (PI) (DLTA) (DLTA) (DLTA) (DLTA) (PI) (PI)
                 (SG) (PI) (PI) (DLTA) (DLTA) (SG) (PI) (PI) (SG)
                 (PI) (PI) (SG) (SG)
 Beta  Orbitals:
       Occupied  (SG) (SG) (SG) (SG) (PI) (PI)
       Virtual   (SG) (PI) (PI) (SG) (SG) (SG) (PI) (PI) (PI) (PI)
                 (SG) (SG) (SG) (SG) (PI) (PI) (DLTA) (DLTA) (SG)
                 (PI) (PI) (DLTA) (DLTA) (SG) (PI) (PI) (SG) (PI)
                 (PI) (SG) (PI) (PI) (SG) (SG) (SG) (DLTA) (DLTA)
                 (PHI) (PHI) (SG) (PI) (PI) (PHI) (PHI) (SG) (DLTA)
                 (DLTA) (PI) (PI) (DLTA) (DLTA) (DLTA) (DLTA) (PI)
                 (PI) (SG) (PI) (PI) (DLTA) (DLTA) (SG) (PI) (PI)
                 (SG) (PI) (PI) (SG) (SG)
 Initial guess <Sx>= 0.0000 <Sy>= 0.0000 <Sz>= 0.5000 <S**2>= 0.7717 S= 0.5108
 Keep R1 and R2 ints in memory in symmetry-blocked form, NReq=14779632.
 Requested convergence on RMS density matrix=1.00D-08 within 128 cycles.
 Requested convergence on MAX density matrix=1.00D-06.
 Requested convergence on             energy=1.00D-06.
 No special actions if energy rises.
 SCF Done:  E(UB3LYP) =  -76.6399524089     A.U. after    1 cycles
            NFock=  1  Conv=0.38D-09     -V/T= 2.0037
 <Sx>= 0.0000 <Sy>= 0.0000 <Sz>= 0.5000 <S**2>= 0.7717 S= 0.5108
 <L.S>=  0.00000000000    
 Annihilation of the first spin contaminant:
 S**2 before annihilation     0.7717,   after     0.7503
 DoSCS=F DFT=T ScalE2(SS,OS)=  1.000000  1.000000
 Range of M.O.s used for correlation:     1    74
 NBasis=    74 NAE=     7 NBE=     6 NFC=     0 NFV=     0
 NROrb=     74 NOA=     7 NOB=     6 NVA=    67 NVB=    68

 **** Warning!!: The largest alpha MO coefficient is  0.27236676D+02


 **** Warning!!: The largest beta MO coefficient is  0.27541536D+02

 Symmetrizing basis deriv contribution to polar:
 IMax=3 JMax=2 DiffMx= 0.00D+00
 G2DrvN: will do     4 centers at a time, making    1 passes.
 Calling FoFCou, ICntrl=  3107 FMM=F I1Cent=   0 AccDes= 0.00D+00.
 End of G2Drv F.D. properties file   721 does not exist.
 End of G2Drv F.D. properties file   722 does not exist.
 End of G2Drv F.D. properties file   788 does not exist.
          IDoAtm=111
          Differentiating once with respect to electric field.
                with respect to dipole field.
          Differentiating once with respect to nuclear coordinates.
 Keep R1 and R2 ints in memory in symmetry-blocked form, NReq=14753527.
          There are    12 degrees of freedom in the 1st order CPHF.  IDoFFX=6 NUNeed=     3.
      9 vectors produced by pass  0 Test12= 7.31D-15 8.33D-09 XBig12= 6.85D+01 3.88D+00.
 AX will form     9 AO Fock derivatives at one time.
      9 vectors produced by pass  1 Test12= 7.31D-15 8.33D-09 XBig12= 4.09D+01 2.59D+00.
      9 vectors produced by pass  2 Test12= 7.31D-15 8.33D-09 XBig12= 8.67D-01 3.17D-01.
      9 vectors produced by pass  3 Test12= 7.31D-15 8.33D-09 XBig12= 1.48D-02 6.42D-02.
      9 vectors produced by pass  4 Test12= 7.31D-15 8.33D-09 XBig12= 1.21D-04 3.58D-03.
      9 vectors produced by pass  5 Test12= 7.31D-15 8.33D-09 XBig12= 8.37D-07 2.19D-04.
      5 vectors produced by pass  6 Test12= 7.31D-15 8.33D-09 XBig12= 3.50D-09 1.33D-05.
      4 vectors produced by pass  7 Test12= 7.31D-15 8.33D-09 XBig12= 1.96D-11 1.43D-06.
      1 vectors produced by pass  8 Test12= 7.31D-15 8.33D-09 XBig12= 6.26D-14 6.66D-08.
 InvSVY:  IOpt=1 It=  1 EMax= 5.55D-16
 Solved reduced A of dimension    64 with     9 vectors.
 Isotropic polarizability for W=    0.000000       22.08 Bohr**3.
 End of Minotr F.D. properties file   721 does not exist.
 End of Minotr F.D. properties file   722 does not exist.
 End of Minotr F.D. properties file   788 does not exist.

 **********************************************************************

            Population analysis using the SCF Density.

 **********************************************************************

 Orbital symmetries:
 Alpha Orbitals:
       Occupied  (SG) (SG) (SG) (SG) (SG) (PI) (PI)
       Virtual   (PI) (PI) (SG) (SG) (SG) (PI) (PI) (PI) (PI) (SG)
                 (SG) (SG) (SG) (PI) (PI) (DLTA) (DLTA) (SG) (PI)
                 (PI) (DLTA) (DLTA) (SG) (PI) (PI) (SG) (PI) (PI)
                 (SG) (PI) (PI) (SG) (SG) (SG) (DLTA) (DLTA) (PHI)
                 (PHI) (SG) (PI) (PI) (PHI) (PHI) (SG) (DLTA) (DLTA)
                 (PI) (PI) (DLTA) (DLTA) (DLTA) (DLTA) (PI) (PI)
                 (SG) (PI) (PI) (DLTA) (DLTA) (SG) (PI) (PI) (SG)
                 (PI) (PI) (SG) (SG)
 Beta  Orbitals:
       Occupied  (SG) (SG) (SG) (SG) (PI) (PI)
       Virtual   (SG) (PI) (PI) (SG) (SG) (SG) (PI) (PI) (PI) (PI)
                 (SG) (SG) (SG) (SG) (PI) (PI) (DLTA) (DLTA) (SG)
                 (PI) (PI) (DLTA) (DLTA) (SG) (PI) (PI) (SG) (PI)
                 (PI) (SG) (PI) (PI) (SG) (SG) (SG) (DLTA) (DLTA)
                 (PHI) (PHI) (SG) (PI) (PI) (PHI) (PHI) (SG) (DLTA)
                 (DLTA) (PI) (PI) (DLTA) (DLTA) (DLTA) (DLTA) (PI)
                 (PI) (SG) (PI) (PI) (DLTA) (DLTA) (SG) (PI) (PI)
                 (SG) (PI) (PI) (SG) (SG)
 The electronic state is 2-SG.
 Alpha  occ. eigenvalues --  -10.24314 -10.19951  -0.78085  -0.56136  -0.40789
 Alpha  occ. eigenvalues --   -0.32205  -0.32205
 Alpha virt. eigenvalues --    0.00678   0.00678   0.03639   0.09494   0.15173
 Alpha virt. eigenvalues --    0.16446   0.16446   0.26333   0.26333   0.29345
 Alpha virt. eigenvalues --    0.32068   0.48979   0.68526   0.76222   0.76222
 Alpha virt. eigenvalues --    0.81264   0.81264   0.90475   1.14096   1.14096
 Alpha virt. eigenvalues --    1.17310   1.17310   1.20950   1.27273   1.27273
 Alpha virt. eigenvalues --    1.30391   1.33450   1.33450   1.60950   1.82989
 Alpha virt. eigenvalues --    1.82989   1.87880   2.15840   2.51922   2.96476
 Alpha virt. eigenvalues --    2.96476   3.16273   3.16273   3.26259   3.38611
 Alpha virt. eigenvalues --    3.38611   3.55089   3.55089   3.65771   3.75977
 Alpha virt. eigenvalues --    3.75977   3.82395   3.82395   3.92734   3.92734
 Alpha virt. eigenvalues --    4.07346   4.07346   4.19824   4.19824   4.37751
 Alpha virt. eigenvalues --    4.46443   4.46443   4.57048   4.57048   4.74003
 Alpha virt. eigenvalues --    5.05935   5.05935   5.31126   5.79104   5.79104
 Alpha virt. eigenvalues --    6.20851   7.19165
  Beta  occ. eigenvalues --  -10.22108 -10.19909  -0.76090  -0.55181  -0.30843
  Beta  occ. eigenvalues --   -0.30843
  Beta virt. eigenvalues --   -0.19961   0.02736   0.02736   0.03779   0.10928
  Beta virt. eigenvalues --    0.15911   0.16601   0.16601   0.27252   0.27252
  Beta virt. eigenvalues --    0.31209   0.32151   0.50902   0.71556   0.77486
  Beta virt. eigenvalues --    0.77486   0.81915   0.81915   0.92758   1.16750
  Beta virt. eigenvalues --    1.16750   1.18636   1.18636   1.25728   1.27479
  Beta virt. eigenvalues --    1.27479   1.31589   1.35530   1.35530   1.62539
  Beta virt. eigenvalues --    1.84952   1.84952   1.88536   2.19140   2.57917
  Beta virt. eigenvalues --    2.98208   2.98208   3.17279   3.17279   3.28849
  Beta virt. eigenvalues --    3.41140   3.41140   3.56205   3.56205   3.68273
  Beta virt. eigenvalues --    3.77214   3.77214   3.82955   3.82955   3.95029
  Beta virt. eigenvalues --    3.95029   4.09194   4.09194   4.29292   4.29292
  Beta virt. eigenvalues --    4.39735   4.46961   4.46961   4.58240   4.58240
  Beta virt. eigenvalues --    4.76807   5.08065   5.08065   5.35051   5.79889
  Beta virt. eigenvalues --    5.79889   6.25516   7.21949
          Condensed to atoms (all electrons):
               1          2          3
     1  C    4.758217   0.935518   0.435785
     2  C    0.935518   5.068126  -0.035370
     3  H    0.435785  -0.035370   0.501791
          Atomic-Atomic Spin Densities.
               1          2          3
     1  C   -0.153176   0.002751  -0.006940
     2  C    0.002751   1.129296   0.001040
     3  H   -0.006940   0.001040   0.030178
 Mulliken charges and spin densities:
               1          2
     1  C   -0.129520  -0.157365
     2  C    0.031726   1.133087
     3  H    0.097794   0.024278
 Sum of Mulliken charges =  -0.00000   1.00000
 Mulliken charges and spin densities with hydrogens summed into heavy atoms:
               1          2
     1  C   -0.031726  -0.133087
     2  C    0.031726   1.133087
 APT charges:
               1
     1  C    0.070279
     2  C   -0.135192
     3  H    0.064914
 Sum of APT charges =   0.00000
 APT charges with hydrogens summed into heavy atoms:
               1
     1  C    0.135192
     2  C   -0.135192
 Electronic spatial extent (au):  <R**2>=             49.9177
 Charge=             -0.0000 electrons
 Dipole moment (field-independent basis, Debye):
    X=              0.0000    Y=              0.0000    Z=             -0.7720  Tot=              0.7720
 Quadrupole moment (field-independent basis, Debye-Ang):
   XX=            -12.9074   YY=            -12.9074   ZZ=             -8.3426
   XY=              0.0000   XZ=              0.0000   YZ=              0.0000
 Traceless Quadrupole moment (field-independent basis, Debye-Ang):
   XX=             -1.5216   YY=             -1.5216   ZZ=              3.0432
   XY=              0.0000   XZ=              0.0000   YZ=              0.0000
 Octapole moment (field-independent basis, Debye-Ang**2):
  XXX=              0.0000  YYY=              0.0000  ZZZ=             -4.6792  XYY=              0.0000
  XXY=              0.0000  XXZ=             -0.4667  XZZ=              0.0000  YZZ=              0.0000
  YYZ=             -0.4667  XYZ=              0.0000
 Hexadecapole moment (field-independent basis, Debye-Ang**3):
 XXXX=            -16.3884 YYYY=            -16.3884 ZZZZ=            -37.4011 XXXY=              0.0000
 XXXZ=              0.0000 YYYX=              0.0000 YYYZ=              0.0000 ZZZX=              0.0000
 ZZZY=              0.0000 XXYY=             -5.4628 XXZZ=            -10.4692 YYZZ=            -10.4692
 XXYZ=              0.0000 YYXZ=              0.0000 ZZXY=              0.0000
 N-N= 2.027517453359D+01 E-N=-2.185410295586D+02  KE= 7.636051685865D+01
 Symmetry A1   KE= 7.175286891512D+01
 Symmetry A2   KE=-6.986290939433D-52
 Symmetry B1   KE= 2.303823971766D+00
 Symmetry B2   KE= 2.303823971766D+00
 Symmetry A1   SP= 1.000000000000D+00
 Symmetry A2   SP=-1.839574297864D-52
 Symmetry B1   SP=-5.471697313991D-16
 Symmetry B2   SP= 2.848354961182D-15
  Exact polarizability:  19.598   0.000  19.598   0.000   0.000  27.046
 Approx polarizability:  17.359  -0.000  17.359  -0.000  -0.000  50.126
                          Isotropic Fermi Contact Couplings
        Atom                 a.u.       MegaHertz       Gauss      10(-4) cm-1
     1  C(13)              0.18351     206.30244      73.61384      68.81509
     2  C(13)              1.01691    1143.20101     407.92255     381.33081
     3  H(1)               0.01187      53.05415      18.93104      17.69696
 --------------------------------------------------------
       Center         ----  Spin Dipole Couplings  ----
                      3XX-RR        3YY-RR        3ZZ-RR
 --------------------------------------------------------
     1   Atom       -0.185450     -0.185450      0.370899
     2   Atom       -0.389453     -0.389453      0.778906
     3   Atom       -0.006398     -0.006398      0.012796
 --------------------------------------------------------
                        XY            XZ            YZ
 --------------------------------------------------------
     1   Atom        0.000000      0.000000      0.000000
     2   Atom        0.000000      0.000000      0.000000
     3   Atom        0.000000      0.000000      0.000000
 --------------------------------------------------------


 ---------------------------------------------------------------------------------
              Anisotropic Spin Dipole Couplings in Principal Axis System
 ---------------------------------------------------------------------------------

       Atom             a.u.   MegaHertz   Gauss  10(-4) cm-1        Axes

              Baa    -0.1854   -24.886    -8.880    -8.301 -0.0000  1.0000  0.0000
     1 C(13)  Bbb    -0.1854   -24.886    -8.880    -8.301  1.0000  0.0000  0.0000
              Bcc     0.3709    49.771    17.760    16.602  0.0000  0.0000  1.0000
 
              Baa    -0.3895   -52.261   -18.648   -17.432  1.0000  0.0000  0.0000
     2 C(13)  Bbb    -0.3895   -52.261   -18.648   -17.432 -0.0000  1.0000  0.0000
              Bcc     0.7789   104.522    37.296    34.865  0.0000  0.0000  1.0000
 
              Baa    -0.0064    -3.414    -1.218    -1.139 -0.0000  1.0000  0.0000
     3 H(1)   Bbb    -0.0064    -3.414    -1.218    -1.139  1.0000  0.0000  0.0000
              Bcc     0.0128     6.827     2.436     2.277  0.0000  0.0000  1.0000
 

 ---------------------------------------------------------------------------------

 Calling FoFJK, ICntrl=    100127 FMM=F ISym2X=1 I1Cent= 0 IOpClX= 1 NMat=1 NMatS=1 NMatT=0.
 Full mass-weighted force constant matrix:
 Low frequencies ---  -15.0502  -15.0502   -0.0007   -0.0006   -0.0006  351.5379
 Low frequencies ---  351.5379 2095.1431 3453.0318
 Diagonal vibrational polarizability:
        0.6873615       0.6873615       0.1570343
 Harmonic frequencies (cm**-1), IR intensities (KM/Mole), Raman scattering
 activities (A**4/AMU), depolarization ratios for plane and unpolarized
 incident light, reduced masses (AMU), force constants (mDyne/A),
 and normal coordinates:
                      1                      2                      3
                     PI                     PI                     SG
 Frequencies --    351.5340               351.5340              2095.1431
 Red. masses --      1.3348                 1.3348                 5.6693
 Frc consts  --      0.0972                 0.0972                14.6626
 IR Inten    --      3.1564                 3.1564                 4.6990
  Atom  AN      X      Y      Z        X      Y      Z        X      Y      Z
     1   6    -0.16  -0.00  -0.00    -0.00  -0.16  -0.00    -0.00  -0.00  -0.43
     2   6     0.07  -0.00  -0.00    -0.00   0.07  -0.00    -0.00  -0.00   0.49
     3   1     0.99  -0.00  -0.00    -0.00   0.99  -0.00    -0.00  -0.00  -0.76
                      4
                     SG
 Frequencies --   3453.0318
 Red. masses --      1.1593
 Frc consts  --      8.1445
 IR Inten    --     56.8126
  Atom  AN      X      Y      Z
     1   6    -0.00  -0.00  -0.11
     2   6    -0.00  -0.00   0.03
     3   1    -0.00  -0.00   0.99

 -------------------
 - Thermochemistry -
 -------------------
 Temperature   298.150 Kelvin.  Pressure   1.00000 Atm.
 Atom     1 has atomic number  6 and mass  12.00000
 Atom     2 has atomic number  6 and mass  12.00000
 Atom     3 has atomic number  1 and mass   1.00783
 Molecular mass:    25.00783 amu.
 Principal axes and moments of inertia in atomic units:
                           1         2         3
     Eigenvalues --     0.00000  40.36401  40.36401
           X            0.00000  -0.00000   1.00000
           Y            0.00000   1.00000   0.00000
           Z            1.00000   0.00000   0.00000
 This molecule is a prolate symmetric top.
 Rotational symmetry number  1.
 Rotational temperature (Kelvin)      2.14582
 Rotational constant (GHZ):          44.711638
 Zero-point vibrational energy      37390.7 (Joules/Mol)
                                    8.93660 (Kcal/Mol)
 Warning -- explicit consideration of   2 degrees of freedom as
           vibrations may cause significant error
 Vibrational temperatures:    505.78   505.78  3014.44  4968.14
          (Kelvin)
 
 Zero-point correction=                           0.014241 (Hartree/Particle)
 Thermal correction to Energy=                    0.017321
 Thermal correction to Enthalpy=                  0.018266
 Thermal correction to Gibbs Free Energy=        -0.006002
 Sum of electronic and zero-point Energies=            -76.625711
 Sum of electronic and thermal Energies=               -76.622631
 Sum of electronic and thermal Enthalpies=             -76.621687
 Sum of electronic and thermal Free Energies=          -76.645955
 
                     E (Thermal)             CV                S
                      KCal/Mol        Cal/Mol-Kelvin    Cal/Mol-Kelvin
 Total                   10.869              8.121             51.076
 Electronic               0.000              0.000              1.377
 Translational            0.889              2.981             35.587
 Rotational               0.592              1.987             11.792
 Vibrational              9.388              3.153              2.320
 Vibration     1          0.728              1.572              1.159
 Vibration     2          0.728              1.572              1.159
                       Q            Log10(Q)             Ln(Q)
 Total Bot       0.576507D+03          2.760805          6.356987
 Total V=0       0.204823D+10          9.311379         21.440241
 Vib (Bot)       0.422051D-06         -6.374635        -14.678139
 Vib (Bot)    1  0.524317D+00         -0.280406         -0.645658
 Vib (Bot)    2  0.524317D+00         -0.280406         -0.645658
 Vib (V=0)       0.149948D+01          0.175939          0.405115
 Vib (V=0)    1  0.122451D+01          0.087961          0.202537
 Vib (V=0)    2  0.122451D+01          0.087961          0.202537
 Electronic      0.200000D+01          0.301030          0.693147
 Translational   0.491550D+07          6.691568         15.407904
 Rotational      0.138945D+03          2.142841          4.934075
 ***** Axes restored to original set *****
 -------------------------------------------------------------------
 Center     Atomic                   Forces (Hartrees/Bohr)
 Number     Number              X              Y              Z
 -------------------------------------------------------------------
      1        6          -0.000000000   -0.000000000   -0.000291495
      2        6          -0.000000000   -0.000000000    0.000216159
      3        1          -0.000000000   -0.000000000    0.000075336
 -------------------------------------------------------------------
 Cartesian Forces:  Max     0.000291495 RMS     0.000123545
 FormGI is forming the generalized inverse of G from B-inverse, IUseBI=4.

 GradGradGradGradGradGradGradGradGradGradGradGradGradGradGradGradGradGrad
 Berny optimization.
 Internal  Forces:  Max     0.000216159 RMS     0.000114455
 Search for a local minimum.
 Step number   1 out of a maximum of    2
 All quantities printed in internal units (Hartrees-Bohrs-Radians)
 Second derivative matrix not updated -- analytic derivatives used.
 The second derivative matrix:
                          R1        R2        A1        A2
           R1           1.06893
           R2          -0.00852   0.40701
           A1           0.00000   0.00000   0.01382
           A2           0.00000   0.00000   0.00000   0.01382
 ITU=  0
     Eigenvalues ---    0.01382   0.01382   0.40690   1.06904
 Angle between quadratic step and forces=  22.80 degrees.
 Linear search not attempted -- first point.
 Iteration  1 RMS(Cart)=  0.00007822 RMS(Int)=  0.00000000
 Iteration  2 RMS(Cart)=  0.00000000 RMS(Int)=  0.00000000
 ClnCor:  largest displacement from symmetrization is 0.00D+00 for atom     0.
 Variable       Old X    -DE/DX   Delta X   Delta X   Delta X     New X
                                 (Linear)    (Quad)   (Total)
    R1        2.26611   0.00022   0.00000   0.00020   0.00020   2.26631
    R2        2.00963  -0.00008   0.00000  -0.00018  -0.00018   2.00945
    A1        3.14159  -0.00000   0.00000   0.00000   0.00000   3.14159
    A2        3.14159  -0.00000   0.00000   0.00000   0.00000   3.14159
         Item               Value     Threshold  Converged?
 Maximum Force            0.000216     0.000450     YES
 RMS     Force            0.000114     0.000300     YES
 Maximum Displacement     0.000127     0.001800     YES
 RMS     Displacement     0.000078     0.001200     YES
 Predicted change in Energy=-2.851388D-08
 Optimization completed.
    -- Stationary point found.
                           ----------------------------
                           !   Optimized Parameters   !
                           ! (Angstroms and Degrees)  !
 --------------------------                            --------------------------
 ! Name  Definition              Value          Derivative Info.                !
 --------------------------------------------------------------------------------
 ! R1    R(1,2)                  1.1992         -DE/DX =    0.0002              !
 ! R2    R(1,3)                  1.0635         -DE/DX =   -0.0001              !
 ! A1    L(2,1,3,-1,-1)        180.0            -DE/DX =    0.0                 !
 ! A2    L(2,1,3,-2,-2)        180.0            -DE/DX =    0.0                 !
 --------------------------------------------------------------------------------
 GradGradGradGradGradGradGradGradGradGradGradGradGradGradGradGradGradGrad


 ----------------------------------------------------------------------

 Electric dipole moment (input orientation):
 (Debye = 10**-18 statcoulomb cm , SI units = C m)
                  (au)            (Debye)         (10**-30 SI)
   Tot        0.303726D+00      0.771994D+00      0.257509D+01
   x          0.000000D+00      0.000000D+00      0.000000D+00
   y          0.000000D+00      0.000000D+00      0.000000D+00
   z         -0.303726D+00     -0.771994D+00     -0.257509D+01

 Dipole polarizability, Alpha (input orientation).
 (esu units = cm**3 , SI units = C**2 m**2 J**-1)
 Alpha(0;0):
               (au)            (10**-24 esu)      (10**-40 SI)
   iso        0.220807D+02      0.327203D+01      0.364062D+01
   aniso      0.744725D+01      0.110357D+01      0.122789D+01
   xx         0.195983D+02      0.290417D+01      0.323132D+01
   yx         0.000000D+00      0.000000D+00      0.000000D+00
   yy         0.195983D+02      0.290417D+01      0.323132D+01
   zx         0.000000D+00      0.000000D+00      0.000000D+00
   zy         0.000000D+00      0.000000D+00      0.000000D+00
   zz         0.270456D+02      0.400774D+01      0.445921D+01

 ----------------------------------------------------------------------

 Dipole orientation:
     6          0.00000000          0.00000000          0.89241093
     6          0.00000000          0.00000000         -1.37369474
     1          0.00000000          0.00000000          2.90204188

 Electric dipole moment (dipole orientation):
 (Debye = 10**-18 statcoulomb cm , SI units = C m)
                  (au)            (Debye)         (10**-30 SI)
   Tot        0.303726D+00      0.771994D+00      0.257509D+01
   x          0.000000D+00      0.000000D+00      0.000000D+00
   y          0.000000D+00      0.000000D+00      0.000000D+00
   z          0.303726D+00      0.771994D+00      0.257509D+01

 Dipole polarizability, Alpha (dipole orientation).
 (esu units = cm**3 , SI units = C**2 m**2 J**-1)
 Alpha(0;0):
               (au)            (10**-24 esu)      (10**-40 SI)
   iso        0.220807D+02      0.327203D+01      0.364062D+01
   aniso      0.744725D+01      0.110357D+01      0.122789D+01
   xx         0.195983D+02      0.290417D+01      0.323132D+01
   yx         0.000000D+00      0.000000D+00      0.000000D+00
   yy         0.195983D+02      0.290417D+01      0.323132D+01
   zx         0.000000D+00      0.000000D+00      0.000000D+00
   zy         0.000000D+00      0.000000D+00      0.000000D+00
   zz         0.270456D+02      0.400774D+01      0.445921D+01

 ----------------------------------------------------------------------
 1\1\GINC-GAMBA\Freq\UB3LYP\Gen\C2H1(2)\IRIKURA\15-Sep-2023\0\\#N Geom=
 AllCheck Guess=TCheck SCRF=Check GenChk UB3LYP/ChkBas Freq\\ethynyl, B
 3LYP/pcseg-2\\0,2\C,0.,0.,-0.472243526\C,0.,0.,0.7269279537\H,0.,0.,-1
 .5356944278\\Version=ES64L-G16RevB.01\State=2-SG\HF=-76.6399524\S2=0.7
 71733\S2-1=0.\S2A=0.750278\RMSD=3.822e-10\RMSF=1.235e-04\ZeroPoint=0.0
 142414\Thermal=0.0173214\Dipole=0.,0.,-0.3037257\DipoleDeriv=0.1832928
 ,0.,0.,0.,0.1832928,0.,0.,0.,-0.1557496,-0.1573156,0.,0.,0.,-0.1573156
 ,0.,0.,0.,-0.0909453,-0.0259772,0.,0.,0.,-0.0259772,0.,0.,0.,0.246695\
 Polar=19.5983032,0.,19.5983032,0.,0.,27.0455514\Quadrupole=-1.13128,-1
 .13128,2.26256,0.,0.,0.\PG=C*V [C*(H1C1C1)]\NImag=0\\0.01212540,0.,0.0
 1212540,0.,0.,1.49298058,-0.00562193,0.,0.,0.00258742,0.,-0.00562193,0
 .,0.,0.00258742,0.,0.,-1.07745048,0.,0.,1.06893113,-0.00650347,0.,0.,0
 .00303452,0.,0.,0.00346895,0.,-0.00650347,0.,0.,0.00303452,0.,0.,0.003
 46895,0.,0.,-0.41553010,0.,0.,0.00851935,0.,0.,0.40701075\\0.,0.,0.000
 29150,0.,0.,-0.00021616,0.,0.,-0.00007534\\\@


 THE GREAT THING ABOUT BEING IMPERFECT IS THE JOY IT BRINGS OTHERS.
   -- SIGN OUTSIDE LAKE AGASSIZ JR. HIGH SCHOOL, FARGO, N.D.
 Job cpu time:       0 days  0 hours  1 minutes 51.4 seconds.
 Elapsed time:       0 days  0 hours  0 minutes  9.3 seconds.
 File lengths (MBytes):  RWF=     10 Int=      0 D2E=      0 Chk=      2 Scr=      1
 Normal termination of Gaussian 16 at Fri Sep 15 22:53:08 2023.
