 Entering Gaussian System, Link 0=g16
 AtFile(1): pcseg2.gbs
            -H     0
            S   4   1.00
                  0.754732D+02           0.427821D-02
                  0.113575D+02           0.328672D-01
                  0.260081D+01           0.159578D+00
                  0.735503D+00           0.500000D+00
            S   1   1.00
                  0.231761D+00           1.0000000
            S   1   1.00
                  0.741675D-01           1.0000000
            P   1   1.00
                  0.160000D+01           1.0000000
            P   1   1.00
                  0.450000D+00           1.0000000
            D   1   1.00
                  0.125000D+01           1.0000000
            ****
            -C     0
            S   7   1.00
                  0.731999D+04           0.695369D-03
                  0.109818D+04           0.537138D-02
                  0.250014D+03           0.274734D-01
                  0.707586D+02           0.105078D+00
                  0.228595D+02           0.291262D+00
                  0.803936D+01           0.500000D+00
                  0.289309D+01           0.362224D+00
            S   2   1.00
                  0.521640D+01          -0.957844D-01
                  0.556124D+00           0.500000D+00
            S   1   1.00
                  0.228813D+00           1.0000000
            S   1   1.00
                  0.936338D-01           1.0000000
            P   4   1.00
                  0.339855D+02           0.818395D-02
                  0.772957D+01           0.586921D-01
                  0.224954D+01           0.222514D+00
                  0.767681D+00           0.500000D+00
            P   1   1.00
                  0.263283D+00           1.0000000
            P   1   1.00
                  0.848744D-01           1.0000000
            D   1   1.00
                  0.140000D+01           1.0000000
            D   1   1.00
                  0.450000D+00           1.0000000
            F   1   1.00
                  0.950000D+00           1.0000000
            ****
            -O     0
            S   7   1.00
                  0.135887D+05           0.665492D-03
                  0.203847D+04           0.514222D-02
                  0.464041D+03           0.263472D-01
                  0.131339D+03           0.101500D+00
                  0.425340D+02           0.285877D+00
                  0.150429D+02           0.500000D+00
                  0.546616D+01           0.368211D+00
            S   2   1.00
                  0.100915D+02          -0.100084D+00
                  0.110429D+01           0.500000D+00
            S   1   1.00
                  0.448082D+00           1.0000000
            S   1   1.00
                  0.175325D+00           1.0000000
            P   4   1.00
                  0.608220D+02           0.908253D-02
                  0.140332D+02           0.645878D-01
                  0.418244D+01           0.241502D+00
                  0.142490D+01           0.500000D+00
            P   1   1.00
                  0.478741D+00           1.0000000
            P   1   1.00
                  0.146257D+00           1.0000000
            D   1   1.00
                  0.220000D+01           1.0000000
            D   1   1.00
                  0.650000D+00           1.0000000
            F   1   1.00
                  0.110000D+01           1.0000000
            ****
            -N     0
            S   7   1.00
                  0.101643D+05           0.682757D-03
                  0.152481D+04           0.527488D-02
                  0.347119D+03           0.270037D-01
                  0.982389D+02           0.103673D+00
                  0.317799D+02           0.289575D+00
                  0.112240D+02           0.500000D+00
                  0.406611D+01           0.364621D+00
            S   2   1.00
                  0.747898D+01          -0.975681D-01
                  0.805040D+00           0.500000D+00
            S   1   1.00
                  0.324626D+00           1.0000000
            S   1   1.00
                  0.128132D+00           1.0000000
            P   4   1.00
                  0.482704D+02           0.829547D-02
                  0.110815D+02           0.596223D-01
                  0.326643D+01           0.227889D+00
                  0.111680D+01           0.500000D+00
            P   1   1.00
                  0.382049D+00           1.0000000
            P   1   1.00
                  0.121222D+00           1.0000000
            D   1   1.00
                  0.180000D+01           1.0000000
            D   1   1.00
                  0.550000D+00           1.0000000
            F   1   1.00
                  0.102000D+01           1.0000000
            ****
            -F     0
            S   7   1.00
                  0.174507D+05           0.655972D-03
                  0.261768D+04           0.506944D-02
                  0.595857D+03           0.259899D-01
                  0.168651D+03           0.100353D+00
                  0.546654D+02           0.284095D+00
                  0.193717D+02           0.500000D+00
                  0.706202D+01           0.370721D+00
            S   2   1.00
                  0.131197D+02          -0.101997D+00
                  0.145046D+01           0.500000D+00
            S   1   1.00
                  0.588255D+00           1.0000000
            S   1   1.00
                  0.227960D+00           1.0000000
            P   4   1.00
                  0.779407D+02           0.931135D-02
                  0.180425D+02           0.663964D-01
                  0.542342D+01           0.246386D+00
                  0.184876D+01           0.500000D+00
            P   1   1.00
                  0.617455D+00           1.0000000
            P   1   1.00
                  0.185496D+00           1.0000000
            D   1   1.00
                  0.280000D+01           1.0000000
            D   1   1.00
                  0.800000D+00           1.0000000
            F   1   1.00
                  0.120000D+01           1.0000000
            ****
            -Cl     0
            S   8   1.00
                  0.154272D+06           0.222473D-03
                  0.231232D+05           0.172590D-02
                  0.526257D+04           0.899286D-02
                  0.148995D+04           0.367724D-01
                  0.485417D+03           0.121446D+00
                  0.174634D+03           0.304148D+00
                  0.672393D+02           0.500000D+00
                  0.265780D+02           0.360252D+00
            S   3   1.00
                  0.131826D+03          -0.531330D-01
                  0.400703D+02          -0.233346D+00
                  0.789448D+01           0.500000D+00
            S   2   1.00
                  0.427711D+01           0.500000D+00
                  0.196233D+01           0.370517D+00
            S   1   1.00
                  0.520793D+00           1.0000000
            S   1   1.00
                  0.181633D+00           1.0000000
            P   7   1.00
                  0.124440D+04           0.988206D-03
                  0.295109D+03           0.829674D-02
                  0.947224D+02           0.430906D-01
                  0.352588D+02           0.148443D+00
                  0.144211D+02           0.344744D+00
                  0.610371D+01           0.500000D+00
                  0.258886D+01           0.348278D+00
            P   2   1.00
                  0.109447D+02          -0.196768D-01
                  0.104413D+01           0.500000D+00
            P   1   1.00
                  0.376184D+00           1.0000000
            P   1   1.00
                  0.120613D+00           1.0000000
            D   1   1.00
                  0.231000D+01           1.0000000
            D   1   1.00
                  0.520000D+00           1.0000000
            F   1   1.00
                  0.720000D+00           1.0000000
            ****
            -S     0
            S   8   1.00
                  0.134700D+06           0.226231D-03
                  0.201904D+05           0.175488D-02
                  0.459528D+04           0.914190D-02
                  0.130109D+04           0.373551D-01
                  0.423902D+03           0.123121D+00
                  0.152485D+03           0.306801D+00
                  0.586925D+02           0.500000D+00
                  0.231461D+02           0.354358D+00
            S   3   1.00
                  0.116327D+03          -0.491772D-01
                  0.352841D+02          -0.215962D+00
                  0.677831D+01           0.500000D+00
            S   2   1.00
                  0.360404D+01           0.500000D+00
                  0.164871D+01           0.366278D+00
            S   1   1.00
                  0.421821D+00           1.0000000
            S   1   1.00
                  0.147554D+00           1.0000000
            P   7   1.00
                  0.104863D+04           0.105273D-02
                  0.248717D+03           0.879338D-02
                  0.797887D+02           0.453358D-01
                  0.296023D+02           0.154476D+00
                  0.120627D+02           0.352366D+00
                  0.507628D+01           0.500000D+00
                  0.213375D+01           0.346429D+00
            P   2   1.00
                  0.928958D+01          -0.185932D-01
                  0.837819D+00           0.500000D+00
            P   1   1.00
                  0.301495D+00           1.0000000
            P   1   1.00
                  0.974740D-01           1.0000000
            D   1   1.00
                  0.210000D+01           1.0000000
            D   1   1.00
                  0.480000D+00           1.0000000
            F   1   1.00
                  0.660000D+00           1.0000000
            ****
            -Br     0
            S    10   1.00
                  0.233625D+07           0.532336D-04
                  0.349961D+06           0.413715D-03
                  0.796444D+05           0.217123D-02
                  0.225555D+05           0.910109D-02
                  0.735546D+04           0.323789D-01
                  0.265352D+04           0.988755D-01
                  0.103517D+04           0.248138D+00
                  0.422205D+03           0.474328D+00
                  0.180035D+03           0.500000D+00
                  0.793308D+02           0.187769D+00
            S    4   1.00
                  0.620834D+03          -0.226511D-01
                  0.190829D+03          -0.109497D+00
                  0.312505D+02           0.500000D+00
                  0.135270D+02           0.492812D+00
            S    2   1.00
                  0.216097D+02          -0.165418D+00
                  0.372566D+01           0.500000D+00
            S    1   1.00
                  0.169770D+01           1.0000000
            S    1   1.00
                  0.489332D+00           1.0000000
            S    1   1.00
                  0.175712D+00           1.0000000
            P    8   1.00
                  0.960829D+04           0.478974D-03
                  0.227618D+04           0.417853D-02
                  0.736723D+03           0.229315D-01
                  0.281579D+03           0.892653D-01
                  0.118395D+03           0.255288D+00
                  0.527481D+02           0.479074D+00
                  0.245098D+02           0.500000D+00
                  0.112009D+02           0.200944D+00
            P    4   1.00
                  0.587849D+02          -0.189674D-01
                  0.918962D+01           0.264104D+00
                  0.413895D+01           0.500000D+00
                  0.184225D+01           0.319316D+00
            P    1   1.00
                  0.713862D+00           1.0000000
            P    1   1.00
                  0.274232D+00           1.0000000
            P    1   1.00
                  0.944411D-01           1.0000000
            D    7   1.00
                  0.398470D+03           0.204066D-02
                  0.118967D+03           0.175171D-01
                  0.450197D+02           0.829708D-01
                  0.190320D+02           0.236284D+00
                  0.855686D+01           0.428468D+00
                  0.382950D+01           0.500000D+00
                  0.166291D+01           0.349360D+00
            D    1   1.00
                  0.672953D+00           1.0000000
            D    1   1.00
                  0.252000D+00           1.0000000
            F    1   1.00
                  0.530000D+00           1.0000000
            ****
            -Si     0
            S    8   1.00
                  0.996133D+05           0.235546D-03
                  0.149311D+05           0.182707D-02
                  0.339820D+04           0.951425D-02
                  0.962140D+03           0.388172D-01
                  0.313430D+03           0.127328D+00
                  0.112683D+03           0.313522D+00
                  0.433372D+02           0.500000D+00
                  0.170029D+02           0.340347D+00
            S    3   1.00
                  0.884208D+02          -0.404451D-01
                  0.266756D+02          -0.178059D+00
                  0.479640D+01           0.500000D+00
            S    2   1.00
                  0.239385D+01           0.500000D+00
                  0.108333D+01           0.338016D+00
            S    1   1.00
                  0.252420D+00           1.0000000
            S    1   1.00
                  0.891210D-01           1.0000000
            P    7   1.00
                  0.709901D+03           0.123028D-02
                  0.168426D+03           0.101366D-01
                  0.539946D+02           0.511840D-01
                  0.198646D+02           0.169967D+00
                  0.801369D+01           0.370717D+00
                  0.331870D+01           0.500000D+00
                  0.136112D+01           0.344128D+00
            P    2   1.00
                  0.622158D+01          -0.166609D-01
                  0.503049D+00           0.500000D+00
            P    1   1.00
                  0.179848D+00           1.0000000
            P    1   1.00
                  0.591912D-01           1.0000000
            D    1   1.00
                  0.168000D+01           1.0000000
            D    1   1.00
                  0.380000D+00           1.0000000
            F    1   1.00
                  0.540000D+00           1.0000000
            ****
            -P     0
            S    8   1.00
                  0.116416D+06           0.230715D-03
                  0.174500D+05           0.178960D-02
                  0.397149D+04           0.932116D-02
                  0.112447D+04           0.380591D-01
                  0.366347D+03           0.125148D+00
                  0.131757D+03           0.310022D+00
                  0.506988D+02           0.500000D+00
                  0.199436D+02           0.347528D+00
            S    3   1.00
                  0.101878D+03          -0.446755D-01
                  0.308249D+02          -0.196376D+00
                  0.573688D+01           0.500000D+00
            S    2   1.00
                  0.296868D+01           0.500000D+00
                  0.135315D+01           0.355098D+00
            S    1   1.00
                  0.332196D+00           1.0000000
            S    1   1.00
                  0.116229D+00           1.0000000
            P    7   1.00
                  0.873928D+03           0.112375D-02
                  0.207298D+03           0.933330D-02
                  0.664628D+02           0.477213D-01
                  0.245665D+02           0.160733D+00
                  0.996820D+01           0.359760D+00
                  0.416536D+01           0.500000D+00
                  0.173022D+01           0.346593D+00
            P    2   1.00
                  0.772530D+01          -0.175718D-01
                  0.657252D+00           0.500000D+00
            P    1   1.00
                  0.239903D+00           1.0000000
            P    1   1.00
                  0.800988D-01           1.0000000
            D    1   1.00
                  0.189000D+01           1.0000000
            D    1   1.00
                  0.430000D+00           1.0000000
            F    1   1.00
                  0.600000D+00           1.0000000
            ****
            
 Initial command:
 /usr/local/apps/g16_b01_avx/g16/l1.exe "/wrk/irikura/Gau-5261.inp" -scrdir="/wrk/irikura/"
 Entering Link 1 = /usr/local/apps/g16_b01_avx/g16/l1.exe PID=      5263.
  
 Copyright (c) 1988-2017, Gaussian, Inc.  All Rights Reserved.
  
 This is part of the Gaussian(R) 16 program.  It is based on
 the Gaussian(R) 09 system (copyright 2009, Gaussian, Inc.),
 the Gaussian(R) 03 system (copyright 2003, Gaussian, Inc.),
 the Gaussian(R) 98 system (copyright 1998, Gaussian, Inc.),
 the Gaussian(R) 94 system (copyright 1995, Gaussian, Inc.),
 the Gaussian 92(TM) system (copyright 1992, Gaussian, Inc.),
 the Gaussian 90(TM) system (copyright 1990, Gaussian, Inc.),
 the Gaussian 88(TM) system (copyright 1988, Gaussian, Inc.),
 the Gaussian 86(TM) system (copyright 1986, Carnegie Mellon
 University), and the Gaussian 82(TM) system (copyright 1983,
 Carnegie Mellon University). Gaussian is a federally registered
 trademark of Gaussian, Inc.
  
 This software contains proprietary and confidential information,
 including trade secrets, belonging to Gaussian, Inc.
  
 This software is provided under written license and may be
 used, copied, transmitted, or stored only in accord with that
 written license.
  
 The following legend is applicable only to US Government
 contracts under FAR:
  
                    RESTRICTED RIGHTS LEGEND
  
 Use, reproduction and disclosure by the US Government is
 subject to restrictions as set forth in subparagraphs (a)
 and (c) of the Commercial Computer Software - Restricted
 Rights clause in FAR 52.227-19.
  
 Gaussian, Inc.
 340 Quinnipiac St., Bldg. 40, Wallingford CT 06492
  
  
 ---------------------------------------------------------------
 Warning -- This program may not be used in any manner that
 competes with the business of Gaussian, Inc. or will provide
 assistance to any competitor of Gaussian, Inc.  The licensee
 of this program is prohibited from giving any competitor of
 Gaussian, Inc. access to this program.  By using this program,
 the user acknowledges that Gaussian, Inc. is engaged in the
 business of creating and licensing software in the field of
 computational chemistry and represents and warrants to the
 licensee that it is not a competitor of Gaussian, Inc. and that
 it will not use this program in any manner prohibited above.
 ---------------------------------------------------------------
  

 Cite this work as:
 Gaussian 16, Revision B.01,
 M. J. Frisch, G. W. Trucks, H. B. Schlegel, G. E. Scuseria, 
 M. A. Robb, J. R. Cheeseman, G. Scalmani, V. Barone, 
 G. A. Petersson, H. Nakatsuji, X. Li, M. Caricato, A. V. Marenich, 
 J. Bloino, B. G. Janesko, R. Gomperts, B. Mennucci, H. P. Hratchian, 
 J. V. Ortiz, A. F. Izmaylov, J. L. Sonnenberg, D. Williams-Young, 
 F. Ding, F. Lipparini, F. Egidi, J. Goings, B. Peng, A. Petrone, 
 T. Henderson, D. Ranasinghe, V. G. Zakrzewski, J. Gao, N. Rega, 
 G. Zheng, W. Liang, M. Hada, M. Ehara, K. Toyota, R. Fukuda, 
 J. Hasegawa, M. Ishida, T. Nakajima, Y. Honda, O. Kitao, H. Nakai, 
 T. Vreven, K. Throssell, J. A. Montgomery, Jr., J. E. Peralta, 
 F. Ogliaro, M. J. Bearpark, J. J. Heyd, E. N. Brothers, K. N. Kudin, 
 V. N. Staroverov, T. A. Keith, R. Kobayashi, J. Normand, 
 K. Raghavachari, A. P. Rendell, J. C. Burant, S. S. Iyengar, 
 J. Tomasi, M. Cossi, J. M. Millam, M. Klene, C. Adamo, R. Cammi, 
 J. W. Ochterski, R. L. Martin, K. Morokuma, O. Farkas, 
 J. B. Foresman, and D. J. Fox, Gaussian, Inc., Wallingford CT, 2016.
 
 ******************************************
 Gaussian 16:  ES64L-G16RevB.01 20-Dec-2017
                16-Jun-2022 
 ******************************************
 %mem=1000mw
 %nprocs=12
 Will use up to   12 processors via shared memory.
 --------------------
 # b3lyp/gen opt freq
 --------------------
 1/18=20,19=15,26=3,38=1/1,3;
 2/9=110,12=2,17=6,18=5,40=1/2;
 3/5=7,11=2,25=1,30=1,71=1,74=-5/1,2,3;
 4//1;
 5/5=2,38=5/2;
 6/7=2,8=2,9=2,10=2,28=1/1;
 7//1,2,3,16;
 1/18=20,19=15,26=3/3(2);
 2/9=110/2;
 99//99;
 2/9=110/2;
 3/5=7,6=1,11=2,25=1,30=1,71=1,74=-5,82=7/1,2,3;
 4/5=5,16=3,69=1/1;
 5/5=2,38=5/2;
 7//1,2,3,16;
 1/18=20,19=15,26=3/3(-5);
 2/9=110/2;
 6/7=2,8=2,9=2,10=2,19=2,28=1/1;
 99/9=1/99;
 -------------------------------
 chlormethylidyne, B3LYP/pcseg-2
 -------------------------------
 Symbolic Z-matrix:
 Charge =  0 Multiplicity = 2
 C                     0.        0.       -1.23745 
 Cl                    0.        0.        0.43675 
 

 GradGradGradGradGradGradGradGradGradGradGradGradGradGradGradGradGradGrad
 Berny optimization.
 Initialization pass.
                           ----------------------------
                           !    Initial Parameters    !
                           ! (Angstroms and Degrees)  !
 --------------------------                            --------------------------
 ! Name  Definition              Value          Derivative Info.                !
 --------------------------------------------------------------------------------
 ! R1    R(1,2)                  1.6742         estimate D2E/DX2                !
 --------------------------------------------------------------------------------
 Trust Radius=3.00D-01 FncErr=1.00D-07 GrdErr=1.00D-06 EigMax=2.50D+02 EigMin=1.00D-04
 Number of steps in this run=     20 maximum allowed number of steps=    100.
 GradGradGradGradGradGradGradGradGradGradGradGradGradGradGradGradGradGrad

                          Input orientation:                          
 ---------------------------------------------------------------------
 Center     Atomic      Atomic             Coordinates (Angstroms)
 Number     Number       Type             X           Y           Z
 ---------------------------------------------------------------------
      1          6           0        0.000000    0.000000   -1.237451
      2         17           0        0.000000    0.000000    0.436747
 ---------------------------------------------------------------------
 Stoichiometry    CCl(2)
 Framework group  C*V[C*(CCl)]
 Deg. of freedom     1
 Full point group                 C*V     NOp   4
 Largest Abelian subgroup         C2V     NOp   4
 Largest concise Abelian subgroup C1      NOp   1
                         Standard orientation:                         
 ---------------------------------------------------------------------
 Center     Atomic      Atomic             Coordinates (Angstroms)
 Number     Number       Type             X           Y           Z
 ---------------------------------------------------------------------
      1          6           0        0.000000    0.000000   -1.237451
      2         17           0        0.000000    0.000000    0.436747
 ---------------------------------------------------------------------
 Rotational constants (GHZ):           0.0000000          20.1813811          20.1813811
 General basis read from cards:  (5D, 7F)
 There are    34 symmetry adapted cartesian basis functions of A1  symmetry.
 There are     6 symmetry adapted cartesian basis functions of A2  symmetry.
 There are    17 symmetry adapted cartesian basis functions of B1  symmetry.
 There are    17 symmetry adapted cartesian basis functions of B2  symmetry.
 There are    28 symmetry adapted basis functions of A1  symmetry.
 There are     6 symmetry adapted basis functions of A2  symmetry.
 There are    15 symmetry adapted basis functions of B1  symmetry.
 There are    15 symmetry adapted basis functions of B2  symmetry.
    64 basis functions,   121 primitive gaussians,    74 cartesian basis functions
    12 alpha electrons       11 beta electrons
       nuclear repulsion energy        32.2399593799 Hartrees.
 NAtoms=    2 NActive=    2 NUniq=    2 SFac= 1.00D+00 NAtFMM=   60 NAOKFM=F Big=F
 Integral buffers will be    131072 words long.
 Raffenetti 2 integral format.
 Two-electron integral symmetry is turned on.
 One-electron integrals computed using PRISM.
 NBasis=    64 RedAO= T EigKep=  7.91D-03  NBF=    28     6    15    15
 NBsUse=    64 1.00D-06 EigRej= -1.00D+00 NBFU=    28     6    15    15
 ExpMin= 8.49D-02 ExpMax= 1.54D+05 ExpMxC= 1.49D+03 IAcc=3 IRadAn=         5 AccDes= 0.00D+00
 Harris functional with IExCor=  402 and IRadAn=       5 diagonalized for initial guess.
 HarFok:  IExCor=  402 AccDes= 0.00D+00 IRadAn=         5 IDoV= 1 UseB2=F ITyADJ=14
 ICtDFT=  3500011 ScaDFX=  1.000000  1.000000  1.000000  1.000000
 FoFCou: FMM=F IPFlag=           0 FMFlag=      100000 FMFlg1=           0
         NFxFlg=           0 DoJE=T BraDBF=F KetDBF=T FulRan=T
         wScrn=  0.000000 ICntrl=       500 IOpCl=  0 I1Cent=   200000004 NGrid=           0
         NMat0=    1 NMatS0=      1 NMatT0=    0 NMatD0=    1 NMtDS0=    0 NMtDT0=    0
 Petite list used in FoFCou.
 Initial guess orbital symmetries:
 Alpha Orbitals:
       Occupied  (SG) (SG) (SG) (SG) (PI) (PI) (SG) (SG) (PI) (PI)
                 (SG) (PI)
       Virtual   (PI) (SG) (SG) (SG) (PI) (PI) (SG) (PI) (PI) (PI)
                 (PI) (DLTA) (DLTA) (SG) (SG) (DLTA) (DLTA) (PI)
                 (PI) (SG) (PI) (PI) (SG) (SG) (DLTA) (DLTA) (PHI)
                 (PHI) (PI) (PI) (PI) (PI) (SG) (SG) (DLTA) (DLTA)
                 (PHI) (PHI) (PI) (PI) (DLTA) (DLTA) (SG) (PI)
                 (PI) (DLTA) (DLTA) (PI) (PI) (SG) (SG) (SG)
 Beta  Orbitals:
       Occupied  (SG) (SG) (SG) (SG) (PI) (PI) (SG) (SG) (PI) (PI)
                 (SG)
       Virtual   (PI) (PI) (SG) (SG) (SG) (PI) (PI) (SG) (PI) (PI)
                 (PI) (PI) (DLTA) (DLTA) (SG) (SG) (DLTA) (DLTA)
                 (PI) (PI) (SG) (PI) (PI) (SG) (SG) (DLTA) (DLTA)
                 (PHI) (PHI) (PI) (PI) (PI) (PI) (SG) (SG) (DLTA)
                 (DLTA) (PHI) (PHI) (PI) (PI) (DLTA) (DLTA) (SG)
                 (PI) (PI) (DLTA) (DLTA) (PI) (PI) (SG) (SG) (SG)
 Initial guess <Sx>= 0.0000 <Sy>= 0.0000 <Sz>= 0.5000 <S**2>= 0.7500 S= 0.5000
 Keep R1 and R2 ints in memory in symmetry-blocked form, NReq=12941568.
 Requested convergence on RMS density matrix=1.00D-08 within 128 cycles.
 Requested convergence on MAX density matrix=1.00D-06.
 Requested convergence on             energy=1.00D-06.
 No special actions if energy rises.
 Integral accuracy reduced to 1.0D-05 until final iterations.
 Initial convergence to 1.0D-05 achieved.  Increase integral accuracy.
 SCF Done:  E(UB3LYP) =  -498.189650231     A.U. after   13 cycles
            NFock= 13  Conv=0.91D-08     -V/T= 2.0011
 <Sx>= 0.0000 <Sy>= 0.0000 <Sz>= 0.5000 <S**2>= 0.7543 S= 0.5021
 <L.S>=  0.00000000000    
 Annihilation of the first spin contaminant:
 S**2 before annihilation     0.7543,   after     0.7500

 **********************************************************************

            Population analysis using the SCF Density.

 **********************************************************************

 Orbital symmetries:
 Alpha Orbitals:
       Occupied  (SG) (SG) (SG) (SG) (PI) (PI) (SG) (SG) (?A) (?A)
                 (SG) (?A)
       Virtual   (?A) (SG) (SG) (?A) (?A) (SG) (SG) (PI) (PI) (PI)
                 (DLTA) (DLTA) (PI) (SG) (?B) (?B) (?B) (?C) (?C)
                 (SG) (?C) (?C) (SG) (SG) (DLTA) (DLTA) (PHI) (PHI)
                 (PI) (PI) (PI) (PI) (SG) (SG) (?D) (?D) (DLTA)
                 (DLTA) (?D) (?D) (?E) (?E) (?E) (PI) (PI) (DLTA)
                 (DLTA) (PI) (PI) (SG) (SG) (SG)
 Beta  Orbitals:
       Occupied  (SG) (SG) (SG) (SG) (PI) (PI) (SG) (SG) (PI) (PI)
                 (SG)
       Virtual   (PI) (PI) (SG) (SG) (PI) (SG) (PI) (SG) (PI) (PI)
                 (PI) (DLTA) (DLTA) (PI) (SG) (?A) (?A) (?A) (PI)
                 (?A) (PI) (PI) (PI) (SG) (?B) (?B) (?B) (?C) (?C)
                 (?C) (?C) (PI) (PI) (SG) (SG) (?D) (?D) (?C) (?C)
                 (?C) (?C) (?D) (?D) (?D) (PI) (PI) (?E) (?E) (PI)
                 (PI) (?E) (SG) (SG)
 Unable to determine electronic state:  an orbital has unidentified symmetry.
 Alpha  occ. eigenvalues -- -101.57721 -10.30110  -9.52188  -7.28037  -7.27740
 Alpha  occ. eigenvalues --   -7.27557  -0.92603  -0.61208  -0.41840  -0.40898
 Alpha  occ. eigenvalues --   -0.36513  -0.22962
 Alpha virt. eigenvalues --   -0.13361   0.03146   0.11077   0.17290   0.17922
 Alpha virt. eigenvalues --    0.18321   0.29092   0.31839   0.31897   0.49118
 Alpha virt. eigenvalues --    0.49442   0.49473   0.49474   0.67919   0.91807
 Alpha virt. eigenvalues --    0.91993   0.92655   1.12323   1.13305   1.15499
 Alpha virt. eigenvalues --    1.24480   1.26265   1.40757   1.84387   2.05154
 Alpha virt. eigenvalues --    2.05199   2.05592   2.05593   2.12802   2.13175
 Alpha virt. eigenvalues --    2.23649   2.23826   2.27214   2.46646   3.28832
 Alpha virt. eigenvalues --    3.29006   3.29877   3.30149   3.35860   3.35863
 Alpha virt. eigenvalues --    3.51215   3.51402   3.60418   3.84758   3.86166
 Alpha virt. eigenvalues --    3.92112   3.93052   4.36480   4.37013   4.39347
 Alpha virt. eigenvalues --    4.71524  32.92844
  Beta  occ. eigenvalues -- -101.57642 -10.28602  -9.52109  -7.28014  -7.27730
  Beta  occ. eigenvalues --   -7.27241  -0.91662  -0.58235  -0.40712  -0.39129
  Beta  occ. eigenvalues --   -0.34180
  Beta virt. eigenvalues --   -0.11879  -0.07930   0.04285   0.11374   0.18265
  Beta virt. eigenvalues --    0.18878   0.19758   0.29610   0.31896   0.32756
  Beta virt. eigenvalues --    0.49585   0.50137   0.50141   0.51273   0.68659
  Beta virt. eigenvalues --    0.92571   0.96728   0.96827   1.13835   1.16608
  Beta virt. eigenvalues --    1.16741   1.27278   1.30781   1.42980   1.85469
  Beta virt. eigenvalues --    2.05780   2.05796   2.06163   2.06165   2.12802
  Beta virt. eigenvalues --    2.13927   2.23780   2.25323   2.28579   2.46916
  Beta virt. eigenvalues --    3.32313   3.32383   3.34507   3.34708   3.36414
  Beta virt. eigenvalues --    3.38085   3.53046   3.53192   3.62588   3.86759
  Beta virt. eigenvalues --    3.90162   3.99297   3.99329   4.37359   4.40437
  Beta virt. eigenvalues --    4.40671   4.73051  32.93002
          Condensed to atoms (all electrons):
               1          2
     1  C    5.952376   0.116082
     2  Cl   0.116082  16.815460
          Atomic-Atomic Spin Densities.
               1          2
     1  C    1.042401  -0.123652
     2  Cl  -0.123652   0.204903
 Mulliken charges and spin densities:
               1          2
     1  C   -0.068458   0.918749
     2  Cl   0.068458   0.081251
 Sum of Mulliken charges =  -0.00000   1.00000
 Mulliken charges and spin densities with hydrogens summed into heavy atoms:
               1          2
     1  C   -0.068458   0.918749
     2  Cl   0.068458   0.081251
 Electronic spatial extent (au):  <R**2>=             86.8900
 Charge=              0.0000 electrons
 Dipole moment (field-independent basis, Debye):
    X=              0.0000    Y=              0.0000    Z=              1.4237  Tot=              1.4237
 Quadrupole moment (field-independent basis, Debye-Ang):
   XX=            -19.2089   YY=            -17.3818   ZZ=            -20.5735
   XY=              0.0000   XZ=              0.0000   YZ=              0.0000
 Traceless Quadrupole moment (field-independent basis, Debye-Ang):
   XX=             -0.1542   YY=              1.6729   ZZ=             -1.5188
   XY=              0.0000   XZ=              0.0000   YZ=              0.0000
 Octapole moment (field-independent basis, Debye-Ang**2):
  XXX=              0.0000  YYY=              0.0000  ZZZ=             14.7747  XYY=              0.0000
  XXY=              0.0000  XXZ=              3.4656  XZZ=              0.0000  YZZ=              0.0000
  YYZ=              1.7484  XYZ=              0.0000
 Hexadecapole moment (field-independent basis, Debye-Ang**3):
 XXXX=            -23.1503 YYYY=            -19.3091 ZZZZ=           -104.9811 XXXY=              0.0000
 XXXZ=              0.0000 YYYX=              0.0000 YYYZ=              0.0000 ZZZX=              0.0000
 ZZZY=              0.0000 XXYY=             -7.0762 XXZZ=            -21.7651 YYZZ=            -18.0478
 XXYZ=              0.0000 YYXZ=              0.0000 ZZXY=              0.0000
 N-N= 3.223995937986D+01 E-N=-1.247226838678D+03  KE= 4.976584878074D+02
 Symmetry A1   KE= 4.045709108113D+02
 Symmetry A2   KE= 3.718114455384D-35
 Symmetry B1   KE= 4.740785198722D+01
 Symmetry B2   KE= 4.567972500890D+01
 Symmetry A1   SP= 1.118795336865D-14
 Symmetry A2   SP=-1.031543279478D-35
 Symmetry B1   SP= 1.000000000000D+00
 Symmetry B2   SP= 9.015398562233D-15
                          Isotropic Fermi Contact Couplings
        Atom                 a.u.       MegaHertz       Gauss      10(-4) cm-1
     1  C(13)              0.11070     124.45013      44.40690      41.51209
     2  Cl(35)             0.01606       7.04138       2.51254       2.34875
 --------------------------------------------------------
       Center         ----  Spin Dipole Couplings  ----
                      3XX-RR        3YY-RR        3ZZ-RR
 --------------------------------------------------------
     1   Atom        1.357937     -0.670587     -0.687350
     2   Atom        0.981612     -0.540156     -0.441455
 --------------------------------------------------------
                        XY            XZ            YZ
 --------------------------------------------------------
     1   Atom        0.000000      0.000000      0.000000
     2   Atom        0.000000      0.000000      0.000000
 --------------------------------------------------------


 ---------------------------------------------------------------------------------
              Anisotropic Spin Dipole Couplings in Principal Axis System
 ---------------------------------------------------------------------------------

       Atom             a.u.   MegaHertz   Gauss  10(-4) cm-1        Axes

              Baa    -0.6873   -92.236   -32.912   -30.767  0.0000  0.0000  1.0000
     1 C(13)  Bbb    -0.6706   -89.986   -32.109   -30.016 -0.0000  1.0000  0.0000
              Bcc     1.3579   182.222    65.021    60.783  1.0000  0.0000  0.0000
 
              Baa    -0.5402   -28.271   -10.088    -9.430 -0.0000  1.0000  0.0000
     2 Cl(35) Bbb    -0.4415   -23.105    -8.244    -7.707  0.0000  0.0000  1.0000
              Bcc     0.9816    51.375    18.332    17.137  1.0000  0.0000  0.0000
 

 ---------------------------------------------------------------------------------

 Calling FoFJK, ICntrl=      2127 FMM=F ISym2X=1 I1Cent= 0 IOpClX= 1 NMat=1 NMatS=1 NMatT=0.
 ***** Axes restored to original set *****
 -------------------------------------------------------------------
 Center     Atomic                   Forces (Hartrees/Bohr)
 Number     Number              X              Y              Z
 -------------------------------------------------------------------
      1        6          -0.000000000   -0.000000000    0.005417298
      2       17          -0.000000000   -0.000000000   -0.005417298
 -------------------------------------------------------------------
 Cartesian Forces:  Max     0.005417298 RMS     0.003127679

 GradGradGradGradGradGradGradGradGradGradGradGradGradGradGradGradGradGrad
 Berny optimization.
 FormGI is forming the generalized inverse of G from B-inverse, IUseBI=4.
 Internal  Forces:  Max     0.005417298 RMS     0.005417298
 Search for a local minimum.
 Step number   1 out of a maximum of   20
 All quantities printed in internal units (Hartrees-Bohrs-Radians)
 Mixed Optimization -- RFO/linear search
 Second derivative matrix not updated -- first step.
 The second derivative matrix:
                          R1
           R1           0.39184
 ITU=  0
     Eigenvalues ---    0.39184
 RFO step:  Lambda=-7.48815576D-05 EMin= 3.91838968D-01
 Linear search not attempted -- first point.
 Iteration  1 RMS(Cart)=  0.00977411 RMS(Int)=  0.00000000
 Iteration  2 RMS(Cart)=  0.00000000 RMS(Int)=  0.00000000
 ClnCor:  largest displacement from symmetrization is 0.00D+00 for atom     0.
 Variable       Old X    -DE/DX   Delta X   Delta X   Delta X     New X
                                 (Linear)    (Quad)   (Total)
    R1        3.16378  -0.00542   0.00000  -0.01382  -0.01382   3.14995
         Item               Value     Threshold  Converged?
 Maximum Force            0.005417     0.000450     NO 
 RMS     Force            0.005417     0.000300     NO 
 Maximum Displacement     0.006911     0.001800     NO 
 RMS     Displacement     0.009774     0.001200     NO 
 Predicted change in Energy=-3.744793D-05
 GradGradGradGradGradGradGradGradGradGradGradGradGradGradGradGradGradGrad

                          Input orientation:                          
 ---------------------------------------------------------------------
 Center     Atomic      Atomic             Coordinates (Angstroms)
 Number     Number       Type             X           Y           Z
 ---------------------------------------------------------------------
      1          6           0        0.000000    0.000000   -1.233794
      2         17           0        0.000000    0.000000    0.433090
 ---------------------------------------------------------------------
 Stoichiometry    CCl(2)
 Framework group  C*V[C*(CCl)]
 Deg. of freedom     1
 Full point group                 C*V     NOp   4
 Largest Abelian subgroup         C2V     NOp   4
 Largest concise Abelian subgroup C1      NOp   1
                         Standard orientation:                         
 ---------------------------------------------------------------------
 Center     Atomic      Atomic             Coordinates (Angstroms)
 Number     Number       Type             X           Y           Z
 ---------------------------------------------------------------------
      1          6           0        0.000000    0.000000   -1.232044
      2         17           0        0.000000    0.000000    0.434839
 ---------------------------------------------------------------------
 Rotational constants (GHZ):           0.0000000          20.3588903          20.3588903
 Basis read from rwf:  (5D, 7F)
 There are    34 symmetry adapted cartesian basis functions of A1  symmetry.
 There are     6 symmetry adapted cartesian basis functions of A2  symmetry.
 There are    17 symmetry adapted cartesian basis functions of B1  symmetry.
 There are    17 symmetry adapted cartesian basis functions of B2  symmetry.
 There are    28 symmetry adapted basis functions of A1  symmetry.
 There are     6 symmetry adapted basis functions of A2  symmetry.
 There are    15 symmetry adapted basis functions of B1  symmetry.
 There are    15 symmetry adapted basis functions of B2  symmetry.
    64 basis functions,   121 primitive gaussians,    74 cartesian basis functions
    12 alpha electrons       11 beta electrons
       nuclear repulsion energy        32.3814353035 Hartrees.
 NAtoms=    2 NActive=    2 NUniq=    2 SFac= 1.00D+00 NAtFMM=   60 NAOKFM=F Big=F
 Integral buffers will be    131072 words long.
 Raffenetti 2 integral format.
 Two-electron integral symmetry is turned on.
 One-electron integrals computed using PRISM.
 NBasis=    64 RedAO= T EigKep=  7.68D-03  NBF=    28     6    15    15
 NBsUse=    64 1.00D-06 EigRej= -1.00D+00 NBFU=    28     6    15    15
 Initial guess from the checkpoint file:  "/wrk/irikura/Gau-5263.chk"
 B after Tr=     0.000000    0.000000   -0.000000
         Rot=    1.000000    0.000000    0.000000    0.000000 Ang=   0.00 deg.
 Initial guess orbital symmetries:
 Alpha Orbitals:
       Occupied  (SG) (SG) (SG) (SG) (PI) (PI) (SG) (SG) (?A) (?A)
                 (SG) (?A)
       Virtual   (?A) (SG) (SG) (?A) (?A) (SG) (SG) (PI) (PI) (PI)
                 (DLTA) (DLTA) (PI) (SG) (?B) (?B) (?B) (?C) (?C)
                 (SG) (?C) (?C) (SG) (SG) (DLTA) (DLTA) (PHI) (PHI)
                 (PI) (PI) (PI) (PI) (SG) (SG) (?D) (?D) (DLTA)
                 (DLTA) (?D) (?D) (?E) (?E) (?E) (PI) (PI) (DLTA)
                 (DLTA) (PI) (PI) (SG) (SG) (SG)
 Beta  Orbitals:
       Occupied  (SG) (SG) (SG) (SG) (PI) (PI) (SG) (SG) (PI) (PI)
                 (SG)
       Virtual   (PI) (PI) (SG) (SG) (PI) (SG) (PI) (SG) (PI) (PI)
                 (PI) (DLTA) (DLTA) (PI) (SG) (?A) (?A) (?A) (PI)
                 (?A) (PI) (PI) (PI) (SG) (?B) (?B) (?B) (?C) (?C)
                 (?C) (?C) (PI) (PI) (SG) (SG) (?D) (?D) (?C) (?C)
                 (?C) (?C) (?D) (?D) (?D) (PI) (PI) (?E) (?E) (PI)
                 (PI) (?E) (SG) (SG)
 Initial guess <Sx>= 0.0000 <Sy>= 0.0000 <Sz>= 0.5000 <S**2>= 0.7543 S= 0.5021
 Keep R1 and R2 ints in memory in symmetry-blocked form, NReq=12941568.
 Requested convergence on RMS density matrix=1.00D-08 within 128 cycles.
 Requested convergence on MAX density matrix=1.00D-06.
 Requested convergence on             energy=1.00D-06.
 No special actions if energy rises.
 SCF Done:  E(UB3LYP) =  -498.189702988     A.U. after    9 cycles
            NFock=  9  Conv=0.62D-08     -V/T= 2.0010
 <Sx>= 0.0000 <Sy>= 0.0000 <Sz>= 0.5000 <S**2>= 0.7543 S= 0.5021
 <L.S>=  0.00000000000    
 Annihilation of the first spin contaminant:
 S**2 before annihilation     0.7543,   after     0.7500
 Calling FoFJK, ICntrl=      2127 FMM=F ISym2X=1 I1Cent= 0 IOpClX= 1 NMat=1 NMatS=1 NMatT=0.
 ***** Axes restored to original set *****
 -------------------------------------------------------------------
 Center     Atomic                   Forces (Hartrees/Bohr)
 Number     Number              X              Y              Z
 -------------------------------------------------------------------
      1        6          -0.000000000   -0.000000000    0.002194342
      2       17          -0.000000000   -0.000000000   -0.002194342
 -------------------------------------------------------------------
 Cartesian Forces:  Max     0.002194342 RMS     0.001266904

 GradGradGradGradGradGradGradGradGradGradGradGradGradGradGradGradGradGrad
 Berny optimization.
 Using GEDIIS/GDIIS optimizer.
 Internal  Forces:  Max     0.002194342 RMS     0.002194342
 Search for a local minimum.
 Step number   2 out of a maximum of   20
 All quantities printed in internal units (Hartrees-Bohrs-Radians)
 Mixed Optimization -- RFO/linear search
 Update second derivatives using D2CorX and points    1    2
 DE= -5.28D-05 DEPred=-3.74D-05 R= 1.41D+00
 TightC=F SS=  1.41D+00  RLast= 1.38D-02 DXNew= 5.0454D-01 4.1468D-02
 Trust test= 1.41D+00 RLast= 1.38D-02 DXMaxT set to 3.00D-01
 The second derivative matrix:
                          R1
           R1           0.23316
 ITU=  1  0
 Use linear search instead of GDIIS.
     Eigenvalues ---    0.23316
 RFO step:  Lambda= 0.00000000D+00 EMin= 2.33164428D-01
 Quartic linear search produced a step of  0.65858.
 Iteration  1 RMS(Cart)=  0.00643702 RMS(Int)=  0.00000000
 Iteration  2 RMS(Cart)=  0.00000000 RMS(Int)=  0.00000000
 ClnCor:  largest displacement from symmetrization is 0.00D+00 for atom     0.
 Variable       Old X    -DE/DX   Delta X   Delta X   Delta X     New X
                                 (Linear)    (Quad)   (Total)
    R1        3.14995  -0.00219  -0.00910   0.00000  -0.00910   3.14085
         Item               Value     Threshold  Converged?
 Maximum Force            0.002194     0.000450     NO 
 RMS     Force            0.002194     0.000300     NO 
 Maximum Displacement     0.004552     0.001800     NO 
 RMS     Displacement     0.006437     0.001200     NO 
 Predicted change in Energy=-1.031458D-05
 GradGradGradGradGradGradGradGradGradGradGradGradGradGradGradGradGradGrad

                          Input orientation:                          
 ---------------------------------------------------------------------
 Center     Atomic      Atomic             Coordinates (Angstroms)
 Number     Number       Type             X           Y           Z
 ---------------------------------------------------------------------
      1          6           0        0.000000    0.000000   -1.231385
      2         17           0        0.000000    0.000000    0.430681
 ---------------------------------------------------------------------
 Stoichiometry    CCl(2)
 Framework group  C*V[C*(CCl)]
 Deg. of freedom     1
 Full point group                 C*V     NOp   4
 Largest Abelian subgroup         C2V     NOp   4
 Largest concise Abelian subgroup C1      NOp   1
                         Standard orientation:                         
 ---------------------------------------------------------------------
 Center     Atomic      Atomic             Coordinates (Angstroms)
 Number     Number       Type             X           Y           Z
 ---------------------------------------------------------------------
      1          6           0        0.000000    0.000000   -1.228484
      2         17           0        0.000000    0.000000    0.433582
 ---------------------------------------------------------------------
 Rotational constants (GHZ):           0.0000000          20.4770762          20.4770762
 Basis read from rwf:  (5D, 7F)
 There are    34 symmetry adapted cartesian basis functions of A1  symmetry.
 There are     6 symmetry adapted cartesian basis functions of A2  symmetry.
 There are    17 symmetry adapted cartesian basis functions of B1  symmetry.
 There are    17 symmetry adapted cartesian basis functions of B2  symmetry.
 There are    28 symmetry adapted basis functions of A1  symmetry.
 There are     6 symmetry adapted basis functions of A2  symmetry.
 There are    15 symmetry adapted basis functions of B1  symmetry.
 There are    15 symmetry adapted basis functions of B2  symmetry.
    64 basis functions,   121 primitive gaussians,    74 cartesian basis functions
    12 alpha electrons       11 beta electrons
       nuclear repulsion energy        32.4752884710 Hartrees.
 NAtoms=    2 NActive=    2 NUniq=    2 SFac= 1.00D+00 NAtFMM=   60 NAOKFM=F Big=F
 Integral buffers will be    131072 words long.
 Raffenetti 2 integral format.
 Two-electron integral symmetry is turned on.
 One-electron integrals computed using PRISM.
 NBasis=    64 RedAO= T EigKep=  7.54D-03  NBF=    28     6    15    15
 NBsUse=    64 1.00D-06 EigRej= -1.00D+00 NBFU=    28     6    15    15
 Initial guess from the checkpoint file:  "/wrk/irikura/Gau-5263.chk"
 B after Tr=     0.000000    0.000000    0.000000
         Rot=    1.000000    0.000000    0.000000    0.000000 Ang=   0.00 deg.
 Initial guess orbital symmetries:
 Alpha Orbitals:
       Occupied  (SG) (SG) (SG) (SG) (PI) (PI) (SG) (SG) (?A) (?A)
                 (SG) (?A)
       Virtual   (?A) (SG) (SG) (?A) (?A) (SG) (SG) (PI) (PI) (PI)
                 (DLTA) (DLTA) (PI) (SG) (?B) (?B) (?B) (?C) (?C)
                 (SG) (?C) (?C) (SG) (SG) (DLTA) (DLTA) (PHI) (PHI)
                 (PI) (PI) (PI) (PI) (SG) (SG) (?D) (?D) (DLTA)
                 (DLTA) (?D) (?D) (?E) (?E) (?E) (PI) (PI) (DLTA)
                 (DLTA) (PI) (PI) (SG) (SG) (SG)
 Beta  Orbitals:
       Occupied  (SG) (SG) (SG) (SG) (PI) (PI) (SG) (SG) (PI) (PI)
                 (SG)
       Virtual   (PI) (PI) (SG) (SG) (PI) (SG) (PI) (SG) (PI) (PI)
                 (PI) (DLTA) (DLTA) (PI) (SG) (?A) (?A) (?A) (PI)
                 (?A) (PI) (PI) (PI) (SG) (?B) (?B) (?B) (?C) (?C)
                 (?C) (?C) (PI) (PI) (SG) (SG) (?D) (?D) (?C) (?C)
                 (?C) (?C) (?D) (?D) (?D) (PI) (PI) (?E) (?E) (PI)
                 (PI) (?E) (SG) (SG)
 Initial guess <Sx>= 0.0000 <Sy>= 0.0000 <Sz>= 0.5000 <S**2>= 0.7543 S= 0.5021
 Keep R1 and R2 ints in memory in symmetry-blocked form, NReq=12941568.
 Requested convergence on RMS density matrix=1.00D-08 within 128 cycles.
 Requested convergence on MAX density matrix=1.00D-06.
 Requested convergence on             energy=1.00D-06.
 No special actions if energy rises.
 SCF Done:  E(UB3LYP) =  -498.189713018     A.U. after    9 cycles
            NFock=  9  Conv=0.41D-08     -V/T= 2.0010
 <Sx>= 0.0000 <Sy>= 0.0000 <Sz>= 0.5000 <S**2>= 0.7543 S= 0.5021
 <L.S>=  0.00000000000    
 Annihilation of the first spin contaminant:
 S**2 before annihilation     0.7543,   after     0.7500
 Calling FoFJK, ICntrl=      2127 FMM=F ISym2X=1 I1Cent= 0 IOpClX= 1 NMat=1 NMatS=1 NMatT=0.
 ***** Axes restored to original set *****
 -------------------------------------------------------------------
 Center     Atomic                   Forces (Hartrees/Bohr)
 Number     Number              X              Y              Z
 -------------------------------------------------------------------
      1        6          -0.000000000   -0.000000000   -0.000000465
      2       17          -0.000000000   -0.000000000    0.000000465
 -------------------------------------------------------------------
 Cartesian Forces:  Max     0.000000465 RMS     0.000000268

 GradGradGradGradGradGradGradGradGradGradGradGradGradGradGradGradGradGrad
 Berny optimization.
 Using GEDIIS/GDIIS optimizer.
 Internal  Forces:  Max     0.000000465 RMS     0.000000465
 Search for a local minimum.
 Step number   3 out of a maximum of   20
 All quantities printed in internal units (Hartrees-Bohrs-Radians)
 Mixed Optimization -- En-DIIS/RFO-DIIS
 Update second derivatives using D2CorX and points    2    3
 DE= -1.00D-05 DEPred=-1.03D-05 R= 9.72D-01
 TightC=F SS=  1.41D+00  RLast= 9.10D-03 DXNew= 5.0454D-01 2.7310D-02
 Trust test= 9.72D-01 RLast= 9.10D-03 DXMaxT set to 3.00D-01
 The second derivative matrix:
                          R1
           R1           0.24110
 ITU=  1  1
 Use linear search instead of GDIIS.
     Eigenvalues ---    0.24110
 RFO step:  Lambda= 0.00000000D+00 EMin= 2.41099487D-01
 Quartic linear search produced a step of -0.00021.
 Iteration  1 RMS(Cart)=  0.00000135 RMS(Int)=  0.00000000
 Iteration  2 RMS(Cart)=  0.00000000 RMS(Int)=  0.00000000
 ClnCor:  largest displacement from symmetrization is 0.00D+00 for atom     0.
 Variable       Old X    -DE/DX   Delta X   Delta X   Delta X     New X
                                 (Linear)    (Quad)   (Total)
    R1        3.14085   0.00000   0.00000   0.00000   0.00000   3.14085
         Item               Value     Threshold  Converged?
 Maximum Force            0.000000     0.000450     YES
 RMS     Force            0.000000     0.000300     YES
 Maximum Displacement     0.000001     0.001800     YES
 RMS     Displacement     0.000001     0.001200     YES
 Predicted change in Energy=-4.481168D-13
 Optimization completed.
    -- Stationary point found.
                           ----------------------------
                           !   Optimized Parameters   !
                           ! (Angstroms and Degrees)  !
 --------------------------                            --------------------------
 ! Name  Definition              Value          Derivative Info.                !
 --------------------------------------------------------------------------------
 ! R1    R(1,2)                  1.6621         -DE/DX =    0.0                 !
 --------------------------------------------------------------------------------
 GradGradGradGradGradGradGradGradGradGradGradGradGradGradGradGradGradGrad

                          Input orientation:                          
 ---------------------------------------------------------------------
 Center     Atomic      Atomic             Coordinates (Angstroms)
 Number     Number       Type             X           Y           Z
 ---------------------------------------------------------------------
      1          6           0        0.000000    0.000000   -1.231385
      2         17           0        0.000000    0.000000    0.430681
 ---------------------------------------------------------------------
 Stoichiometry    CCl(2)
 Framework group  C*V[C*(CCl)]
 Deg. of freedom     1
 Full point group                 C*V     NOp   4
 Largest Abelian subgroup         C2V     NOp   4
 Largest concise Abelian subgroup C1      NOp   1
                         Standard orientation:                         
 ---------------------------------------------------------------------
 Center     Atomic      Atomic             Coordinates (Angstroms)
 Number     Number       Type             X           Y           Z
 ---------------------------------------------------------------------
      1          6           0        0.000000    0.000000   -1.228484
      2         17           0        0.000000    0.000000    0.433582
 ---------------------------------------------------------------------
 Rotational constants (GHZ):           0.0000000          20.4770762          20.4770762

 **********************************************************************

            Population analysis using the SCF Density.

 **********************************************************************

 Orbital symmetries:
 Alpha Orbitals:
       Occupied  (SG) (SG) (SG) (SG) (PI) (PI) (SG) (SG) (?A) (?A)
                 (SG) (?A)
       Virtual   (?A) (SG) (SG) (?A) (?A) (SG) (SG) (PI) (PI) (PI)
                 (DLTA) (DLTA) (PI) (SG) (?B) (?B) (?B) (?C) (?C)
                 (SG) (?C) (?C) (SG) (SG) (DLTA) (DLTA) (PHI) (PHI)
                 (PI) (PI) (PI) (PI) (SG) (SG) (?D) (?D) (DLTA)
                 (DLTA) (?D) (?D) (?E) (?E) (?E) (PI) (PI) (DLTA)
                 (DLTA) (PI) (PI) (SG) (SG) (SG)
 Beta  Orbitals:
       Occupied  (SG) (SG) (SG) (SG) (PI) (PI) (SG) (SG) (PI) (PI)
                 (SG)
       Virtual   (PI) (PI) (SG) (SG) (PI) (SG) (PI) (SG) (PI) (PI)
                 (PI) (DLTA) (DLTA) (PI) (SG) (?A) (?A) (?A) (PI)
                 (?A) (PI) (PI) (PI) (SG) (?B) (?B) (?B) (?C) (?C)
                 (?C) (?C) (PI) (PI) (SG) (SG) (?D) (?D) (?C) (?C)
                 (?C) (?C) (?D) (?D) (?D) (PI) (PI) (DLTA) (DLTA)
                 (PI) (PI) (SG) (SG) (SG)
 Unable to determine electronic state:  an orbital has unidentified symmetry.
 Alpha  occ. eigenvalues -- -101.57824 -10.29843  -9.52314  -7.28157  -7.27868
 Alpha  occ. eigenvalues --   -7.27683  -0.92977  -0.61270  -0.42057  -0.41117
 Alpha  occ. eigenvalues --   -0.36396  -0.22781
 Alpha virt. eigenvalues --   -0.13209   0.03498   0.11000   0.17279   0.17890
 Alpha virt. eigenvalues --    0.18400   0.29270   0.31829   0.31876   0.49185
 Alpha virt. eigenvalues --    0.49243   0.49275   0.49559   0.68273   0.91942
 Alpha virt. eigenvalues --    0.92128   0.92787   1.12745   1.13762   1.15717
 Alpha virt. eigenvalues --    1.24881   1.26610   1.40824   1.84455   2.05082
 Alpha virt. eigenvalues --    2.05128   2.05425   2.05426   2.12678   2.13056
 Alpha virt. eigenvalues --    2.24016   2.24191   2.28649   2.46346   3.28961
 Alpha virt. eigenvalues --    3.29134   3.30016   3.30277   3.36505   3.36518
 Alpha virt. eigenvalues --    3.51588   3.51786   3.62261   3.85837   3.87258
 Alpha virt. eigenvalues --    3.92392   3.93325   4.37752   4.38243   4.40507
 Alpha virt. eigenvalues --    4.68035  33.01157
  Beta  occ. eigenvalues -- -101.57744 -10.28342  -9.52233  -7.28132  -7.27857
  Beta  occ. eigenvalues --   -7.27361  -0.92020  -0.58339  -0.40923  -0.39315
  Beta  occ. eigenvalues --   -0.34035
  Beta virt. eigenvalues --   -0.11736  -0.07811   0.04619   0.11290   0.18226
  Beta virt. eigenvalues --    0.18957   0.19703   0.29806   0.31893   0.32768
  Beta virt. eigenvalues --    0.49678   0.49955   0.49959   0.51391   0.69026
  Beta virt. eigenvalues --    0.92721   0.96835   0.96939   1.14300   1.16804
  Beta virt. eigenvalues --    1.17213   1.27610   1.31091   1.43057   1.85504
  Beta virt. eigenvalues --    2.05731   2.05748   2.06011   2.06013   2.12682
  Beta virt. eigenvalues --    2.13820   2.24152   2.25711   2.30050   2.46613
  Beta virt. eigenvalues --    3.32378   3.32442   3.34692   3.34835   3.36979
  Beta virt. eigenvalues --    3.38698   3.53500   3.53635   3.64434   3.87852
  Beta virt. eigenvalues --    3.91272   3.99541   3.99566   4.38586   4.41645
  Beta virt. eigenvalues --    4.41696   4.69664  33.01320
          Condensed to atoms (all electrons):
               1          2
     1  C    5.961299   0.113906
     2  Cl   0.113906  16.810889
          Atomic-Atomic Spin Densities.
               1          2
     1  C    1.042814  -0.127715
     2  Cl  -0.127715   0.212615
 Mulliken charges and spin densities:
               1          2
     1  C   -0.075205   0.915100
     2  Cl   0.075205   0.084900
 Sum of Mulliken charges =  -0.00000   1.00000
 Mulliken charges and spin densities with hydrogens summed into heavy atoms:
               1          2
     1  C   -0.075205   0.915100
     2  Cl   0.075205   0.084900
 Electronic spatial extent (au):  <R**2>=             86.2701
 Charge=             -0.0000 electrons
 Dipole moment (field-independent basis, Debye):
    X=              0.0000    Y=              0.0000    Z=              1.4926  Tot=              1.4926
 Quadrupole moment (field-independent basis, Debye-Ang):
   XX=            -19.1890   YY=            -17.3585   ZZ=            -20.6451
   XY=              0.0000   XZ=              0.0000   YZ=              0.0000
 Traceless Quadrupole moment (field-independent basis, Debye-Ang):
   XX=             -0.1248   YY=              1.7057   ZZ=             -1.5809
   XY=              0.0000   XZ=              0.0000   YZ=              0.0000
 Octapole moment (field-independent basis, Debye-Ang**2):
  XXX=              0.0000  YYY=              0.0000  ZZZ=             14.9039  XYY=              0.0000
  XXY=              0.0000  XXZ=              3.4770  XZZ=              0.0000  YZZ=              0.0000
  YYZ=              1.7793  XYZ=              0.0000
 Hexadecapole moment (field-independent basis, Debye-Ang**3):
 XXXX=            -23.1155 YYYY=            -19.2556 ZZZZ=           -104.2471 XXXY=              0.0000
 XXXZ=              0.0000 YYYX=              0.0000 YYYZ=              0.0000 ZZZX=              0.0000
 ZZZY=              0.0000 XXYY=             -7.0615 XXZZ=            -21.6162 YYZZ=            -17.9236
 XXYZ=              0.0000 YYXZ=              0.0000 ZZXY=              0.0000
 N-N= 3.247528847102D+01 E-N=-1.247694036910D+03  KE= 4.976770754979D+02
 Symmetry A1   KE= 4.045877769886D+02
 Symmetry A2   KE= 3.704791723796D-35
 Symmetry B1   KE= 4.740955460546D+01
 Symmetry B2   KE= 4.567974390377D+01
 Symmetry A1   SP= 1.434023391570D-15
 Symmetry A2   SP=-1.029233135438D-35
 Symmetry B1   SP= 1.000000000000D+00
 Symmetry B2   SP=-1.284291683418D-15
                          Isotropic Fermi Contact Couplings
        Atom                 a.u.       MegaHertz       Gauss      10(-4) cm-1
     1  C(13)              0.11062     124.35377      44.37252      41.47995
     2  Cl(35)             0.01599       7.00955       2.50118       2.33813
 --------------------------------------------------------
       Center         ----  Spin Dipole Couplings  ----
                      3XX-RR        3YY-RR        3ZZ-RR
 --------------------------------------------------------
     1   Atom        1.351658     -0.667399     -0.684259
     2   Atom        0.994298     -0.546911     -0.447387
 --------------------------------------------------------
                        XY            XZ            YZ
 --------------------------------------------------------
     1   Atom        0.000000      0.000000      0.000000
     2   Atom        0.000000      0.000000      0.000000
 --------------------------------------------------------


 ---------------------------------------------------------------------------------
              Anisotropic Spin Dipole Couplings in Principal Axis System
 ---------------------------------------------------------------------------------

       Atom             a.u.   MegaHertz   Gauss  10(-4) cm-1        Axes

              Baa    -0.6843   -91.821   -32.764   -30.628  0.0000  0.0000  1.0000
     1 C(13)  Bbb    -0.6674   -89.559   -31.957   -29.874 -0.0000  1.0000  0.0000
              Bcc     1.3517   181.380    64.721    60.502  1.0000  0.0000  0.0000
 
              Baa    -0.5469   -28.624   -10.214    -9.548 -0.0000  1.0000  0.0000
     2 Cl(35) Bbb    -0.4474   -23.415    -8.355    -7.810  0.0000  0.0000  1.0000
              Bcc     0.9943    52.039    18.569    17.358  1.0000  0.0000  0.0000
 

 ---------------------------------------------------------------------------------

 1\1\GINC-GAMBA\FOpt\UB3LYP\Gen\C1Cl1(2)\IRIKURA\16-Jun-2022\0\\# b3lyp
 /gen opt freq\\chlormethylidyne, B3LYP/pcseg-2\\0,2\C,0.,0.,-1.2313850
 417\Cl,0.,0.,0.4306810417\\Version=ES64L-G16RevB.01\HF=-498.189713\S2=
 0.754252\S2-1=0.\S2A=0.750012\RMSD=4.067e-09\RMSF=2.684e-07\Dipole=0.,
 0.,0.5872145\Quadrupole=-0.0928053,1.2681631,-1.1753578,0.,0.,0.\PG=C*
 V [C*(C1Cl1)]\\@


 FRICTION IS A DRAG,
 AND ENTROPY AIN'T WHAT IT USED TO BE.
 Job cpu time:       0 days  0 hours  1 minutes 23.3 seconds.
 Elapsed time:       0 days  0 hours  0 minutes  7.1 seconds.
 File lengths (MBytes):  RWF=      6 Int=      0 D2E=      0 Chk=      2 Scr=      1
 Normal termination of Gaussian 16 at Thu Jun 16 10:37:23 2022.
 Link1:  Proceeding to internal job step number  2.
 ------------------------------------------------------------------
 #N Geom=AllCheck Guess=TCheck SCRF=Check GenChk UB3LYP/ChkBas Freq
 ------------------------------------------------------------------
 1/10=4,29=7,30=1,38=1,40=1/1,3;
 2/12=2,40=1/2;
 3/5=7,6=2,11=2,14=-4,25=1,30=1,67=1,70=2,71=2,74=-5,82=7,116=2,140=1/1,2,3;
 4/5=101/1;
 5/5=2,38=6,98=1/2;
 8/6=4,10=90,11=11/1;
 11/6=1,8=1,9=11,15=111,16=1/1,2,10;
 10/6=1/2;
 6/7=2,8=2,9=2,10=2,28=1/1;
 7/8=1,10=1,25=1/1,2,3,16;
 1/10=4,30=1/3;
 99//99;
 Structure from the checkpoint file:  "/wrk/irikura/Gau-5263.chk"
 -------------------------------
 chlormethylidyne, B3LYP/pcseg-2
 -------------------------------
 Charge =  0 Multiplicity = 2
 Redundant internal coordinates found in file.  (old form).
 C,0,0.,0.,-1.2313850417
 Cl,0,0.,0.,0.4306810417
 Recover connectivity data from disk.

 GradGradGradGradGradGradGradGradGradGradGradGradGradGradGradGradGradGrad
 Berny optimization.
 Initialization pass.
                           ----------------------------
                           !    Initial Parameters    !
                           ! (Angstroms and Degrees)  !
 --------------------------                            --------------------------
 ! Name  Definition              Value          Derivative Info.                !
 --------------------------------------------------------------------------------
 ! R1    R(1,2)                  1.6621         calculate D2E/DX2 analytically  !
 --------------------------------------------------------------------------------
 Trust Radius=3.00D-01 FncErr=1.00D-07 GrdErr=1.00D-07 EigMax=2.50D+02 EigMin=1.00D-04
 Number of steps in this run=      2 maximum allowed number of steps=      2.
 GradGradGradGradGradGradGradGradGradGradGradGradGradGradGradGradGradGrad

                          Input orientation:                          
 ---------------------------------------------------------------------
 Center     Atomic      Atomic             Coordinates (Angstroms)
 Number     Number       Type             X           Y           Z
 ---------------------------------------------------------------------
      1          6           0        0.000000    0.000000   -1.231385
      2         17           0        0.000000    0.000000    0.430681
 ---------------------------------------------------------------------
 Stoichiometry    CCl(2)
 Framework group  C*V[C*(CCl)]
 Deg. of freedom     1
 Full point group                 C*V     NOp   4
 Largest Abelian subgroup         C2V     NOp   4
 Largest concise Abelian subgroup C1      NOp   1
                         Standard orientation:                         
 ---------------------------------------------------------------------
 Center     Atomic      Atomic             Coordinates (Angstroms)
 Number     Number       Type             X           Y           Z
 ---------------------------------------------------------------------
      1          6           0        0.000000    0.000000   -1.228484
      2         17           0        0.000000    0.000000    0.433582
 ---------------------------------------------------------------------
 Rotational constants (GHZ):           0.0000000          20.4770762          20.4770762
 Basis read from chk: "/wrk/irikura/Gau-5263.chk" (5D, 7F)
 There are    34 symmetry adapted cartesian basis functions of A1  symmetry.
 There are     6 symmetry adapted cartesian basis functions of A2  symmetry.
 There are    17 symmetry adapted cartesian basis functions of B1  symmetry.
 There are    17 symmetry adapted cartesian basis functions of B2  symmetry.
 There are    28 symmetry adapted basis functions of A1  symmetry.
 There are     6 symmetry adapted basis functions of A2  symmetry.
 There are    15 symmetry adapted basis functions of B1  symmetry.
 There are    15 symmetry adapted basis functions of B2  symmetry.
    64 basis functions,   121 primitive gaussians,    74 cartesian basis functions
    12 alpha electrons       11 beta electrons
       nuclear repulsion energy        32.4752884710 Hartrees.
 NAtoms=    2 NActive=    2 NUniq=    2 SFac= 1.00D+00 NAtFMM=   60 NAOKFM=F Big=F
 Integral buffers will be    131072 words long.
 Raffenetti 2 integral format.
 Two-electron integral symmetry is turned on.
 One-electron integrals computed using PRISM.
 NBasis=    64 RedAO= T EigKep=  7.54D-03  NBF=    28     6    15    15
 NBsUse=    64 1.00D-06 EigRej= -1.00D+00 NBFU=    28     6    15    15
 Initial guess from the checkpoint file:  "/wrk/irikura/Gau-5263.chk"
 B after Tr=     0.000000    0.000000    0.000000
         Rot=    1.000000    0.000000    0.000000    0.000000 Ang=   0.00 deg.
 Initial guess orbital symmetries:
 Alpha Orbitals:
       Occupied  (SG) (SG) (SG) (SG) (PI) (PI) (SG) (SG) (?A) (?A)
                 (SG) (?A)
       Virtual   (?A) (SG) (SG) (?A) (?A) (SG) (SG) (PI) (PI) (PI)
                 (DLTA) (DLTA) (PI) (SG) (?B) (?B) (?B) (?C) (?C)
                 (SG) (?C) (?C) (SG) (SG) (DLTA) (DLTA) (PHI) (PHI)
                 (PI) (PI) (PI) (PI) (SG) (SG) (?D) (?D) (DLTA)
                 (DLTA) (?D) (?D) (?E) (?E) (?E) (PI) (PI) (DLTA)
                 (DLTA) (PI) (PI) (SG) (SG) (SG)
 Beta  Orbitals:
       Occupied  (SG) (SG) (SG) (SG) (PI) (PI) (SG) (SG) (PI) (PI)
                 (SG)
       Virtual   (PI) (PI) (SG) (SG) (PI) (SG) (PI) (SG) (PI) (PI)
                 (PI) (DLTA) (DLTA) (PI) (SG) (?A) (?A) (?A) (PI)
                 (?A) (PI) (PI) (PI) (SG) (?B) (?B) (?B) (?C) (?C)
                 (?C) (?C) (PI) (PI) (SG) (SG) (?D) (?D) (?C) (?C)
                 (?C) (?C) (?D) (?D) (?D) (PI) (PI) (DLTA) (DLTA)
                 (PI) (PI) (SG) (SG) (SG)
 Initial guess <Sx>= 0.0000 <Sy>= 0.0000 <Sz>= 0.5000 <S**2>= 0.7543 S= 0.5021
 Keep R1 and R2 ints in memory in symmetry-blocked form, NReq=12941568.
 Requested convergence on RMS density matrix=1.00D-08 within 128 cycles.
 Requested convergence on MAX density matrix=1.00D-06.
 Requested convergence on             energy=1.00D-06.
 No special actions if energy rises.
 SCF Done:  E(UB3LYP) =  -498.189713018     A.U. after    1 cycles
            NFock=  1  Conv=0.51D-09     -V/T= 2.0010
 <Sx>= 0.0000 <Sy>= 0.0000 <Sz>= 0.5000 <S**2>= 0.7543 S= 0.5021
 <L.S>=  0.00000000000    
 Annihilation of the first spin contaminant:
 S**2 before annihilation     0.7543,   after     0.7500
 DoSCS=F DFT=T ScalE2(SS,OS)=  1.000000  1.000000
 Range of M.O.s used for correlation:     1    64
 NBasis=    64 NAE=    12 NBE=    11 NFC=     0 NFV=     0
 NROrb=     64 NOA=    12 NOB=    11 NVA=    52 NVB=    53

 **** Warning!!: The smallest alpha delta epsilon is  0.95723109D-01

 Symmetrizing basis deriv contribution to polar:
 IMax=3 JMax=2 DiffMx= 0.00D+00
 G2DrvN: will do     3 centers at a time, making    1 passes.
 Calling FoFCou, ICntrl=  3107 FMM=F I1Cent=   0 AccDes= 0.00D+00.
 End of G2Drv F.D. properties file   721 does not exist.
 End of G2Drv F.D. properties file   722 does not exist.
 End of G2Drv F.D. properties file   788 does not exist.
          IDoAtm=11
          Differentiating once with respect to electric field.
                with respect to dipole field.
          Differentiating once with respect to nuclear coordinates.
 Keep R1 and R2 ints in memory in symmetry-blocked form, NReq=12901696.
          There are     9 degrees of freedom in the 1st order CPHF.  IDoFFX=6 NUNeed=     3.
      6 vectors produced by pass  0 Test12= 1.34D-14 1.11D-08 XBig12= 7.89D+01 4.22D+00.
 AX will form     6 AO Fock derivatives at one time.
      6 vectors produced by pass  1 Test12= 1.34D-14 1.11D-08 XBig12= 3.98D+01 2.81D+00.
      6 vectors produced by pass  2 Test12= 1.34D-14 1.11D-08 XBig12= 8.56D-01 2.24D-01.
      6 vectors produced by pass  3 Test12= 1.34D-14 1.11D-08 XBig12= 3.06D-02 8.09D-02.
      6 vectors produced by pass  4 Test12= 1.34D-14 1.11D-08 XBig12= 1.85D-03 1.92D-02.
      6 vectors produced by pass  5 Test12= 1.34D-14 1.11D-08 XBig12= 1.17D-04 4.72D-03.
      6 vectors produced by pass  6 Test12= 1.34D-14 1.11D-08 XBig12= 2.11D-06 6.23D-04.
      5 vectors produced by pass  7 Test12= 1.34D-14 1.11D-08 XBig12= 2.05D-08 4.27D-05.
      4 vectors produced by pass  8 Test12= 1.34D-14 1.11D-08 XBig12= 4.61D-10 4.24D-06.
      1 vectors produced by pass  9 Test12= 1.34D-14 1.11D-08 XBig12= 7.30D-12 1.07D-06.
      1 vectors produced by pass 10 Test12= 1.34D-14 1.11D-08 XBig12= 6.30D-14 7.39D-08.
 InvSVY:  IOpt=1 It=  1 EMax= 4.44D-16
 Solved reduced A of dimension    53 with     6 vectors.
 Isotropic polarizability for W=    0.000000       21.33 Bohr**3.
 End of Minotr F.D. properties file   721 does not exist.
 End of Minotr F.D. properties file   722 does not exist.
 End of Minotr F.D. properties file   788 does not exist.

 **********************************************************************

            Population analysis using the SCF Density.

 **********************************************************************

 Orbital symmetries:
 Alpha Orbitals:
       Occupied  (SG) (SG) (SG) (SG) (PI) (PI) (SG) (SG) (?A) (?A)
                 (SG) (?A)
       Virtual   (?A) (SG) (SG) (?A) (?A) (SG) (SG) (PI) (PI) (PI)
                 (DLTA) (DLTA) (PI) (SG) (?B) (?B) (?B) (?C) (?C)
                 (SG) (?C) (?C) (SG) (SG) (DLTA) (DLTA) (PHI) (PHI)
                 (PI) (PI) (PI) (PI) (SG) (SG) (?D) (?D) (DLTA)
                 (DLTA) (?D) (?D) (?E) (?E) (?E) (PI) (PI) (DLTA)
                 (DLTA) (PI) (PI) (SG) (SG) (SG)
 Beta  Orbitals:
       Occupied  (SG) (SG) (SG) (SG) (PI) (PI) (SG) (SG) (PI) (PI)
                 (SG)
       Virtual   (PI) (PI) (SG) (SG) (PI) (SG) (PI) (SG) (PI) (PI)
                 (PI) (DLTA) (DLTA) (PI) (SG) (?A) (?A) (?A) (PI)
                 (?A) (PI) (PI) (PI) (SG) (?B) (?B) (?B) (?C) (?C)
                 (?C) (?C) (PI) (PI) (SG) (SG) (?D) (?D) (?C) (?C)
                 (?C) (?C) (?D) (?D) (?D) (PI) (PI) (DLTA) (DLTA)
                 (PI) (PI) (SG) (SG) (SG)
 Unable to determine electronic state:  an orbital has unidentified symmetry.
 Alpha  occ. eigenvalues -- -101.57824 -10.29843  -9.52314  -7.28157  -7.27868
 Alpha  occ. eigenvalues --   -7.27683  -0.92977  -0.61270  -0.42057  -0.41117
 Alpha  occ. eigenvalues --   -0.36396  -0.22781
 Alpha virt. eigenvalues --   -0.13209   0.03498   0.11000   0.17279   0.17890
 Alpha virt. eigenvalues --    0.18400   0.29270   0.31829   0.31876   0.49185
 Alpha virt. eigenvalues --    0.49243   0.49275   0.49559   0.68273   0.91942
 Alpha virt. eigenvalues --    0.92128   0.92787   1.12745   1.13762   1.15717
 Alpha virt. eigenvalues --    1.24881   1.26610   1.40824   1.84455   2.05082
 Alpha virt. eigenvalues --    2.05128   2.05425   2.05426   2.12678   2.13056
 Alpha virt. eigenvalues --    2.24016   2.24191   2.28649   2.46346   3.28961
 Alpha virt. eigenvalues --    3.29134   3.30016   3.30277   3.36505   3.36518
 Alpha virt. eigenvalues --    3.51588   3.51786   3.62261   3.85837   3.87258
 Alpha virt. eigenvalues --    3.92392   3.93325   4.37752   4.38243   4.40507
 Alpha virt. eigenvalues --    4.68035  33.01157
  Beta  occ. eigenvalues -- -101.57744 -10.28342  -9.52233  -7.28132  -7.27857
  Beta  occ. eigenvalues --   -7.27361  -0.92020  -0.58339  -0.40923  -0.39315
  Beta  occ. eigenvalues --   -0.34035
  Beta virt. eigenvalues --   -0.11736  -0.07811   0.04619   0.11290   0.18226
  Beta virt. eigenvalues --    0.18957   0.19703   0.29806   0.31893   0.32768
  Beta virt. eigenvalues --    0.49678   0.49955   0.49959   0.51391   0.69026
  Beta virt. eigenvalues --    0.92721   0.96835   0.96939   1.14300   1.16804
  Beta virt. eigenvalues --    1.17213   1.27610   1.31091   1.43057   1.85504
  Beta virt. eigenvalues --    2.05731   2.05748   2.06011   2.06013   2.12682
  Beta virt. eigenvalues --    2.13820   2.24152   2.25711   2.30050   2.46613
  Beta virt. eigenvalues --    3.32378   3.32442   3.34692   3.34835   3.36979
  Beta virt. eigenvalues --    3.38698   3.53500   3.53635   3.64434   3.87852
  Beta virt. eigenvalues --    3.91272   3.99541   3.99566   4.38586   4.41645
  Beta virt. eigenvalues --    4.41696   4.69664  33.01320
          Condensed to atoms (all electrons):
               1          2
     1  C    5.961299   0.113906
     2  Cl   0.113906  16.810889
          Atomic-Atomic Spin Densities.
               1          2
     1  C    1.042814  -0.127715
     2  Cl  -0.127715   0.212615
 Mulliken charges and spin densities:
               1          2
     1  C   -0.075205   0.915100
     2  Cl   0.075205   0.084900
 Sum of Mulliken charges =   0.00000   1.00000
 Mulliken charges and spin densities with hydrogens summed into heavy atoms:
               1          2
     1  C   -0.075205   0.915100
     2  Cl   0.075205   0.084900
 APT charges:
               1
     1  C    0.268639
     2  Cl  -0.268639
 Sum of APT charges =   0.00000
 APT charges with hydrogens summed into heavy atoms:
               1
     1  C    0.268639
     2  Cl  -0.268639
 Electronic spatial extent (au):  <R**2>=             86.2701
 Charge=              0.0000 electrons
 Dipole moment (field-independent basis, Debye):
    X=              0.0000    Y=              0.0000    Z=              1.4926  Tot=              1.4926
 Quadrupole moment (field-independent basis, Debye-Ang):
   XX=            -19.1890   YY=            -17.3585   ZZ=            -20.6451
   XY=              0.0000   XZ=              0.0000   YZ=              0.0000
 Traceless Quadrupole moment (field-independent basis, Debye-Ang):
   XX=             -0.1248   YY=              1.7057   ZZ=             -1.5809
   XY=              0.0000   XZ=              0.0000   YZ=              0.0000
 Octapole moment (field-independent basis, Debye-Ang**2):
  XXX=              0.0000  YYY=              0.0000  ZZZ=             14.9039  XYY=              0.0000
  XXY=              0.0000  XXZ=              3.4770  XZZ=              0.0000  YZZ=              0.0000
  YYZ=              1.7793  XYZ=              0.0000
 Hexadecapole moment (field-independent basis, Debye-Ang**3):
 XXXX=            -23.1155 YYYY=            -19.2556 ZZZZ=           -104.2471 XXXY=              0.0000
 XXXZ=              0.0000 YYYX=              0.0000 YYYZ=              0.0000 ZZZX=              0.0000
 ZZZY=              0.0000 XXYY=             -7.0615 XXZZ=            -21.6162 YYZZ=            -17.9236
 XXYZ=              0.0000 YYXZ=              0.0000 ZZXY=              0.0000
 N-N= 3.247528847102D+01 E-N=-1.247694036669D+03  KE= 4.976770753777D+02
 Symmetry A1   KE= 4.045877769308D+02
 Symmetry A2   KE= 3.704792148129D-35
 Symmetry B1   KE= 4.740955458115D+01
 Symmetry B2   KE= 4.567974386583D+01
 Symmetry A1   SP= 1.934535160102D-15
 Symmetry A2   SP=-1.029233134979D-35
 Symmetry B1   SP= 1.000000000000D+00
 Symmetry B2   SP=-7.909390373553D-16
  Exact polarizability:  15.821   0.000  15.231  -0.000  -0.000  32.935
 Approx polarizability:  20.062  -0.000  23.635  -0.000  -0.000  57.442
                          Isotropic Fermi Contact Couplings
        Atom                 a.u.       MegaHertz       Gauss      10(-4) cm-1
     1  C(13)              0.11062     124.35377      44.37252      41.47995
     2  Cl(35)             0.01599       7.00956       2.50118       2.33814
 --------------------------------------------------------
       Center         ----  Spin Dipole Couplings  ----
                      3XX-RR        3YY-RR        3ZZ-RR
 --------------------------------------------------------
     1   Atom        1.351659     -0.667399     -0.684259
     2   Atom        0.994297     -0.546910     -0.447387
 --------------------------------------------------------
                        XY            XZ            YZ
 --------------------------------------------------------
     1   Atom        0.000000      0.000000      0.000000
     2   Atom        0.000000      0.000000      0.000000
 --------------------------------------------------------


 ---------------------------------------------------------------------------------
              Anisotropic Spin Dipole Couplings in Principal Axis System
 ---------------------------------------------------------------------------------

       Atom             a.u.   MegaHertz   Gauss  10(-4) cm-1        Axes

              Baa    -0.6843   -91.821   -32.764   -30.628  0.0000  0.0000  1.0000
     1 C(13)  Bbb    -0.6674   -89.559   -31.957   -29.874 -0.0000  1.0000  0.0000
              Bcc     1.3517   181.380    64.721    60.502  1.0000  0.0000  0.0000
 
              Baa    -0.5469   -28.624   -10.214    -9.548 -0.0000  1.0000  0.0000
     2 Cl(35) Bbb    -0.4474   -23.415    -8.355    -7.810  0.0000  0.0000  1.0000
              Bcc     0.9943    52.039    18.569    17.358  1.0000  0.0000  0.0000
 

 ---------------------------------------------------------------------------------

 Calling FoFJK, ICntrl=    100127 FMM=F ISym2X=1 I1Cent= 0 IOpClX= 1 NMat=1 NMatS=1 NMatT=0.
 Full mass-weighted force constant matrix:
 Low frequencies ---   -5.0263   -4.7292    0.0020    0.0028    0.0047  850.0763
 Diagonal vibrational polarizability:
        0.0000000       0.0000000       5.6566706
 Harmonic frequencies (cm**-1), IR intensities (KM/Mole), Raman scattering
 activities (A**4/AMU), depolarization ratios for plane and unpolarized
 incident light, reduced masses (AMU), force constants (mDyne/A),
 and normal coordinates:
                      1
                     SG
 Frequencies --    850.0763
 Red. masses --     14.4199
 Frc consts  --      6.1394
 IR Inten    --    151.8950
  Atom  AN      X      Y      Z
     1   6     0.00   0.00   0.95
     2  17     0.00   0.00  -0.32

 -------------------
 - Thermochemistry -
 -------------------
 Temperature   298.150 Kelvin.  Pressure   1.00000 Atm.
 Atom     1 has atomic number  6 and mass  12.00000
 Atom     2 has atomic number 17 and mass  34.96885
 Molecular mass:    46.96885 amu.
 Principal axes and moments of inertia in atomic units:
                           1         2         3
     Eigenvalues --     0.00000  88.13471  88.13471
           X            0.00000  -0.00000   1.00000
           Y            0.00000   1.00000   0.00000
           Z            1.00000   0.00000   0.00000
 This molecule is a prolate symmetric top.
 Rotational symmetry number  1.
 Rotational temperature (Kelvin)      0.98274
 Rotational constant (GHZ):          20.477076
 Zero-point vibrational energy       5084.6 (Joules/Mol)
                                    1.21525 (Kcal/Mol)
 Vibrational temperatures:   1223.07
          (Kelvin)
 
 Zero-point correction=                           0.001937 (Hartree/Particle)
 Thermal correction to Energy=                    0.004362
 Thermal correction to Enthalpy=                  0.005306
 Thermal correction to Gibbs Free Energy=        -0.019570
 Sum of electronic and zero-point Energies=           -498.187776
 Sum of electronic and thermal Energies=              -498.185351
 Sum of electronic and thermal Enthalpies=            -498.184407
 Sum of electronic and thermal Free Energies=         -498.209283
 
                     E (Thermal)             CV                S
                      KCal/Mol        Cal/Mol-Kelvin    Cal/Mol-Kelvin
 Total                    2.737              5.540             52.357
 Electronic               0.000              0.000              1.377
 Translational            0.889              2.981             37.465
 Rotational               0.592              1.987             13.344
 Vibrational              1.256              0.572              0.170
                       Q            Log10(Q)             Ln(Q)
 Total Bot       0.100382D+10          9.001654         20.727074
 Total V=0       0.780611D+10          9.892435         22.778172
 Vib (Bot)       0.130756D+00         -0.883539         -2.034424
 Vib (V=0)       0.101681D+01          0.007242          0.016675
 Electronic      0.200000D+01          0.301030          0.693147
 Translational   0.126523D+08          7.102169         16.353348
 Rotational      0.303385D+03          2.481994          5.715003
 ***** Axes restored to original set *****
 -------------------------------------------------------------------
 Center     Atomic                   Forces (Hartrees/Bohr)
 Number     Number              X              Y              Z
 -------------------------------------------------------------------
      1        6          -0.000000000   -0.000000000   -0.000000469
      2       17          -0.000000000   -0.000000000    0.000000469
 -------------------------------------------------------------------
 Cartesian Forces:  Max     0.000000469 RMS     0.000000271
 FormGI is forming the generalized inverse of G from B-inverse, IUseBI=4.

 GradGradGradGradGradGradGradGradGradGradGradGradGradGradGradGradGradGrad
 Berny optimization.
 Internal  Forces:  Max     0.000000469 RMS     0.000000469
 Search for a local minimum.
 Step number   1 out of a maximum of    2
 All quantities printed in internal units (Hartrees-Bohrs-Radians)
 Second derivative matrix not updated -- analytic derivatives used.
 The second derivative matrix:
                          R1
           R1           0.24432
 ITU=  0
     Eigenvalues ---    0.24432
 Angle between quadratic step and forces=  90.00 degrees.
 Linear search not attempted -- first point.
 Iteration  1 RMS(Cart)=  0.00000136 RMS(Int)=  0.00000000
 Iteration  2 RMS(Cart)=  0.00000000 RMS(Int)=  0.00000000
 ClnCor:  largest displacement from symmetrization is 0.00D+00 for atom     0.
 Variable       Old X    -DE/DX   Delta X   Delta X   Delta X     New X
                                 (Linear)    (Quad)   (Total)
    R1        3.14085   0.00000   0.00000   0.00000   0.00000   3.14085
         Item               Value     Threshold  Converged?
 Maximum Force            0.000000     0.000450     YES
 RMS     Force            0.000000     0.000300     YES
 Maximum Displacement     0.000001     0.001800     YES
 RMS     Displacement     0.000001     0.001200     YES
 Predicted change in Energy=-4.493779D-13
 Optimization completed.
    -- Stationary point found.
                           ----------------------------
                           !   Optimized Parameters   !
                           ! (Angstroms and Degrees)  !
 --------------------------                            --------------------------
 ! Name  Definition              Value          Derivative Info.                !
 --------------------------------------------------------------------------------
 ! R1    R(1,2)                  1.6621         -DE/DX =    0.0                 !
 --------------------------------------------------------------------------------
 GradGradGradGradGradGradGradGradGradGradGradGradGradGradGradGradGradGrad


 ----------------------------------------------------------------------

 Electric dipole moment (input orientation):
 (Debye = 10**-18 statcoulomb cm , SI units = C m)
                  (au)            (Debye)         (10**-30 SI)
   Tot        0.587214D+00      0.149255D+01      0.497861D+01
   x          0.000000D+00      0.000000D+00      0.000000D+00
   y          0.000000D+00      0.000000D+00      0.000000D+00
   z          0.587214D+00      0.149255D+01      0.497861D+01

 Dipole polarizability, Alpha (input orientation).
 (esu units = cm**3 , SI units = C**2 m**2 J**-1)
 Alpha(0;0):
               (au)            (10**-24 esu)      (10**-40 SI)
   iso        0.213290D+02      0.316063D+01      0.351667D+01
   aniso      0.174169D+02      0.258092D+01      0.287166D+01
   xx         0.158209D+02      0.234442D+01      0.260852D+01
   yx         0.000000D+00      0.000000D+00      0.000000D+00
   yy         0.152308D+02      0.225697D+01      0.251121D+01
   zx         0.000000D+00      0.000000D+00      0.000000D+00
   zy         0.000000D+00      0.000000D+00      0.000000D+00
   zz         0.329353D+02      0.488050D+01      0.543029D+01

 ----------------------------------------------------------------------

 Dipole orientation:
     6          0.00000000          0.00000000         -2.32698048
    17          0.00000000          0.00000000          0.81386922

 Electric dipole moment (dipole orientation):
 (Debye = 10**-18 statcoulomb cm , SI units = C m)
                  (au)            (Debye)         (10**-30 SI)
   Tot        0.587214D+00      0.149255D+01      0.497861D+01
   x          0.000000D+00      0.000000D+00      0.000000D+00
   y          0.000000D+00      0.000000D+00      0.000000D+00
   z          0.587214D+00      0.149255D+01      0.497861D+01

 Dipole polarizability, Alpha (dipole orientation).
 (esu units = cm**3 , SI units = C**2 m**2 J**-1)
 Alpha(0;0):
               (au)            (10**-24 esu)      (10**-40 SI)
   iso        0.213290D+02      0.316063D+01      0.351667D+01
   aniso      0.174169D+02      0.258092D+01      0.287166D+01
   xx         0.158209D+02      0.234442D+01      0.260852D+01
   yx         0.000000D+00      0.000000D+00      0.000000D+00
   yy         0.152308D+02      0.225697D+01      0.251121D+01
   zx         0.000000D+00      0.000000D+00      0.000000D+00
   zy         0.000000D+00      0.000000D+00      0.000000D+00
   zz         0.329353D+02      0.488050D+01      0.543029D+01

 ----------------------------------------------------------------------
 1\1\GINC-GAMBA\Freq\UB3LYP\Gen\C1Cl1(2)\IRIKURA\16-Jun-2022\0\\#N Geom
 =AllCheck Guess=TCheck SCRF=Check GenChk UB3LYP/ChkBas Freq\\chlormeth
 ylidyne, B3LYP/pcseg-2\\0,2\C,0.,0.,-1.2313850417\Cl,0.,0.,0.430681041
 7\\Version=ES64L-G16RevB.01\HF=-498.189713\S2=0.754252\S2-1=0.\S2A=0.7
 50012\RMSD=5.111e-10\RMSF=2.705e-07\ZeroPoint=0.0019366\Thermal=0.0043
 622\Dipole=0.,0.,0.5872145\DipoleDeriv=-0.1869574,0.,0.,0.,-0.1869629,
 0.,0.,0.,1.1798383,0.1869574,0.,0.,0.,0.1869629,0.,0.,0.,-1.1798383\Po
 lar=15.8209167,0.,15.2307666,0.,0.,32.9352639\Quadrupole=-0.0928053,1.
 2681631,-1.1753578,0.,0.,0.\PG=C*V [C*(C1Cl1)]\NImag=0\\-0.00000854,0.
 ,-0.00000756,0.,0.,0.24432051,0.00000854,0.,0.,-0.00000854,0.,0.000007
 56,0.,0.,-0.00000756,0.,0.,-0.24432051,0.,0.,0.24432051\\0.,0.,0.00000
 047,0.,0.,-0.00000047\\\@


 Change starts when someone sees the next step.
                            -- William Drayton
 Job cpu time:       0 days  0 hours  1 minutes  6.0 seconds.
 Elapsed time:       0 days  0 hours  0 minutes  5.5 seconds.
 File lengths (MBytes):  RWF=      6 Int=      0 D2E=      0 Chk=      2 Scr=      1
 Normal termination of Gaussian 16 at Thu Jun 16 10:37:28 2022.
