 Entering Gaussian System, Link 0=g16
 AtFile(1): pcseg2.gbs
            -H     0
            S   4   1.00
                  0.754732D+02           0.427821D-02
                  0.113575D+02           0.328672D-01
                  0.260081D+01           0.159578D+00
                  0.735503D+00           0.500000D+00
            S   1   1.00
                  0.231761D+00           1.0000000
            S   1   1.00
                  0.741675D-01           1.0000000
            P   1   1.00
                  0.160000D+01           1.0000000
            P   1   1.00
                  0.450000D+00           1.0000000
            D   1   1.00
                  0.125000D+01           1.0000000
            ****
            -C     0
            S   7   1.00
                  0.731999D+04           0.695369D-03
                  0.109818D+04           0.537138D-02
                  0.250014D+03           0.274734D-01
                  0.707586D+02           0.105078D+00
                  0.228595D+02           0.291262D+00
                  0.803936D+01           0.500000D+00
                  0.289309D+01           0.362224D+00
            S   2   1.00
                  0.521640D+01          -0.957844D-01
                  0.556124D+00           0.500000D+00
            S   1   1.00
                  0.228813D+00           1.0000000
            S   1   1.00
                  0.936338D-01           1.0000000
            P   4   1.00
                  0.339855D+02           0.818395D-02
                  0.772957D+01           0.586921D-01
                  0.224954D+01           0.222514D+00
                  0.767681D+00           0.500000D+00
            P   1   1.00
                  0.263283D+00           1.0000000
            P   1   1.00
                  0.848744D-01           1.0000000
            D   1   1.00
                  0.140000D+01           1.0000000
            D   1   1.00
                  0.450000D+00           1.0000000
            F   1   1.00
                  0.950000D+00           1.0000000
            ****
            -O     0
            S   7   1.00
                  0.135887D+05           0.665492D-03
                  0.203847D+04           0.514222D-02
                  0.464041D+03           0.263472D-01
                  0.131339D+03           0.101500D+00
                  0.425340D+02           0.285877D+00
                  0.150429D+02           0.500000D+00
                  0.546616D+01           0.368211D+00
            S   2   1.00
                  0.100915D+02          -0.100084D+00
                  0.110429D+01           0.500000D+00
            S   1   1.00
                  0.448082D+00           1.0000000
            S   1   1.00
                  0.175325D+00           1.0000000
            P   4   1.00
                  0.608220D+02           0.908253D-02
                  0.140332D+02           0.645878D-01
                  0.418244D+01           0.241502D+00
                  0.142490D+01           0.500000D+00
            P   1   1.00
                  0.478741D+00           1.0000000
            P   1   1.00
                  0.146257D+00           1.0000000
            D   1   1.00
                  0.220000D+01           1.0000000
            D   1   1.00
                  0.650000D+00           1.0000000
            F   1   1.00
                  0.110000D+01           1.0000000
            ****
            -N     0
            S   7   1.00
                  0.101643D+05           0.682757D-03
                  0.152481D+04           0.527488D-02
                  0.347119D+03           0.270037D-01
                  0.982389D+02           0.103673D+00
                  0.317799D+02           0.289575D+00
                  0.112240D+02           0.500000D+00
                  0.406611D+01           0.364621D+00
            S   2   1.00
                  0.747898D+01          -0.975681D-01
                  0.805040D+00           0.500000D+00
            S   1   1.00
                  0.324626D+00           1.0000000
            S   1   1.00
                  0.128132D+00           1.0000000
            P   4   1.00
                  0.482704D+02           0.829547D-02
                  0.110815D+02           0.596223D-01
                  0.326643D+01           0.227889D+00
                  0.111680D+01           0.500000D+00
            P   1   1.00
                  0.382049D+00           1.0000000
            P   1   1.00
                  0.121222D+00           1.0000000
            D   1   1.00
                  0.180000D+01           1.0000000
            D   1   1.00
                  0.550000D+00           1.0000000
            F   1   1.00
                  0.102000D+01           1.0000000
            ****
            -F     0
            S   7   1.00
                  0.174507D+05           0.655972D-03
                  0.261768D+04           0.506944D-02
                  0.595857D+03           0.259899D-01
                  0.168651D+03           0.100353D+00
                  0.546654D+02           0.284095D+00
                  0.193717D+02           0.500000D+00
                  0.706202D+01           0.370721D+00
            S   2   1.00
                  0.131197D+02          -0.101997D+00
                  0.145046D+01           0.500000D+00
            S   1   1.00
                  0.588255D+00           1.0000000
            S   1   1.00
                  0.227960D+00           1.0000000
            P   4   1.00
                  0.779407D+02           0.931135D-02
                  0.180425D+02           0.663964D-01
                  0.542342D+01           0.246386D+00
                  0.184876D+01           0.500000D+00
            P   1   1.00
                  0.617455D+00           1.0000000
            P   1   1.00
                  0.185496D+00           1.0000000
            D   1   1.00
                  0.280000D+01           1.0000000
            D   1   1.00
                  0.800000D+00           1.0000000
            F   1   1.00
                  0.120000D+01           1.0000000
            ****
            -Cl     0
            S   8   1.00
                  0.154272D+06           0.222473D-03
                  0.231232D+05           0.172590D-02
                  0.526257D+04           0.899286D-02
                  0.148995D+04           0.367724D-01
                  0.485417D+03           0.121446D+00
                  0.174634D+03           0.304148D+00
                  0.672393D+02           0.500000D+00
                  0.265780D+02           0.360252D+00
            S   3   1.00
                  0.131826D+03          -0.531330D-01
                  0.400703D+02          -0.233346D+00
                  0.789448D+01           0.500000D+00
            S   2   1.00
                  0.427711D+01           0.500000D+00
                  0.196233D+01           0.370517D+00
            S   1   1.00
                  0.520793D+00           1.0000000
            S   1   1.00
                  0.181633D+00           1.0000000
            P   7   1.00
                  0.124440D+04           0.988206D-03
                  0.295109D+03           0.829674D-02
                  0.947224D+02           0.430906D-01
                  0.352588D+02           0.148443D+00
                  0.144211D+02           0.344744D+00
                  0.610371D+01           0.500000D+00
                  0.258886D+01           0.348278D+00
            P   2   1.00
                  0.109447D+02          -0.196768D-01
                  0.104413D+01           0.500000D+00
            P   1   1.00
                  0.376184D+00           1.0000000
            P   1   1.00
                  0.120613D+00           1.0000000
            D   1   1.00
                  0.231000D+01           1.0000000
            D   1   1.00
                  0.520000D+00           1.0000000
            F   1   1.00
                  0.720000D+00           1.0000000
            ****
            -S     0
            S   8   1.00
                  0.134700D+06           0.226231D-03
                  0.201904D+05           0.175488D-02
                  0.459528D+04           0.914190D-02
                  0.130109D+04           0.373551D-01
                  0.423902D+03           0.123121D+00
                  0.152485D+03           0.306801D+00
                  0.586925D+02           0.500000D+00
                  0.231461D+02           0.354358D+00
            S   3   1.00
                  0.116327D+03          -0.491772D-01
                  0.352841D+02          -0.215962D+00
                  0.677831D+01           0.500000D+00
            S   2   1.00
                  0.360404D+01           0.500000D+00
                  0.164871D+01           0.366278D+00
            S   1   1.00
                  0.421821D+00           1.0000000
            S   1   1.00
                  0.147554D+00           1.0000000
            P   7   1.00
                  0.104863D+04           0.105273D-02
                  0.248717D+03           0.879338D-02
                  0.797887D+02           0.453358D-01
                  0.296023D+02           0.154476D+00
                  0.120627D+02           0.352366D+00
                  0.507628D+01           0.500000D+00
                  0.213375D+01           0.346429D+00
            P   2   1.00
                  0.928958D+01          -0.185932D-01
                  0.837819D+00           0.500000D+00
            P   1   1.00
                  0.301495D+00           1.0000000
            P   1   1.00
                  0.974740D-01           1.0000000
            D   1   1.00
                  0.210000D+01           1.0000000
            D   1   1.00
                  0.480000D+00           1.0000000
            F   1   1.00
                  0.660000D+00           1.0000000
            ****
            -Br     0
            S    10   1.00
                  0.233625D+07           0.532336D-04
                  0.349961D+06           0.413715D-03
                  0.796444D+05           0.217123D-02
                  0.225555D+05           0.910109D-02
                  0.735546D+04           0.323789D-01
                  0.265352D+04           0.988755D-01
                  0.103517D+04           0.248138D+00
                  0.422205D+03           0.474328D+00
                  0.180035D+03           0.500000D+00
                  0.793308D+02           0.187769D+00
            S    4   1.00
                  0.620834D+03          -0.226511D-01
                  0.190829D+03          -0.109497D+00
                  0.312505D+02           0.500000D+00
                  0.135270D+02           0.492812D+00
            S    2   1.00
                  0.216097D+02          -0.165418D+00
                  0.372566D+01           0.500000D+00
            S    1   1.00
                  0.169770D+01           1.0000000
            S    1   1.00
                  0.489332D+00           1.0000000
            S    1   1.00
                  0.175712D+00           1.0000000
            P    8   1.00
                  0.960829D+04           0.478974D-03
                  0.227618D+04           0.417853D-02
                  0.736723D+03           0.229315D-01
                  0.281579D+03           0.892653D-01
                  0.118395D+03           0.255288D+00
                  0.527481D+02           0.479074D+00
                  0.245098D+02           0.500000D+00
                  0.112009D+02           0.200944D+00
            P    4   1.00
                  0.587849D+02          -0.189674D-01
                  0.918962D+01           0.264104D+00
                  0.413895D+01           0.500000D+00
                  0.184225D+01           0.319316D+00
            P    1   1.00
                  0.713862D+00           1.0000000
            P    1   1.00
                  0.274232D+00           1.0000000
            P    1   1.00
                  0.944411D-01           1.0000000
            D    7   1.00
                  0.398470D+03           0.204066D-02
                  0.118967D+03           0.175171D-01
                  0.450197D+02           0.829708D-01
                  0.190320D+02           0.236284D+00
                  0.855686D+01           0.428468D+00
                  0.382950D+01           0.500000D+00
                  0.166291D+01           0.349360D+00
            D    1   1.00
                  0.672953D+00           1.0000000
            D    1   1.00
                  0.252000D+00           1.0000000
            F    1   1.00
                  0.530000D+00           1.0000000
            ****
            -Si     0
            S    8   1.00
                  0.996133D+05           0.235546D-03
                  0.149311D+05           0.182707D-02
                  0.339820D+04           0.951425D-02
                  0.962140D+03           0.388172D-01
                  0.313430D+03           0.127328D+00
                  0.112683D+03           0.313522D+00
                  0.433372D+02           0.500000D+00
                  0.170029D+02           0.340347D+00
            S    3   1.00
                  0.884208D+02          -0.404451D-01
                  0.266756D+02          -0.178059D+00
                  0.479640D+01           0.500000D+00
            S    2   1.00
                  0.239385D+01           0.500000D+00
                  0.108333D+01           0.338016D+00
            S    1   1.00
                  0.252420D+00           1.0000000
            S    1   1.00
                  0.891210D-01           1.0000000
            P    7   1.00
                  0.709901D+03           0.123028D-02
                  0.168426D+03           0.101366D-01
                  0.539946D+02           0.511840D-01
                  0.198646D+02           0.169967D+00
                  0.801369D+01           0.370717D+00
                  0.331870D+01           0.500000D+00
                  0.136112D+01           0.344128D+00
            P    2   1.00
                  0.622158D+01          -0.166609D-01
                  0.503049D+00           0.500000D+00
            P    1   1.00
                  0.179848D+00           1.0000000
            P    1   1.00
                  0.591912D-01           1.0000000
            D    1   1.00
                  0.168000D+01           1.0000000
            D    1   1.00
                  0.380000D+00           1.0000000
            F    1   1.00
                  0.540000D+00           1.0000000
            ****
            -P     0
            S    8   1.00
                  0.116416D+06           0.230715D-03
                  0.174500D+05           0.178960D-02
                  0.397149D+04           0.932116D-02
                  0.112447D+04           0.380591D-01
                  0.366347D+03           0.125148D+00
                  0.131757D+03           0.310022D+00
                  0.506988D+02           0.500000D+00
                  0.199436D+02           0.347528D+00
            S    3   1.00
                  0.101878D+03          -0.446755D-01
                  0.308249D+02          -0.196376D+00
                  0.573688D+01           0.500000D+00
            S    2   1.00
                  0.296868D+01           0.500000D+00
                  0.135315D+01           0.355098D+00
            S    1   1.00
                  0.332196D+00           1.0000000
            S    1   1.00
                  0.116229D+00           1.0000000
            P    7   1.00
                  0.873928D+03           0.112375D-02
                  0.207298D+03           0.933330D-02
                  0.664628D+02           0.477213D-01
                  0.245665D+02           0.160733D+00
                  0.996820D+01           0.359760D+00
                  0.416536D+01           0.500000D+00
                  0.173022D+01           0.346593D+00
            P    2   1.00
                  0.772530D+01          -0.175718D-01
                  0.657252D+00           0.500000D+00
            P    1   1.00
                  0.239903D+00           1.0000000
            P    1   1.00
                  0.800988D-01           1.0000000
            D    1   1.00
                  0.189000D+01           1.0000000
            D    1   1.00
                  0.430000D+00           1.0000000
            F    1   1.00
                  0.600000D+00           1.0000000
            ****
            
 Initial command:
 /usr/local/apps/g16_b01_avx/g16/l1.exe "/wrk/irikura/Gau-9397.inp" -scrdir="/wrk/irikura/"
 Entering Link 1 = /usr/local/apps/g16_b01_avx/g16/l1.exe PID=      9400.
  
 Copyright (c) 1988-2017, Gaussian, Inc.  All Rights Reserved.
  
 This is part of the Gaussian(R) 16 program.  It is based on
 the Gaussian(R) 09 system (copyright 2009, Gaussian, Inc.),
 the Gaussian(R) 03 system (copyright 2003, Gaussian, Inc.),
 the Gaussian(R) 98 system (copyright 1998, Gaussian, Inc.),
 the Gaussian(R) 94 system (copyright 1995, Gaussian, Inc.),
 the Gaussian 92(TM) system (copyright 1992, Gaussian, Inc.),
 the Gaussian 90(TM) system (copyright 1990, Gaussian, Inc.),
 the Gaussian 88(TM) system (copyright 1988, Gaussian, Inc.),
 the Gaussian 86(TM) system (copyright 1986, Carnegie Mellon
 University), and the Gaussian 82(TM) system (copyright 1983,
 Carnegie Mellon University). Gaussian is a federally registered
 trademark of Gaussian, Inc.
  
 This software contains proprietary and confidential information,
 including trade secrets, belonging to Gaussian, Inc.
  
 This software is provided under written license and may be
 used, copied, transmitted, or stored only in accord with that
 written license.
  
 The following legend is applicable only to US Government
 contracts under FAR:
  
                    RESTRICTED RIGHTS LEGEND
  
 Use, reproduction and disclosure by the US Government is
 subject to restrictions as set forth in subparagraphs (a)
 and (c) of the Commercial Computer Software - Restricted
 Rights clause in FAR 52.227-19.
  
 Gaussian, Inc.
 340 Quinnipiac St., Bldg. 40, Wallingford CT 06492
  
  
 ---------------------------------------------------------------
 Warning -- This program may not be used in any manner that
 competes with the business of Gaussian, Inc. or will provide
 assistance to any competitor of Gaussian, Inc.  The licensee
 of this program is prohibited from giving any competitor of
 Gaussian, Inc. access to this program.  By using this program,
 the user acknowledges that Gaussian, Inc. is engaged in the
 business of creating and licensing software in the field of
 computational chemistry and represents and warrants to the
 licensee that it is not a competitor of Gaussian, Inc. and that
 it will not use this program in any manner prohibited above.
 ---------------------------------------------------------------
  

 Cite this work as:
 Gaussian 16, Revision B.01,
 M. J. Frisch, G. W. Trucks, H. B. Schlegel, G. E. Scuseria, 
 M. A. Robb, J. R. Cheeseman, G. Scalmani, V. Barone, 
 G. A. Petersson, H. Nakatsuji, X. Li, M. Caricato, A. V. Marenich, 
 J. Bloino, B. G. Janesko, R. Gomperts, B. Mennucci, H. P. Hratchian, 
 J. V. Ortiz, A. F. Izmaylov, J. L. Sonnenberg, D. Williams-Young, 
 F. Ding, F. Lipparini, F. Egidi, J. Goings, B. Peng, A. Petrone, 
 T. Henderson, D. Ranasinghe, V. G. Zakrzewski, J. Gao, N. Rega, 
 G. Zheng, W. Liang, M. Hada, M. Ehara, K. Toyota, R. Fukuda, 
 J. Hasegawa, M. Ishida, T. Nakajima, Y. Honda, O. Kitao, H. Nakai, 
 T. Vreven, K. Throssell, J. A. Montgomery, Jr., J. E. Peralta, 
 F. Ogliaro, M. J. Bearpark, J. J. Heyd, E. N. Brothers, K. N. Kudin, 
 V. N. Staroverov, T. A. Keith, R. Kobayashi, J. Normand, 
 K. Raghavachari, A. P. Rendell, J. C. Burant, S. S. Iyengar, 
 J. Tomasi, M. Cossi, J. M. Millam, M. Klene, C. Adamo, R. Cammi, 
 J. W. Ochterski, R. L. Martin, K. Morokuma, O. Farkas, 
 J. B. Foresman, and D. J. Fox, Gaussian, Inc., Wallingford CT, 2016.
 
 ******************************************
 Gaussian 16:  ES64L-G16RevB.01 20-Dec-2017
                15-Jun-2022 
 ******************************************
 %mem=500mw
 %nprocs=4
 Will use up to    4 processors via shared memory.
 --------------------
 # b3lyp/gen opt freq
 --------------------
 1/18=20,19=15,26=3,38=1/1,3;
 2/9=110,12=2,17=6,18=5,40=1/2;
 3/5=7,11=2,25=1,30=1,71=1,74=-5/1,2,3;
 4//1;
 5/5=2,38=5/2;
 6/7=2,8=2,9=2,10=2,28=1/1;
 7//1,2,3,16;
 1/18=20,19=15,26=3/3(2);
 2/9=110/2;
 99//99;
 2/9=110/2;
 3/5=7,6=1,11=2,25=1,30=1,71=1,74=-5,82=7/1,2,3;
 4/5=5,16=3,69=1/1;
 5/5=2,38=5/2;
 7//1,2,3,16;
 1/18=20,19=15,26=3/3(-5);
 2/9=110/2;
 6/7=2,8=2,9=2,10=2,19=2,28=1/1;
 99/9=1/99;
 --------------------------------
 fluoromethylidyne, B3LYP/pcseg-2
 --------------------------------
 Symbolic Z-matrix:
 Charge =  0 Multiplicity = 2
 C
 F                    1    r
       Variables:
  r                     1.3                      
 

 GradGradGradGradGradGradGradGradGradGradGradGradGradGradGradGradGradGrad
 Berny optimization.
 Initialization pass.
                           ----------------------------
                           !    Initial Parameters    !
                           ! (Angstroms and Degrees)  !
 --------------------------                            --------------------------
 ! Name  Definition              Value          Derivative Info.                !
 --------------------------------------------------------------------------------
 ! R1    R(1,2)                  1.3            estimate D2E/DX2                !
 --------------------------------------------------------------------------------
 Trust Radius=3.00D-01 FncErr=1.00D-07 GrdErr=1.00D-06 EigMax=2.50D+02 EigMin=1.00D-04
 Number of steps in this run=     20 maximum allowed number of steps=    100.
 GradGradGradGradGradGradGradGradGradGradGradGradGradGradGradGradGradGrad

                          Input orientation:                          
 ---------------------------------------------------------------------
 Center     Atomic      Atomic             Coordinates (Angstroms)
 Number     Number       Type             X           Y           Z
 ---------------------------------------------------------------------
      1          6           0        0.000000    0.000000    0.000000
      2          9           0        0.000000    0.000000    1.300000
 ---------------------------------------------------------------------
 Stoichiometry    CF(2)
 Framework group  C*V[C*(CF)]
 Deg. of freedom     1
 Full point group                 C*V     NOp   4
 Largest Abelian subgroup         C2V     NOp   4
 Largest concise Abelian subgroup C1      NOp   1
                         Standard orientation:                         
 ---------------------------------------------------------------------
 Center     Atomic      Atomic             Coordinates (Angstroms)
 Number     Number       Type             X           Y           Z
 ---------------------------------------------------------------------
      1          6           0        0.000000    0.000000   -0.780000
      2          9           0        0.000000    0.000000    0.520000
 ---------------------------------------------------------------------
 Rotational constants (GHZ):           0.0000000          40.6603836          40.6603836
 General basis read from cards:  (5D, 7F)
 There are    32 symmetry adapted cartesian basis functions of A1  symmetry.
 There are     6 symmetry adapted cartesian basis functions of A2  symmetry.
 There are    16 symmetry adapted cartesian basis functions of B1  symmetry.
 There are    16 symmetry adapted cartesian basis functions of B2  symmetry.
 There are    26 symmetry adapted basis functions of A1  symmetry.
 There are     6 symmetry adapted basis functions of A2  symmetry.
 There are    14 symmetry adapted basis functions of B1  symmetry.
 There are    14 symmetry adapted basis functions of B2  symmetry.
    60 basis functions,   102 primitive gaussians,    70 cartesian basis functions
     8 alpha electrons        7 beta electrons
       nuclear repulsion energy        21.9812072228 Hartrees.
 NAtoms=    2 NActive=    2 NUniq=    2 SFac= 1.00D+00 NAtFMM=   60 NAOKFM=F Big=F
 Integral buffers will be    131072 words long.
 Raffenetti 2 integral format.
 Two-electron integral symmetry is turned on.
 One-electron integrals computed using PRISM.
 NBasis=    60 RedAO= T EigKep=  4.26D-03  NBF=    26     6    14    14
 NBsUse=    60 1.00D-06 EigRej= -1.00D+00 NBFU=    26     6    14    14
 ExpMin= 8.49D-02 ExpMax= 1.75D+04 ExpMxC= 5.96D+02 IAcc=3 IRadAn=         5 AccDes= 0.00D+00
 Harris functional with IExCor=  402 and IRadAn=       5 diagonalized for initial guess.
 HarFok:  IExCor=  402 AccDes= 0.00D+00 IRadAn=         5 IDoV= 1 UseB2=F ITyADJ=14
 ICtDFT=  3500011 ScaDFX=  1.000000  1.000000  1.000000  1.000000
 FoFCou: FMM=F IPFlag=           0 FMFlag=      100000 FMFlg1=           0
         NFxFlg=           0 DoJE=T BraDBF=F KetDBF=T FulRan=T
         wScrn=  0.000000 ICntrl=       500 IOpCl=  0 I1Cent=   200000004 NGrid=           0
         NMat0=    1 NMatS0=      1 NMatT0=    0 NMatD0=    1 NMtDS0=    0 NMtDT0=    0
 Petite list used in FoFCou.
 Initial guess orbital symmetries:
 Alpha Orbitals:
       Occupied  (SG) (SG) (SG) (SG) (PI) (PI) (SG) (PI)
       Virtual   (PI) (SG) (SG) (PI) (PI) (SG) (SG) (PI) (PI) (SG)
                 (DLTA) (DLTA) (PI) (PI) (SG) (PI) (PI) (SG) (DLTA)
                 (DLTA) (SG) (PI) (PI) (SG) (PI) (PI) (DLTA) (DLTA)
                 (PHI) (PHI) (SG) (PI) (PI) (SG) (DLTA) (DLTA)
                 (SG) (PI) (PI) (PHI) (PHI) (DLTA) (DLTA) (SG)
                 (PI) (PI) (SG) (DLTA) (DLTA) (PI) (PI) (SG)
 Beta  Orbitals:
       Occupied  (SG) (SG) (SG) (SG) (PI) (PI) (SG)
       Virtual   (PI) (PI) (SG) (SG) (PI) (PI) (SG) (SG) (PI) (PI)
                 (SG) (DLTA) (DLTA) (PI) (PI) (SG) (PI) (PI) (SG)
                 (DLTA) (DLTA) (SG) (PI) (PI) (SG) (PI) (PI) (DLTA)
                 (DLTA) (PHI) (PHI) (SG) (PI) (PI) (SG) (DLTA)
                 (DLTA) (SG) (PI) (PI) (PHI) (PHI) (DLTA) (DLTA)
                 (SG) (PI) (PI) (SG) (DLTA) (DLTA) (PI) (PI) (SG)
 Initial guess <Sx>= 0.0000 <Sy>= 0.0000 <Sz>= 0.5000 <S**2>= 0.7500 S= 0.5000
 Keep R1 and R2 ints in memory in symmetry-blocked form, NReq=5255373.
 Requested convergence on RMS density matrix=1.00D-08 within 128 cycles.
 Requested convergence on MAX density matrix=1.00D-06.
 Requested convergence on             energy=1.00D-06.
 No special actions if energy rises.
 Integral accuracy reduced to 1.0D-05 until final iterations.
 Initial convergence to 1.0D-05 achieved.  Increase integral accuracy.
 SCF Done:  E(UB3LYP) =  -137.840590645     A.U. after   12 cycles
            NFock= 12  Conv=0.69D-08     -V/T= 2.0029
 <Sx>= 0.0000 <Sy>= 0.0000 <Sz>= 0.5000 <S**2>= 0.7535 S= 0.5018
 <L.S>=  0.00000000000    
 Annihilation of the first spin contaminant:
 S**2 before annihilation     0.7535,   after     0.7500

 **********************************************************************

            Population analysis using the SCF Density.

 **********************************************************************

 Orbital symmetries:
 Alpha Orbitals:
       Occupied  (SG) (SG) (SG) (SG) (PI) (PI) (SG) (?A)
       Virtual   (?A) (SG) (SG) (?A) (?A) (SG) (SG) (PI) (PI) (?B)
                 (?B) (?B) (PI) (PI) (SG) (PI) (PI) (SG) (DLTA)
                 (DLTA) (SG) (PI) (PI) (SG) (PI) (PI) (DLTA) (DLTA)
                 (PHI) (PHI) (SG) (PI) (PI) (?C) (?C) (?C) (SG)
                 (PI) (PI) (PHI) (PHI) (DLTA) (DLTA) (SG) (PI)
                 (PI) (SG) (DLTA) (DLTA) (PI) (PI) (SG)
 Beta  Orbitals:
       Occupied  (SG) (SG) (SG) (SG) (PI) (PI) (SG)
       Virtual   (?A) (?A) (SG) (SG) (?A) (?A) (SG) (SG) (PI) (PI)
                 (SG) (?B) (?B) (PI) (PI) (?B) (PI) (PI) (SG) (DLTA)
                 (DLTA) (SG) (PI) (PI) (SG) (PI) (PI) (?C) (?C)
                 (PHI) (PHI) (?C) (PI) (PI) (?D) (?D) (?D) (?D)
                 (PI) (PI) (PHI) (PHI) (DLTA) (DLTA) (SG) (PI)
                 (PI) (SG) (DLTA) (DLTA) (PI) (PI) (SG)
 Unable to determine electronic state:  an orbital has unidentified symmetry.
 Alpha  occ. eigenvalues --  -24.78205 -10.33161  -1.32023  -0.69758  -0.55297
 Alpha  occ. eigenvalues --   -0.54131  -0.42470  -0.22838
 Alpha virt. eigenvalues --   -0.12033   0.07429   0.14945   0.16110   0.17137
 Alpha virt. eigenvalues --    0.29659   0.38766   0.46385   0.46572   0.79386
 Alpha virt. eigenvalues --    0.87962   0.88508   1.00968   1.01402   1.14874
 Alpha virt. eigenvalues --    1.17995   1.20469   1.37059   1.78764   1.78819
 Alpha virt. eigenvalues --    1.95813   2.16319   2.16502   2.26834   2.76905
 Alpha virt. eigenvalues --    2.77057   3.24159   3.24540   3.25743   3.25962
 Alpha virt. eigenvalues --    3.40214   3.58721   3.59365   3.86105   3.87993
 Alpha virt. eigenvalues --    3.89357   4.08157   4.17236   4.18248   4.31640
 Alpha virt. eigenvalues --    4.31645   4.65471   4.65588   5.17338   5.33135
 Alpha virt. eigenvalues --    5.33207   5.78496   7.45589   7.45620   7.91713
 Alpha virt. eigenvalues --    7.91816   8.09692
  Beta  occ. eigenvalues --  -24.77773 -10.31577  -1.31093  -0.67774  -0.53830
  Beta  occ. eigenvalues --   -0.52090  -0.38912
  Beta virt. eigenvalues --   -0.10469  -0.06211   0.07960   0.16048   0.17552
  Beta virt. eigenvalues --    0.19303   0.31314   0.38972   0.46383   0.47207
  Beta virt. eigenvalues --    0.79527   0.92736   0.92779   1.01732   1.04814
  Beta virt. eigenvalues --    1.15960   1.21574   1.25430   1.39552   1.79529
  Beta virt. eigenvalues --    1.79535   1.97512   2.16519   2.18293   2.27483
  Beta virt. eigenvalues --    2.77275   2.78886   3.27347   3.27439   3.31900
  Beta virt. eigenvalues --    3.31930   3.41298   3.59701   3.62552   3.88109
  Beta virt. eigenvalues --    3.95869   3.96062   4.09858   4.18598   4.22497
  Beta virt. eigenvalues --    4.32166   4.32167   4.66555   4.66575   5.18135
  Beta virt. eigenvalues --    5.33528   5.35879   5.79421   7.46891   7.46894
  Beta virt. eigenvalues --    7.91828   7.93251   8.10171
          Condensed to atoms (all electrons):
               1          2
     1  C    5.790982   0.095607
     2  F    0.095607   9.017803
          Atomic-Atomic Spin Densities.
               1          2
     1  C    1.092753  -0.139272
     2  F   -0.139272   0.185790
 Mulliken charges and spin densities:
               1          2
     1  C    0.113411   0.953481
     2  F   -0.113411   0.046519
 Sum of Mulliken charges =  -0.00000   1.00000
 Mulliken charges and spin densities with hydrogens summed into heavy atoms:
               1          2
     1  C    0.113411   0.953481
     2  F   -0.113411   0.046519
 Electronic spatial extent (au):  <R**2>=             46.7095
 Charge=             -0.0000 electrons
 Dipole moment (field-independent basis, Debye):
    X=              0.0000    Y=              0.0000    Z=              0.5986  Tot=              0.5986
 Quadrupole moment (field-independent basis, Debye-Ang):
   XX=             -9.7533   YY=            -11.5031   ZZ=            -12.3467
   XY=              0.0000   XZ=              0.0000   YZ=              0.0000
 Traceless Quadrupole moment (field-independent basis, Debye-Ang):
   XX=              1.4477   YY=             -0.3021   ZZ=             -1.1456
   XY=              0.0000   XZ=              0.0000   YZ=              0.0000
 Octapole moment (field-independent basis, Debye-Ang**2):
  XXX=              0.0000  YYY=              0.0000  ZZZ=              9.7376  XYY=              0.0000
  XXY=              0.0000  XXZ=              1.9149  XZZ=              0.0000  YZZ=              0.0000
  YYZ=              3.4406  XYZ=              0.0000
 Hexadecapole moment (field-independent basis, Debye-Ang**3):
 XXXX=             -8.4335 YYYY=            -12.4734 ZZZZ=            -44.4337 XXXY=              0.0000
 XXXZ=              0.0000 YYYX=              0.0000 YYYZ=              0.0000 ZZZX=              0.0000
 ZZZY=              0.0000 XXYY=             -3.4840 XXZZ=             -8.0957 YYZZ=            -10.1194
 XXYZ=              0.0000 YYXZ=              0.0000 ZZXY=              0.0000
 N-N= 2.198120722283D+01 E-N=-3.705481884200D+02  KE= 1.374431976388D+02
 Symmetry A1   KE= 1.236019510134D+02
 Symmetry A2   KE= 3.828797175301D-35
 Symmetry B1   KE= 5.962971747263D+00
 Symmetry B2   KE= 7.878274878152D+00
 Symmetry A1   SP=-2.181123391707D-15
 Symmetry A2   SP=-1.075579527411D-35
 Symmetry B1   SP= 5.635547367308D-16
 Symmetry B2   SP= 1.000000000000D+00
                          Isotropic Fermi Contact Couplings
        Atom                 a.u.       MegaHertz       Gauss      10(-4) cm-1
     1  C(13)              0.11716     131.71441      46.99898      43.93520
     2  F(19)              0.05169     217.49620      77.60805      72.54892
 --------------------------------------------------------
       Center         ----  Spin Dipole Couplings  ----
                      3XX-RR        3YY-RR        3ZZ-RR
 --------------------------------------------------------
     1   Atom       -0.720228      1.472296     -0.752069
     2   Atom       -0.565492      1.014854     -0.449361
 --------------------------------------------------------
                        XY            XZ            YZ
 --------------------------------------------------------
     1   Atom        0.000000      0.000000      0.000000
     2   Atom        0.000000      0.000000      0.000000
 --------------------------------------------------------


 ---------------------------------------------------------------------------------
              Anisotropic Spin Dipole Couplings in Principal Axis System
 ---------------------------------------------------------------------------------

       Atom             a.u.   MegaHertz   Gauss  10(-4) cm-1        Axes

              Baa    -0.7521  -100.920   -36.011   -33.663  0.0000  0.0000  1.0000
     1 C(13)  Bbb    -0.7202   -96.648   -34.486   -32.238  1.0000  0.0000  0.0000
              Bcc     1.4723   197.568    70.497    65.902 -0.0000  1.0000  0.0000
 
              Baa    -0.5655  -284.005  -101.340   -94.734  1.0000  0.0000  0.0000
     2 F(19)  Bbb    -0.4494  -225.681   -80.529   -75.279  0.0000  0.0000  1.0000
              Bcc     1.0149   509.686   181.868   170.013 -0.0000  1.0000  0.0000
 

 ---------------------------------------------------------------------------------

 Calling FoFJK, ICntrl=      2127 FMM=F ISym2X=1 I1Cent= 0 IOpClX= 1 NMat=1 NMatS=1 NMatT=0.
 ***** Axes restored to original set *****
 -------------------------------------------------------------------
 Center     Atomic                   Forces (Hartrees/Bohr)
 Number     Number              X              Y              Z
 -------------------------------------------------------------------
      1        6          -0.000000000   -0.000000000    0.019730090
      2        9          -0.000000000   -0.000000000   -0.019730090
 -------------------------------------------------------------------
 Cartesian Forces:  Max     0.019730090 RMS     0.011391173

 GradGradGradGradGradGradGradGradGradGradGradGradGradGradGradGradGradGrad
 Berny optimization.
 FormGI is forming the generalized inverse of G from B-inverse, IUseBI=4.
 Internal  Forces:  Max     0.019730090 RMS     0.019730090
 Search for a local minimum.
 Step number   1 out of a maximum of   20
 All quantities printed in internal units (Hartrees-Bohrs-Radians)
 Mixed Optimization -- RFO/linear search
 Second derivative matrix not updated -- first step.
 The second derivative matrix:
                          R1
           R1           0.67193
 ITU=  0
     Eigenvalues ---    0.67193
 RFO step:  Lambda=-5.78840970D-04 EMin= 6.71931351D-01
 Linear search not attempted -- first point.
 Iteration  1 RMS(Cart)=  0.02074508 RMS(Int)=  0.00000000
 Iteration  2 RMS(Cart)=  0.00000000 RMS(Int)=  0.00000000
 ClnCor:  largest displacement from symmetrization is 0.00D+00 for atom     0.
 Variable       Old X    -DE/DX   Delta X   Delta X   Delta X     New X
                                 (Linear)    (Quad)   (Total)
    R1        2.45664  -0.01973   0.00000  -0.02934  -0.02934   2.42731
         Item               Value     Threshold  Converged?
 Maximum Force            0.019730     0.000450     NO 
 RMS     Force            0.019730     0.000300     NO 
 Maximum Displacement     0.014669     0.001800     NO 
 RMS     Displacement     0.020745     0.001200     NO 
 Predicted change in Energy=-2.896696D-04
 GradGradGradGradGradGradGradGradGradGradGradGradGradGradGradGradGradGrad

                          Input orientation:                          
 ---------------------------------------------------------------------
 Center     Atomic      Atomic             Coordinates (Angstroms)
 Number     Number       Type             X           Y           Z
 ---------------------------------------------------------------------
      1          6           0        0.000000    0.000000    0.007762
      2          9           0        0.000000    0.000000    1.292238
 ---------------------------------------------------------------------
 Stoichiometry    CF(2)
 Framework group  C*V[C*(CF)]
 Deg. of freedom     1
 Full point group                 C*V     NOp   4
 Largest Abelian subgroup         C2V     NOp   4
 Largest concise Abelian subgroup C1      NOp   1
                         Standard orientation:                         
 ---------------------------------------------------------------------
 Center     Atomic      Atomic             Coordinates (Angstroms)
 Number     Number       Type             X           Y           Z
 ---------------------------------------------------------------------
      1          6           0        0.000000    0.000000   -0.770685
      2          9           0        0.000000    0.000000    0.513790
 ---------------------------------------------------------------------
 Rotational constants (GHZ):           0.0000000          41.6492185          41.6492185
 Basis read from rwf:  (5D, 7F)
 There are    32 symmetry adapted cartesian basis functions of A1  symmetry.
 There are     6 symmetry adapted cartesian basis functions of A2  symmetry.
 There are    16 symmetry adapted cartesian basis functions of B1  symmetry.
 There are    16 symmetry adapted cartesian basis functions of B2  symmetry.
 There are    26 symmetry adapted basis functions of A1  symmetry.
 There are     6 symmetry adapted basis functions of A2  symmetry.
 There are    14 symmetry adapted basis functions of B1  symmetry.
 There are    14 symmetry adapted basis functions of B2  symmetry.
    60 basis functions,   102 primitive gaussians,    70 cartesian basis functions
     8 alpha electrons        7 beta electrons
       nuclear repulsion energy        22.2468862120 Hartrees.
 NAtoms=    2 NActive=    2 NUniq=    2 SFac= 1.00D+00 NAtFMM=   60 NAOKFM=F Big=F
 Integral buffers will be    131072 words long.
 Raffenetti 2 integral format.
 Two-electron integral symmetry is turned on.
 One-electron integrals computed using PRISM.
 NBasis=    60 RedAO= T EigKep=  4.03D-03  NBF=    26     6    14    14
 NBsUse=    60 1.00D-06 EigRej= -1.00D+00 NBFU=    26     6    14    14
 Initial guess from the checkpoint file:  "/wrk/irikura/Gau-9400.chk"
 B after Tr=     0.000000    0.000000    0.000000
         Rot=    1.000000    0.000000    0.000000    0.000000 Ang=   0.00 deg.
 Initial guess orbital symmetries:
 Alpha Orbitals:
       Occupied  (SG) (SG) (SG) (SG) (PI) (PI) (SG) (?A)
       Virtual   (?A) (SG) (SG) (?A) (?A) (SG) (SG) (PI) (PI) (?B)
                 (?B) (?B) (PI) (PI) (SG) (PI) (PI) (SG) (DLTA)
                 (DLTA) (SG) (PI) (PI) (SG) (PI) (PI) (DLTA) (DLTA)
                 (PHI) (PHI) (SG) (PI) (PI) (?C) (?C) (?C) (SG)
                 (PI) (PI) (PHI) (PHI) (DLTA) (DLTA) (SG) (PI)
                 (PI) (SG) (DLTA) (DLTA) (PI) (PI) (SG)
 Beta  Orbitals:
       Occupied  (SG) (SG) (SG) (SG) (PI) (PI) (SG)
       Virtual   (?A) (?A) (SG) (SG) (?A) (?A) (SG) (SG) (PI) (PI)
                 (SG) (?B) (?B) (PI) (PI) (?B) (PI) (PI) (SG) (DLTA)
                 (DLTA) (SG) (PI) (PI) (SG) (PI) (PI) (?C) (?C)
                 (PHI) (PHI) (?C) (PI) (PI) (?D) (?D) (?D) (?D)
                 (PI) (PI) (PHI) (PHI) (DLTA) (DLTA) (SG) (PI)
                 (PI) (SG) (DLTA) (DLTA) (PI) (PI) (SG)
 Initial guess <Sx>= 0.0000 <Sy>= 0.0000 <Sz>= 0.5000 <S**2>= 0.7535 S= 0.5018
 Keep R1 and R2 ints in memory in symmetry-blocked form, NReq=5255373.
 Requested convergence on RMS density matrix=1.00D-08 within 128 cycles.
 Requested convergence on MAX density matrix=1.00D-06.
 Requested convergence on             energy=1.00D-06.
 No special actions if energy rises.
 EnCoef did     5 forward-backward iterations
 SCF Done:  E(UB3LYP) =  -137.840994450     A.U. after    9 cycles
            NFock=  9  Conv=0.41D-08     -V/T= 2.0027
 <Sx>= 0.0000 <Sy>= 0.0000 <Sz>= 0.5000 <S**2>= 0.7535 S= 0.5017
 <L.S>=  0.00000000000    
 Annihilation of the first spin contaminant:
 S**2 before annihilation     0.7535,   after     0.7500
 Calling FoFJK, ICntrl=      2127 FMM=F ISym2X=1 I1Cent= 0 IOpClX= 1 NMat=1 NMatS=1 NMatT=0.
 ***** Axes restored to original set *****
 -------------------------------------------------------------------
 Center     Atomic                   Forces (Hartrees/Bohr)
 Number     Number              X              Y              Z
 -------------------------------------------------------------------
      1        6          -0.000000000   -0.000000000    0.007573963
      2        9          -0.000000000   -0.000000000   -0.007573963
 -------------------------------------------------------------------
 Cartesian Forces:  Max     0.007573963 RMS     0.004372829

 GradGradGradGradGradGradGradGradGradGradGradGradGradGradGradGradGradGrad
 Berny optimization.
 Using GEDIIS/GDIIS optimizer.
 Internal  Forces:  Max     0.007573963 RMS     0.007573963
 Search for a local minimum.
 Step number   2 out of a maximum of   20
 All quantities printed in internal units (Hartrees-Bohrs-Radians)
 Mixed Optimization -- RFO/linear search
 Update second derivatives using D2CorX and points    1    2
 DE= -4.04D-04 DEPred=-2.90D-04 R= 1.39D+00
 TightC=F SS=  1.41D+00  RLast= 2.93D-02 DXNew= 5.0454D-01 8.8014D-02
 Trust test= 1.39D+00 RLast= 2.93D-02 DXMaxT set to 3.00D-01
 The second derivative matrix:
                          R1
           R1           0.41435
 ITU=  1  0
 Use linear search instead of GDIIS.
     Eigenvalues ---    0.41435
 RFO step:  Lambda= 0.00000000D+00 EMin= 4.14347804D-01
 Quartic linear search produced a step of  0.57238.
 Iteration  1 RMS(Cart)=  0.01187411 RMS(Int)=  0.00000000
 Iteration  2 RMS(Cart)=  0.00000000 RMS(Int)=  0.00000000
 ClnCor:  largest displacement from symmetrization is 0.00D+00 for atom     0.
 Variable       Old X    -DE/DX   Delta X   Delta X   Delta X     New X
                                 (Linear)    (Quad)   (Total)
    R1        2.42731  -0.00757  -0.01679  -0.00000  -0.01679   2.41051
         Item               Value     Threshold  Converged?
 Maximum Force            0.007574     0.000450     NO 
 RMS     Force            0.007574     0.000300     NO 
 Maximum Displacement     0.008396     0.001800     NO 
 RMS     Displacement     0.011874     0.001200     NO 
 Predicted change in Energy=-6.876522D-05
 GradGradGradGradGradGradGradGradGradGradGradGradGradGradGradGradGradGrad

                          Input orientation:                          
 ---------------------------------------------------------------------
 Center     Atomic      Atomic             Coordinates (Angstroms)
 Number     Number       Type             X           Y           Z
 ---------------------------------------------------------------------
      1          6           0        0.000000    0.000000    0.012206
      2          9           0        0.000000    0.000000    1.287794
 ---------------------------------------------------------------------
 Stoichiometry    CF(2)
 Framework group  C*V[C*(CF)]
 Deg. of freedom     1
 Full point group                 C*V     NOp   4
 Largest Abelian subgroup         C2V     NOp   4
 Largest concise Abelian subgroup C1      NOp   1
                         Standard orientation:                         
 ---------------------------------------------------------------------
 Center     Atomic      Atomic             Coordinates (Angstroms)
 Number     Number       Type             X           Y           Z
 ---------------------------------------------------------------------
      1          6           0        0.000000    0.000000   -0.765353
      2          9           0        0.000000    0.000000    0.510236
 ---------------------------------------------------------------------
 Rotational constants (GHZ):           0.0000000          42.2315276          42.2315276
 Basis read from rwf:  (5D, 7F)
 There are    32 symmetry adapted cartesian basis functions of A1  symmetry.
 There are     6 symmetry adapted cartesian basis functions of A2  symmetry.
 There are    16 symmetry adapted cartesian basis functions of B1  symmetry.
 There are    16 symmetry adapted cartesian basis functions of B2  symmetry.
 There are    26 symmetry adapted basis functions of A1  symmetry.
 There are     6 symmetry adapted basis functions of A2  symmetry.
 There are    14 symmetry adapted basis functions of B1  symmetry.
 There are    14 symmetry adapted basis functions of B2  symmetry.
    60 basis functions,   102 primitive gaussians,    70 cartesian basis functions
     8 alpha electrons        7 beta electrons
       nuclear repulsion energy        22.4018662704 Hartrees.
 NAtoms=    2 NActive=    2 NUniq=    2 SFac= 1.00D+00 NAtFMM=   60 NAOKFM=F Big=F
 Integral buffers will be    131072 words long.
 Raffenetti 2 integral format.
 Two-electron integral symmetry is turned on.
 One-electron integrals computed using PRISM.
 NBasis=    60 RedAO= T EigKep=  3.90D-03  NBF=    26     6    14    14
 NBsUse=    60 1.00D-06 EigRej= -1.00D+00 NBFU=    26     6    14    14
 Initial guess from the checkpoint file:  "/wrk/irikura/Gau-9400.chk"
 B after Tr=     0.000000    0.000000   -0.000000
         Rot=    1.000000    0.000000    0.000000    0.000000 Ang=   0.00 deg.
 Initial guess orbital symmetries:
 Alpha Orbitals:
       Occupied  (SG) (SG) (SG) (SG) (PI) (PI) (SG) (?A)
       Virtual   (?A) (SG) (SG) (?A) (?A) (SG) (SG) (PI) (PI) (?B)
                 (?B) (?B) (PI) (PI) (SG) (PI) (PI) (SG) (DLTA)
                 (DLTA) (SG) (PI) (PI) (SG) (PI) (PI) (DLTA) (DLTA)
                 (PHI) (PHI) (SG) (PI) (PI) (?C) (?C) (?C) (SG)
                 (PI) (PI) (PHI) (PHI) (DLTA) (DLTA) (SG) (PI)
                 (PI) (SG) (DLTA) (DLTA) (PI) (PI) (SG)
 Beta  Orbitals:
       Occupied  (SG) (SG) (SG) (SG) (PI) (PI) (SG)
       Virtual   (?A) (?A) (SG) (SG) (?A) (?A) (SG) (SG) (PI) (PI)
                 (SG) (?B) (?B) (PI) (PI) (?B) (PI) (PI) (SG) (DLTA)
                 (DLTA) (SG) (PI) (PI) (SG) (PI) (PI) (?C) (?C)
                 (PHI) (PHI) (?C) (PI) (PI) (?D) (?D) (?D) (?D)
                 (PI) (PI) (PHI) (PHI) (DLTA) (DLTA) (SG) (PI)
                 (PI) (SG) (DLTA) (DLTA) (PI) (PI) (SG)
 Initial guess <Sx>= 0.0000 <Sy>= 0.0000 <Sz>= 0.5000 <S**2>= 0.7535 S= 0.5017
 Keep R1 and R2 ints in memory in symmetry-blocked form, NReq=5255373.
 Requested convergence on RMS density matrix=1.00D-08 within 128 cycles.
 Requested convergence on MAX density matrix=1.00D-06.
 Requested convergence on             energy=1.00D-06.
 No special actions if energy rises.
 EnCoef did     1 forward-backward iterations
 SCF Done:  E(UB3LYP) =  -137.841058623     A.U. after    8 cycles
            NFock=  8  Conv=0.85D-08     -V/T= 2.0025
 <Sx>= 0.0000 <Sy>= 0.0000 <Sz>= 0.5000 <S**2>= 0.7535 S= 0.5017
 <L.S>=  0.00000000000    
 Annihilation of the first spin contaminant:
 S**2 before annihilation     0.7535,   after     0.7500
 Calling FoFJK, ICntrl=      2127 FMM=F ISym2X=1 I1Cent= 0 IOpClX= 1 NMat=1 NMatS=1 NMatT=0.
 ***** Axes restored to original set *****
 -------------------------------------------------------------------
 Center     Atomic                   Forces (Hartrees/Bohr)
 Number     Number              X              Y              Z
 -------------------------------------------------------------------
      1        6          -0.000000000   -0.000000000   -0.000010179
      2        9          -0.000000000   -0.000000000    0.000010179
 -------------------------------------------------------------------
 Cartesian Forces:  Max     0.000010179 RMS     0.000005877

 GradGradGradGradGradGradGradGradGradGradGradGradGradGradGradGradGradGrad
 Berny optimization.
 Using GEDIIS/GDIIS optimizer.
 Internal  Forces:  Max     0.000010179 RMS     0.000010179
 Search for a local minimum.
 Step number   3 out of a maximum of   20
 All quantities printed in internal units (Hartrees-Bohrs-Radians)
 Mixed Optimization -- En-DIIS/RFO-DIIS
 Update second derivatives using D2CorX and points    2    3
 DE= -6.42D-05 DEPred=-6.88D-05 R= 9.33D-01
 TightC=F SS=  1.41D+00  RLast= 1.68D-02 DXNew= 5.0454D-01 5.0378D-02
 Trust test= 9.33D-01 RLast= 1.68D-02 DXMaxT set to 3.00D-01
 The second derivative matrix:
                          R1
           R1           0.45164
 ITU=  1  1
 Use linear search instead of GDIIS.
     Eigenvalues ---    0.45164
 RFO step:  Lambda= 0.00000000D+00 EMin= 4.51637793D-01
 Quartic linear search produced a step of -0.00130.
 Iteration  1 RMS(Cart)=  0.00001545 RMS(Int)=  0.00000000
 Iteration  2 RMS(Cart)=  0.00000000 RMS(Int)=  0.00000000
 ClnCor:  largest displacement from symmetrization is 0.00D+00 for atom     0.
 Variable       Old X    -DE/DX   Delta X   Delta X   Delta X     New X
                                 (Linear)    (Quad)   (Total)
    R1        2.41051   0.00001   0.00002  -0.00000   0.00002   2.41054
         Item               Value     Threshold  Converged?
 Maximum Force            0.000010     0.000450     YES
 RMS     Force            0.000010     0.000300     YES
 Maximum Displacement     0.000011     0.001800     YES
 RMS     Displacement     0.000015     0.001200     YES
 Predicted change in Energy=-1.145924D-10
 Optimization completed.
    -- Stationary point found.
                           ----------------------------
                           !   Optimized Parameters   !
                           ! (Angstroms and Degrees)  !
 --------------------------                            --------------------------
 ! Name  Definition              Value          Derivative Info.                !
 --------------------------------------------------------------------------------
 ! R1    R(1,2)                  1.2756         -DE/DX =    0.0                 !
 --------------------------------------------------------------------------------
 GradGradGradGradGradGradGradGradGradGradGradGradGradGradGradGradGradGrad

                          Input orientation:                          
 ---------------------------------------------------------------------
 Center     Atomic      Atomic             Coordinates (Angstroms)
 Number     Number       Type             X           Y           Z
 ---------------------------------------------------------------------
      1          6           0        0.000000    0.000000    0.012206
      2          9           0        0.000000    0.000000    1.287794
 ---------------------------------------------------------------------
 Stoichiometry    CF(2)
 Framework group  C*V[C*(CF)]
 Deg. of freedom     1
 Full point group                 C*V     NOp   4
 Largest Abelian subgroup         C2V     NOp   4
 Largest concise Abelian subgroup C1      NOp   1
                         Standard orientation:                         
 ---------------------------------------------------------------------
 Center     Atomic      Atomic             Coordinates (Angstroms)
 Number     Number       Type             X           Y           Z
 ---------------------------------------------------------------------
      1          6           0        0.000000    0.000000   -0.765353
      2          9           0        0.000000    0.000000    0.510236
 ---------------------------------------------------------------------
 Rotational constants (GHZ):           0.0000000          42.2315276          42.2315276

 **********************************************************************

            Population analysis using the SCF Density.

 **********************************************************************

 Orbital symmetries:
 Alpha Orbitals:
       Occupied  (SG) (SG) (SG) (SG) (PI) (PI) (SG) (?A)
       Virtual   (?A) (SG) (SG) (?A) (?A) (SG) (SG) (PI) (PI) (?B)
                 (?B) (?B) (PI) (PI) (SG) (PI) (PI) (SG) (DLTA)
                 (DLTA) (SG) (PI) (PI) (SG) (PI) (PI) (DLTA) (DLTA)
                 (PHI) (PHI) (SG) (PI) (PI) (?C) (?C) (?C) (SG)
                 (PI) (PI) (PHI) (PHI) (DLTA) (DLTA) (SG) (PI)
                 (PI) (SG) (DLTA) (DLTA) (PI) (PI) (SG)
 Beta  Orbitals:
       Occupied  (SG) (SG) (SG) (SG) (PI) (PI) (SG)
       Virtual   (?A) (?A) (SG) (SG) (?A) (?A) (SG) (SG) (PI) (PI)
                 (SG) (?B) (?B) (PI) (PI) (?B) (PI) (PI) (SG) (DLTA)
                 (DLTA) (SG) (PI) (PI) (SG) (PI) (PI) (DLTA) (DLTA)
                 (PHI) (PHI) (SG) (PI) (PI) (?C) (?C) (?C) (?C)
                 (PI) (PI) (PHI) (PHI) (DLTA) (DLTA) (SG) (PI)
                 (PI) (SG) (DLTA) (DLTA) (PI) (PI) (SG)
 Unable to determine electronic state:  an orbital has unidentified symmetry.
 Alpha  occ. eigenvalues --  -24.78804 -10.32647  -1.33478  -0.70440  -0.56290
 Alpha  occ. eigenvalues --   -0.55114  -0.42204  -0.22253
 Alpha virt. eigenvalues --   -0.11502   0.07781   0.15228   0.16094   0.17125
 Alpha virt. eigenvalues --    0.31774   0.38371   0.46259   0.46444   0.79367
 Alpha virt. eigenvalues --    0.87925   0.88463   1.01734   1.02164   1.15234
 Alpha virt. eigenvalues --    1.18218   1.20650   1.37599   1.78621   1.78678
 Alpha virt. eigenvalues --    1.96405   2.17567   2.17748   2.27963   2.77370
 Alpha virt. eigenvalues --    2.77524   3.24750   3.25115   3.25710   3.25924
 Alpha virt. eigenvalues --    3.43640   3.60087   3.60742   3.87332   3.88398
 Alpha virt. eigenvalues --    3.89840   4.10955   4.18736   4.19608   4.31301
 Alpha virt. eigenvalues --    4.31307   4.68228   4.68350   5.10234   5.38365
 Alpha virt. eigenvalues --    5.38480   5.88166   7.45386   7.45420   7.92432
 Alpha virt. eigenvalues --    7.92535   8.12096
  Beta  occ. eigenvalues --  -24.78351 -10.31076  -1.32515  -0.68549  -0.54792
  Beta  occ. eigenvalues --   -0.52991  -0.38580
  Beta virt. eigenvalues --   -0.09955  -0.05747   0.08237   0.16311   0.17539
  Beta virt. eigenvalues --    0.19291   0.33520   0.38611   0.46260   0.47096
  Beta virt. eigenvalues --    0.79515   0.92648   0.92682   1.02495   1.05584
  Beta virt. eigenvalues --    1.16265   1.21752   1.25586   1.40138   1.79431
  Beta virt. eigenvalues --    1.79438   1.97947   2.17771   2.19543   2.28744
  Beta virt. eigenvalues --    2.77759   2.79425   3.27867   3.27943   3.31803
  Beta virt. eigenvalues --    3.31831   3.44591   3.61066   3.63927   3.89607
  Beta virt. eigenvalues --    3.96201   3.96442   4.12671   4.19962   4.23812
  Beta virt. eigenvalues --    4.31865   4.31866   4.69369   4.69392   5.10978
  Beta virt. eigenvalues --    5.38825   5.41249   5.89056   7.46746   7.46749
  Beta virt. eigenvalues --    7.92560   7.94023   8.12603
          Condensed to atoms (all electrons):
               1          2
     1  C    5.807630   0.095858
     2  F    0.095858   9.000654
          Atomic-Atomic Spin Densities.
               1          2
     1  C    1.100917  -0.149661
     2  F   -0.149661   0.198405
 Mulliken charges and spin densities:
               1          2
     1  C    0.096512   0.951256
     2  F   -0.096512   0.048744
 Sum of Mulliken charges =  -0.00000   1.00000
 Mulliken charges and spin densities with hydrogens summed into heavy atoms:
               1          2
     1  C    0.096512   0.951256
     2  F   -0.096512   0.048744
 Electronic spatial extent (au):  <R**2>=             45.9455
 Charge=             -0.0000 electrons
 Dipole moment (field-independent basis, Debye):
    X=              0.0000    Y=              0.0000    Z=              0.7430  Tot=              0.7430
 Quadrupole moment (field-independent basis, Debye-Ang):
   XX=             -9.7421   YY=            -11.5097   ZZ=            -12.4109
   XY=              0.0000   XZ=              0.0000   YZ=              0.0000
 Traceless Quadrupole moment (field-independent basis, Debye-Ang):
   XX=              1.4788   YY=             -0.2888   ZZ=             -1.1900
   XY=              0.0000   XZ=              0.0000   YZ=              0.0000
 Octapole moment (field-independent basis, Debye-Ang**2):
  XXX=              0.0000  YYY=              0.0000  ZZZ=              9.8374  XYY=              0.0000
  XXY=              0.0000  XXZ=              1.9567  XZZ=              0.0000  YZZ=              0.0000
  YYZ=              3.4818  XYZ=              0.0000
 Hexadecapole moment (field-independent basis, Debye-Ang**3):
 XXXX=             -8.4473 YYYY=            -12.5958 ZZZZ=            -43.5491 XXXY=              0.0000
 XXXZ=              0.0000 YYYX=              0.0000 YYYZ=              0.0000 ZZZX=              0.0000
 ZZZY=              0.0000 XXYY=             -3.5067 XXZZ=             -7.9670 YYZZ=             -9.9887
 XXYZ=              0.0000 YYXZ=              0.0000 ZZXY=              0.0000
 N-N= 2.240186627040D+01 E-N=-3.713632636985D+02  KE= 1.374942260202D+02
 Symmetry A1   KE= 1.236434062537D+02
 Symmetry A2   KE= 3.787967653268D-35
 Symmetry B1   KE= 5.962424187318D+00
 Symmetry B2   KE= 7.888395579182D+00
 Symmetry A1   SP= 4.825614463144D-15
 Symmetry A2   SP=-1.070352164980D-35
 Symmetry B1   SP=-3.432245264910D-16
 Symmetry B2   SP= 1.000000000000D+00
                          Isotropic Fermi Contact Couplings
        Atom                 a.u.       MegaHertz       Gauss      10(-4) cm-1
     1  C(13)              0.11515     129.44740      46.19005      43.17900
     2  F(19)              0.05300     222.99466      79.57004      74.38301
 --------------------------------------------------------
       Center         ----  Spin Dipole Couplings  ----
                      3XX-RR        3YY-RR        3ZZ-RR
 --------------------------------------------------------
     1   Atom       -0.714274      1.459739     -0.745465
     2   Atom       -0.585475      1.053845     -0.468370
 --------------------------------------------------------
                        XY            XZ            YZ
 --------------------------------------------------------
     1   Atom        0.000000      0.000000      0.000000
     2   Atom        0.000000      0.000000      0.000000
 --------------------------------------------------------


 ---------------------------------------------------------------------------------
              Anisotropic Spin Dipole Couplings in Principal Axis System
 ---------------------------------------------------------------------------------

       Atom             a.u.   MegaHertz   Gauss  10(-4) cm-1        Axes

              Baa    -0.7455  -100.034   -35.695   -33.368  0.0000  0.0000  1.0000
     1 C(13)  Bbb    -0.7143   -95.849   -34.201   -31.972  1.0000  0.0000  0.0000
              Bcc     1.4597   195.883    69.896    65.340 -0.0000  1.0000  0.0000
 
              Baa    -0.5855  -294.040  -104.921   -98.081  1.0000  0.0000  0.0000
     2 F(19)  Bbb    -0.4684  -235.227   -83.935   -78.463  0.0000  0.0000  1.0000
              Bcc     1.0538   529.268   188.856   176.545 -0.0000  1.0000  0.0000
 

 ---------------------------------------------------------------------------------

 B after Tr=     0.000000    0.000000    0.004613
         Rot=    1.000000    0.000000    0.000000    0.000000 Ang=   0.00 deg.
 Final structure in terms of initial Z-matrix:
 C
 F,1,r
      Variables:
 r=1.27558879
 1\1\GINC-GAMBA\FOpt\UB3LYP\Gen\C1F1(2)\IRIKURA\15-Jun-2022\0\\# b3lyp/
 gen opt freq\\fluoromethylidyne, B3LYP/pcseg-2\\0,2\C,0.,0.,0.01220560
 72\F,0.,0.,1.2877943928\\Version=ES64L-G16RevB.01\HF=-137.8410586\S2=0
 .75347\S2-1=0.\S2A=0.750005\RMSD=8.454e-09\RMSF=5.877e-06\Dipole=0.,0.
 ,0.2923366\Quadrupole=1.0994567,-0.2146862,-0.8847706,0.,0.,0.\PG=C*V 
 [C*(C1F1)]\\@


 OF ALL THE WONDERS OF THE UNIVERSE, THE GREATEST IS MAN.

                                    -- ARISTOTLE
 Job cpu time:       0 days  0 hours  0 minutes 25.8 seconds.
 Elapsed time:       0 days  0 hours  0 minutes  6.5 seconds.
 File lengths (MBytes):  RWF=      6 Int=      0 D2E=      0 Chk=      1 Scr=      1
 Normal termination of Gaussian 16 at Wed Jun 15 15:18:12 2022.
 Link1:  Proceeding to internal job step number  2.
 ------------------------------------------------------------------
 #N Geom=AllCheck Guess=TCheck SCRF=Check GenChk UB3LYP/ChkBas Freq
 ------------------------------------------------------------------
 1/10=4,29=7,30=1,38=1,40=1/1,3;
 2/12=2,40=1/2;
 3/5=7,6=2,11=2,14=-4,25=1,30=1,67=1,70=2,71=2,74=-5,82=7,116=2,140=1/1,2,3;
 4/5=101/1;
 5/5=2,38=6,98=1/2;
 8/6=4,10=90,11=11/1;
 11/6=1,8=1,9=11,15=111,16=1/1,2,10;
 10/6=1/2;
 6/7=2,8=2,9=2,10=2,28=1/1;
 7/8=1,10=1,25=1/1,2,3,16;
 1/10=4,30=1/3;
 99//99;
 Structure from the checkpoint file:  "/wrk/irikura/Gau-9400.chk"
 --------------------------------
 fluoromethylidyne, B3LYP/pcseg-2
 --------------------------------
 Charge =  0 Multiplicity = 2
 Redundant internal coordinates found in file.  (old form).
 C,0,0.,0.,0.0122056072
 F,0,0.,0.,1.2877943928
 Recover connectivity data from disk.

 GradGradGradGradGradGradGradGradGradGradGradGradGradGradGradGradGradGrad
 Berny optimization.
 Initialization pass.
                           ----------------------------
                           !    Initial Parameters    !
                           ! (Angstroms and Degrees)  !
 --------------------------                            --------------------------
 ! Name  Definition              Value          Derivative Info.                !
 --------------------------------------------------------------------------------
 ! R1    R(1,2)                  1.2756         calculate D2E/DX2 analytically  !
 --------------------------------------------------------------------------------
 Trust Radius=3.00D-01 FncErr=1.00D-07 GrdErr=1.00D-07 EigMax=2.50D+02 EigMin=1.00D-04
 Number of steps in this run=      2 maximum allowed number of steps=      2.
 GradGradGradGradGradGradGradGradGradGradGradGradGradGradGradGradGradGrad

                          Input orientation:                          
 ---------------------------------------------------------------------
 Center     Atomic      Atomic             Coordinates (Angstroms)
 Number     Number       Type             X           Y           Z
 ---------------------------------------------------------------------
      1          6           0        0.000000    0.000000    0.012206
      2          9           0        0.000000    0.000000    1.287794
 ---------------------------------------------------------------------
 Stoichiometry    CF(2)
 Framework group  C*V[C*(CF)]
 Deg. of freedom     1
 Full point group                 C*V     NOp   4
 Largest Abelian subgroup         C2V     NOp   4
 Largest concise Abelian subgroup C1      NOp   1
                         Standard orientation:                         
 ---------------------------------------------------------------------
 Center     Atomic      Atomic             Coordinates (Angstroms)
 Number     Number       Type             X           Y           Z
 ---------------------------------------------------------------------
      1          6           0        0.000000    0.000000   -0.765353
      2          9           0        0.000000    0.000000    0.510236
 ---------------------------------------------------------------------
 Rotational constants (GHZ):           0.0000000          42.2315276          42.2315276
 Basis read from chk: "/wrk/irikura/Gau-9400.chk" (5D, 7F)
 There are    32 symmetry adapted cartesian basis functions of A1  symmetry.
 There are     6 symmetry adapted cartesian basis functions of A2  symmetry.
 There are    16 symmetry adapted cartesian basis functions of B1  symmetry.
 There are    16 symmetry adapted cartesian basis functions of B2  symmetry.
 There are    26 symmetry adapted basis functions of A1  symmetry.
 There are     6 symmetry adapted basis functions of A2  symmetry.
 There are    14 symmetry adapted basis functions of B1  symmetry.
 There are    14 symmetry adapted basis functions of B2  symmetry.
    60 basis functions,   102 primitive gaussians,    70 cartesian basis functions
     8 alpha electrons        7 beta electrons
       nuclear repulsion energy        22.4018662704 Hartrees.
 NAtoms=    2 NActive=    2 NUniq=    2 SFac= 1.00D+00 NAtFMM=   60 NAOKFM=F Big=F
 Integral buffers will be    131072 words long.
 Raffenetti 2 integral format.
 Two-electron integral symmetry is turned on.
 One-electron integrals computed using PRISM.
 NBasis=    60 RedAO= T EigKep=  3.90D-03  NBF=    26     6    14    14
 NBsUse=    60 1.00D-06 EigRej= -1.00D+00 NBFU=    26     6    14    14
 Initial guess from the checkpoint file:  "/wrk/irikura/Gau-9400.chk"
 B after Tr=     0.000000    0.000000    0.000000
         Rot=    1.000000    0.000000    0.000000    0.000000 Ang=   0.00 deg.
 Initial guess orbital symmetries:
 Alpha Orbitals:
       Occupied  (SG) (SG) (SG) (SG) (PI) (PI) (SG) (?A)
       Virtual   (?A) (SG) (SG) (?A) (?A) (SG) (SG) (PI) (PI) (?B)
                 (?B) (?B) (PI) (PI) (SG) (PI) (PI) (SG) (DLTA)
                 (DLTA) (SG) (PI) (PI) (SG) (PI) (PI) (DLTA) (DLTA)
                 (PHI) (PHI) (SG) (PI) (PI) (?C) (?C) (?C) (SG)
                 (PI) (PI) (PHI) (PHI) (DLTA) (DLTA) (SG) (PI)
                 (PI) (SG) (DLTA) (DLTA) (PI) (PI) (SG)
 Beta  Orbitals:
       Occupied  (SG) (SG) (SG) (SG) (PI) (PI) (SG)
       Virtual   (?A) (?A) (SG) (SG) (?A) (?A) (SG) (SG) (PI) (PI)
                 (SG) (?B) (?B) (PI) (PI) (?B) (PI) (PI) (SG) (DLTA)
                 (DLTA) (SG) (PI) (PI) (SG) (PI) (PI) (DLTA) (DLTA)
                 (PHI) (PHI) (SG) (PI) (PI) (?C) (?C) (?C) (?C)
                 (PI) (PI) (PHI) (PHI) (DLTA) (DLTA) (SG) (PI)
                 (PI) (SG) (DLTA) (DLTA) (PI) (PI) (SG)
 Initial guess <Sx>= 0.0000 <Sy>= 0.0000 <Sz>= 0.5000 <S**2>= 0.7535 S= 0.5017
 Keep R1 and R2 ints in memory in symmetry-blocked form, NReq=5255373.
 Requested convergence on RMS density matrix=1.00D-08 within 128 cycles.
 Requested convergence on MAX density matrix=1.00D-06.
 Requested convergence on             energy=1.00D-06.
 No special actions if energy rises.
 SCF Done:  E(UB3LYP) =  -137.841058623     A.U. after    1 cycles
            NFock=  1  Conv=0.31D-08     -V/T= 2.0025
 <Sx>= 0.0000 <Sy>= 0.0000 <Sz>= 0.5000 <S**2>= 0.7535 S= 0.5017
 <L.S>=  0.00000000000    
 Annihilation of the first spin contaminant:
 S**2 before annihilation     0.7535,   after     0.7500
 DoSCS=F DFT=T ScalE2(SS,OS)=  1.000000  1.000000
 Range of M.O.s used for correlation:     1    60
 NBasis=    60 NAE=     8 NBE=     7 NFC=     0 NFV=     0
 NROrb=     60 NOA=     8 NOB=     7 NVA=    52 NVB=    53
 Symmetrizing basis deriv contribution to polar:
 IMax=3 JMax=2 DiffMx= 0.00D+00
 G2DrvN: will do     3 centers at a time, making    1 passes.
 Calling FoFCou, ICntrl=  3107 FMM=F I1Cent=   0 AccDes= 0.00D+00.
 End of G2Drv F.D. properties file   721 does not exist.
 End of G2Drv F.D. properties file   722 does not exist.
 End of G2Drv F.D. properties file   788 does not exist.
          IDoAtm=11
          Differentiating once with respect to electric field.
                with respect to dipole field.
          Differentiating once with respect to nuclear coordinates.
 Keep R1 and R2 ints in memory in symmetry-blocked form, NReq=5243602.
          There are     9 degrees of freedom in the 1st order CPHF.  IDoFFX=6 NUNeed=     3.
      6 vectors produced by pass  0 Test12= 8.74D-15 1.11D-08 XBig12= 1.78D+01 2.83D+00.
 AX will form     6 AO Fock derivatives at one time.
      6 vectors produced by pass  1 Test12= 8.74D-15 1.11D-08 XBig12= 7.19D+00 9.09D-01.
      6 vectors produced by pass  2 Test12= 8.74D-15 1.11D-08 XBig12= 1.61D-01 1.61D-01.
      6 vectors produced by pass  3 Test12= 8.74D-15 1.11D-08 XBig12= 3.14D-03 1.67D-02.
      6 vectors produced by pass  4 Test12= 8.74D-15 1.11D-08 XBig12= 4.20D-05 2.99D-03.
      6 vectors produced by pass  5 Test12= 8.74D-15 1.11D-08 XBig12= 5.21D-07 2.13D-04.
      6 vectors produced by pass  6 Test12= 8.74D-15 1.11D-08 XBig12= 2.43D-09 1.52D-05.
      4 vectors produced by pass  7 Test12= 8.74D-15 1.11D-08 XBig12= 2.23D-11 1.99D-06.
      3 vectors produced by pass  8 Test12= 8.74D-15 1.11D-08 XBig12= 2.99D-13 2.29D-07.
      1 vectors produced by pass  9 Test12= 8.74D-15 1.11D-08 XBig12= 1.43D-15 1.37D-08.
 InvSVY:  IOpt=1 It=  1 EMax= 3.33D-16
 Solved reduced A of dimension    50 with     6 vectors.
 Isotropic polarizability for W=    0.000000       11.97 Bohr**3.
 End of Minotr F.D. properties file   721 does not exist.
 End of Minotr F.D. properties file   722 does not exist.
 End of Minotr F.D. properties file   788 does not exist.

 **********************************************************************

            Population analysis using the SCF Density.

 **********************************************************************

 Orbital symmetries:
 Alpha Orbitals:
       Occupied  (SG) (SG) (SG) (SG) (PI) (PI) (SG) (?A)
       Virtual   (?A) (SG) (SG) (?A) (?A) (SG) (SG) (PI) (PI) (?B)
                 (?B) (?B) (PI) (PI) (SG) (PI) (PI) (SG) (DLTA)
                 (DLTA) (SG) (PI) (PI) (SG) (PI) (PI) (DLTA) (DLTA)
                 (PHI) (PHI) (SG) (PI) (PI) (?C) (?C) (?C) (SG)
                 (PI) (PI) (PHI) (PHI) (DLTA) (DLTA) (SG) (PI)
                 (PI) (SG) (DLTA) (DLTA) (PI) (PI) (SG)
 Beta  Orbitals:
       Occupied  (SG) (SG) (SG) (SG) (PI) (PI) (SG)
       Virtual   (?A) (?A) (SG) (SG) (?A) (?A) (SG) (SG) (PI) (PI)
                 (SG) (?B) (?B) (PI) (PI) (?B) (PI) (PI) (SG) (DLTA)
                 (DLTA) (SG) (PI) (PI) (SG) (PI) (PI) (DLTA) (DLTA)
                 (PHI) (PHI) (SG) (PI) (PI) (?C) (?C) (?C) (?C)
                 (PI) (PI) (PHI) (PHI) (DLTA) (DLTA) (SG) (PI)
                 (PI) (SG) (DLTA) (DLTA) (PI) (PI) (SG)
 Unable to determine electronic state:  an orbital has unidentified symmetry.
 Alpha  occ. eigenvalues --  -24.78804 -10.32647  -1.33478  -0.70440  -0.56290
 Alpha  occ. eigenvalues --   -0.55114  -0.42204  -0.22253
 Alpha virt. eigenvalues --   -0.11502   0.07781   0.15228   0.16094   0.17125
 Alpha virt. eigenvalues --    0.31774   0.38371   0.46259   0.46444   0.79367
 Alpha virt. eigenvalues --    0.87925   0.88463   1.01734   1.02164   1.15234
 Alpha virt. eigenvalues --    1.18218   1.20650   1.37599   1.78621   1.78678
 Alpha virt. eigenvalues --    1.96405   2.17567   2.17748   2.27963   2.77370
 Alpha virt. eigenvalues --    2.77524   3.24750   3.25115   3.25710   3.25924
 Alpha virt. eigenvalues --    3.43640   3.60087   3.60742   3.87332   3.88398
 Alpha virt. eigenvalues --    3.89840   4.10955   4.18736   4.19608   4.31301
 Alpha virt. eigenvalues --    4.31307   4.68228   4.68350   5.10234   5.38365
 Alpha virt. eigenvalues --    5.38480   5.88165   7.45386   7.45420   7.92432
 Alpha virt. eigenvalues --    7.92535   8.12095
  Beta  occ. eigenvalues --  -24.78351 -10.31076  -1.32515  -0.68549  -0.54792
  Beta  occ. eigenvalues --   -0.52991  -0.38580
  Beta virt. eigenvalues --   -0.09955  -0.05747   0.08237   0.16311   0.17539
  Beta virt. eigenvalues --    0.19291   0.33520   0.38611   0.46260   0.47096
  Beta virt. eigenvalues --    0.79515   0.92648   0.92682   1.02495   1.05584
  Beta virt. eigenvalues --    1.16265   1.21752   1.25586   1.40138   1.79431
  Beta virt. eigenvalues --    1.79438   1.97947   2.17771   2.19543   2.28744
  Beta virt. eigenvalues --    2.77759   2.79425   3.27867   3.27943   3.31803
  Beta virt. eigenvalues --    3.31831   3.44591   3.61066   3.63927   3.89607
  Beta virt. eigenvalues --    3.96201   3.96442   4.12671   4.19962   4.23812
  Beta virt. eigenvalues --    4.31865   4.31866   4.69369   4.69392   5.10978
  Beta virt. eigenvalues --    5.38825   5.41249   5.89056   7.46746   7.46749
  Beta virt. eigenvalues --    7.92560   7.94023   8.12603
          Condensed to atoms (all electrons):
               1          2
     1  C    5.807630   0.095858
     2  F    0.095858   9.000655
          Atomic-Atomic Spin Densities.
               1          2
     1  C    1.100917  -0.149661
     2  F   -0.149661   0.198405
 Mulliken charges and spin densities:
               1          2
     1  C    0.096512   0.951256
     2  F   -0.096512   0.048744
 Sum of Mulliken charges =   0.00000   1.00000
 Mulliken charges and spin densities with hydrogens summed into heavy atoms:
               1          2
     1  C    0.096512   0.951256
     2  F   -0.096512   0.048744
 APT charges:
               1
     1  C    0.328353
     2  F   -0.328353
 Sum of APT charges =   0.00000
 APT charges with hydrogens summed into heavy atoms:
               1
     1  C    0.328353
     2  F   -0.328353
 Electronic spatial extent (au):  <R**2>=             45.9455
 Charge=             -0.0000 electrons
 Dipole moment (field-independent basis, Debye):
    X=              0.0000    Y=              0.0000    Z=              0.7430  Tot=              0.7430
 Quadrupole moment (field-independent basis, Debye-Ang):
   XX=             -9.7421   YY=            -11.5097   ZZ=            -12.4109
   XY=              0.0000   XZ=              0.0000   YZ=              0.0000
 Traceless Quadrupole moment (field-independent basis, Debye-Ang):
   XX=              1.4788   YY=             -0.2888   ZZ=             -1.1900
   XY=              0.0000   XZ=              0.0000   YZ=              0.0000
 Octapole moment (field-independent basis, Debye-Ang**2):
  XXX=              0.0000  YYY=              0.0000  ZZZ=              9.8374  XYY=              0.0000
  XXY=              0.0000  XXZ=              1.9567  XZZ=              0.0000  YZZ=              0.0000
  YYZ=              3.4818  XYZ=              0.0000
 Hexadecapole moment (field-independent basis, Debye-Ang**3):
 XXXX=             -8.4473 YYYY=            -12.5958 ZZZZ=            -43.5491 XXXY=              0.0000
 XXXZ=              0.0000 YYYX=              0.0000 YYYZ=              0.0000 ZZZX=              0.0000
 ZZZY=              0.0000 XXYY=             -3.5067 XXZZ=             -7.9670 YYZZ=             -9.9887
 XXYZ=              0.0000 YYXZ=              0.0000 ZZXY=              0.0000
 N-N= 2.240186627040D+01 E-N=-3.713632662980D+02  KE= 1.374942272374D+02
 Symmetry A1   KE= 1.236434066134D+02
 Symmetry A2   KE= 3.787972657032D-35
 Symmetry B1   KE= 5.962424684052D+00
 Symmetry B2   KE= 7.888395939928D+00
 Symmetry A1   SP= 3.323825047662D-16
 Symmetry A2   SP=-1.070353249553D-35
 Symmetry B1   SP=-1.570107704876D-15
 Symmetry B2   SP= 1.000000000000D+00
  Exact polarizability:  10.402  -0.000  11.544   0.000   0.000  13.964
 Approx polarizability:  14.934  -0.000  12.022  -0.000  -0.000  18.841
                          Isotropic Fermi Contact Couplings
        Atom                 a.u.       MegaHertz       Gauss      10(-4) cm-1
     1  C(13)              0.11515     129.44746      46.19007      43.17903
     2  F(19)              0.05300     222.99581      79.57045      74.38340
 --------------------------------------------------------
       Center         ----  Spin Dipole Couplings  ----
                      3XX-RR        3YY-RR        3ZZ-RR
 --------------------------------------------------------
     1   Atom       -0.714274      1.459739     -0.745465
     2   Atom       -0.585474      1.053844     -0.468370
 --------------------------------------------------------
                        XY            XZ            YZ
 --------------------------------------------------------
     1   Atom        0.000000      0.000000      0.000000
     2   Atom        0.000000      0.000000      0.000000
 --------------------------------------------------------


 ---------------------------------------------------------------------------------
              Anisotropic Spin Dipole Couplings in Principal Axis System
 ---------------------------------------------------------------------------------

       Atom             a.u.   MegaHertz   Gauss  10(-4) cm-1        Axes

              Baa    -0.7455  -100.034   -35.695   -33.368  0.0000  0.0000  1.0000
     1 C(13)  Bbb    -0.7143   -95.849   -34.201   -31.972  1.0000  0.0000  0.0000
              Bcc     1.4597   195.883    69.896    65.340 -0.0000  1.0000  0.0000
 
              Baa    -0.5855  -294.040  -104.921   -98.081  1.0000  0.0000  0.0000
     2 F(19)  Bbb    -0.4684  -235.228   -83.935   -78.463  0.0000  0.0000  1.0000
              Bcc     1.0538   529.267   188.856   176.545 -0.0000  1.0000  0.0000
 

 ---------------------------------------------------------------------------------

 Calling FoFJK, ICntrl=    100127 FMM=F ISym2X=1 I1Cent= 0 IOpClX= 1 NMat=1 NMatS=1 NMatT=0.
 Full mass-weighted force constant matrix:
 Low frequencies ---   -6.5638   -4.6347   -0.0011   -0.0011    0.0017 1293.8668
 Diagonal vibrational polarizability:
        0.0000000       0.0000000       3.2110960
 Harmonic frequencies (cm**-1), IR intensities (KM/Mole), Raman scattering
 activities (A**4/AMU), depolarization ratios for plane and unpolarized
 incident light, reduced masses (AMU), force constants (mDyne/A),
 and normal coordinates:
                      1
                     SG
 Frequencies --   1293.8668
 Red. masses --     13.9958
 Frc consts  --     13.8047
 IR Inten    --    199.7558
  Atom  AN      X      Y      Z
     1   6     0.00   0.00   0.85
     2   9     0.00   0.00  -0.53

 -------------------
 - Thermochemistry -
 -------------------
 Temperature   298.150 Kelvin.  Pressure   1.00000 Atm.
 Atom     1 has atomic number  6 and mass  12.00000
 Atom     2 has atomic number  9 and mass  18.99840
 Molecular mass:    30.99840 amu.
 Principal axes and moments of inertia in atomic units:
                           1         2         3
     Eigenvalues --     0.00000  42.73445  42.73445
           X            0.00000  -0.00000   1.00000
           Y            0.00000   1.00000   0.00000
           Z            1.00000   0.00000   0.00000
 This molecule is a prolate symmetric top.
 Rotational symmetry number  1.
 Rotational temperature (Kelvin)      2.02679
 Rotational constant (GHZ):          42.231528
 Zero-point vibrational energy       7739.0 (Joules/Mol)
                                    1.84968 (Kcal/Mol)
 Vibrational temperatures:   1861.59
          (Kelvin)
 
 Zero-point correction=                           0.002948 (Hartree/Particle)
 Thermal correction to Energy=                    0.005320
 Thermal correction to Enthalpy=                  0.006264
 Thermal correction to Gibbs Free Energy=        -0.017273
 Sum of electronic and zero-point Energies=           -137.838111
 Sum of electronic and thermal Energies=              -137.835739
 Sum of electronic and thermal Enthalpies=            -137.834795
 Sum of electronic and thermal Free Energies=         -137.858332
 
                     E (Thermal)             CV                S
                      KCal/Mol        Cal/Mol-Kelvin    Cal/Mol-Kelvin
 Total                    3.338              5.119             49.538
 Electronic               0.000              0.000              1.377
 Translational            0.889              2.981             36.227
 Rotational               0.592              1.987             11.906
 Vibrational              1.857              0.151              0.028
                       Q            Log10(Q)             Ln(Q)
 Total Bot       0.881335D+08          7.945141         18.294363
 Total V=0       0.199969D+10          9.300963         21.416258
 Vib (Bot)       0.441594D-01         -1.354977         -3.119950
 Vib (V=0)       0.100195D+01          0.000844          0.001944
 Electronic      0.200000D+01          0.301030          0.693147
 Translational   0.678364D+07          6.831463         15.730025
 Rotational      0.147104D+03          2.167625          4.991142
 ***** Axes restored to original set *****
 -------------------------------------------------------------------
 Center     Atomic                   Forces (Hartrees/Bohr)
 Number     Number              X              Y              Z
 -------------------------------------------------------------------
      1        6          -0.000000000   -0.000000000   -0.000010301
      2        9          -0.000000000   -0.000000000    0.000010301
 -------------------------------------------------------------------
 Cartesian Forces:  Max     0.000010301 RMS     0.000005948
 FormGI is forming the generalized inverse of G from B-inverse, IUseBI=4.

 GradGradGradGradGradGradGradGradGradGradGradGradGradGradGradGradGradGrad
 Berny optimization.
 Internal  Forces:  Max     0.000010301 RMS     0.000010301
 Search for a local minimum.
 Step number   1 out of a maximum of    2
 All quantities printed in internal units (Hartrees-Bohrs-Radians)
 Second derivative matrix not updated -- analytic derivatives used.
 The second derivative matrix:
                          R1
           R1           0.46594
 ITU=  0
     Eigenvalues ---    0.46594
 Angle between quadratic step and forces=   0.00 degrees.
 Linear search not attempted -- first point.
 Iteration  1 RMS(Cart)=  0.00001563 RMS(Int)=  0.00000000
 Iteration  2 RMS(Cart)=  0.00000000 RMS(Int)=  0.00000000
 ClnCor:  largest displacement from symmetrization is 0.00D+00 for atom     0.
 Variable       Old X    -DE/DX   Delta X   Delta X   Delta X     New X
                                 (Linear)    (Quad)   (Total)
    R1        2.41051   0.00001   0.00000   0.00002   0.00002   2.41054
         Item               Value     Threshold  Converged?
 Maximum Force            0.000010     0.000450     YES
 RMS     Force            0.000010     0.000300     YES
 Maximum Displacement     0.000011     0.001800     YES
 RMS     Displacement     0.000016     0.001200     YES
 Predicted change in Energy=-1.138782D-10
 Optimization completed.
    -- Stationary point found.
                           ----------------------------
                           !   Optimized Parameters   !
                           ! (Angstroms and Degrees)  !
 --------------------------                            --------------------------
 ! Name  Definition              Value          Derivative Info.                !
 --------------------------------------------------------------------------------
 ! R1    R(1,2)                  1.2756         -DE/DX =    0.0                 !
 --------------------------------------------------------------------------------
 GradGradGradGradGradGradGradGradGradGradGradGradGradGradGradGradGradGrad


 ----------------------------------------------------------------------

 Electric dipole moment (input orientation):
 (Debye = 10**-18 statcoulomb cm , SI units = C m)
                  (au)            (Debye)         (10**-30 SI)
   Tot        0.292336D+00      0.743044D+00      0.247853D+01
   x          0.000000D+00      0.000000D+00      0.000000D+00
   y          0.000000D+00      0.000000D+00      0.000000D+00
   z          0.292336D+00      0.743044D+00      0.247853D+01

 Dipole polarizability, Alpha (input orientation).
 (esu units = cm**3 , SI units = C**2 m**2 J**-1)
 Alpha(0;0):
               (au)            (10**-24 esu)      (10**-40 SI)
   iso        0.119700D+02      0.177378D+01      0.197359D+01
   aniso      0.315020D+01      0.466811D+00      0.519397D+00
   xx         0.104020D+02      0.154141D+01      0.171506D+01
   yx         0.000000D+00      0.000000D+00      0.000000D+00
   yy         0.115442D+02      0.171067D+01      0.190338D+01
   zx         0.000000D+00      0.000000D+00      0.000000D+00
   zy         0.000000D+00      0.000000D+00      0.000000D+00
   zz         0.139640D+02      0.206924D+01      0.230234D+01

 ----------------------------------------------------------------------

 Dipole orientation:
     6          0.00000000          0.00000000          0.02306525
     9          0.00000000          0.00000000          2.43357871

 Electric dipole moment (dipole orientation):
 (Debye = 10**-18 statcoulomb cm , SI units = C m)
                  (au)            (Debye)         (10**-30 SI)
   Tot        0.292336D+00      0.743044D+00      0.247853D+01
   x          0.000000D+00      0.000000D+00      0.000000D+00
   y          0.000000D+00      0.000000D+00      0.000000D+00
   z          0.292336D+00      0.743044D+00      0.247853D+01

 Dipole polarizability, Alpha (dipole orientation).
 (esu units = cm**3 , SI units = C**2 m**2 J**-1)
 Alpha(0;0):
               (au)            (10**-24 esu)      (10**-40 SI)
   iso        0.119700D+02      0.177378D+01      0.197359D+01
   aniso      0.315020D+01      0.466811D+00      0.519397D+00
   xx         0.104020D+02      0.154141D+01      0.171506D+01
   yx         0.000000D+00      0.000000D+00      0.000000D+00
   yy         0.115442D+02      0.171067D+01      0.190338D+01
   zx         0.000000D+00      0.000000D+00      0.000000D+00
   zy         0.000000D+00      0.000000D+00      0.000000D+00
   zz         0.139640D+02      0.206924D+01      0.230234D+01

 ----------------------------------------------------------------------
 1\1\GINC-GAMBA\Freq\UB3LYP\Gen\C1F1(2)\IRIKURA\15-Jun-2022\0\\#N Geom=
 AllCheck Guess=TCheck SCRF=Check GenChk UB3LYP/ChkBas Freq\\fluorometh
 ylidyne, B3LYP/pcseg-2\\0,2\C,0.,0.,0.0122056072\F,0.,0.,1.2877943928\
 \Version=ES64L-G16RevB.01\HF=-137.8410586\S2=0.75347\S2-1=0.\S2A=0.750
 005\RMSD=3.116e-09\RMSF=5.948e-06\ZeroPoint=0.0029476\Thermal=0.005319
 6\Dipole=0.,0.,0.2923359\DipoleDeriv=-0.1212755,0.,0.,0.,-0.1212548,0.
 ,0.,0.,1.2275906,0.1212755,0.,0.,0.,0.1212548,0.,0.,0.,-1.2275906\Pola
 r=10.4019832,0.,11.5441943,0.,0.,13.9639502\Quadrupole=1.0994565,-0.21
 46864,-0.8847701,0.,0.,0.\PG=C*V [C*(C1F1)]\NImag=0\\-0.00000598,0.,-0
 .00001199,0.,0.,0.46593961,0.00000598,0.,0.,-0.00000598,0.,0.00001199,
 0.,0.,-0.00001199,0.,0.,-0.46593961,0.,0.,0.46593961\\0.,0.,0.00001030
 ,0.,0.,-0.00001030\\\@


 HICKORY, DICKORY, DOCK
 TWO MICE RAN UP THE CLOCK
 THE CLOCK STRUCK ONE...
 THE OTHER ESCAPED WITH MINOR INJURIES.
 Job cpu time:       0 days  0 hours  0 minutes 22.8 seconds.
 Elapsed time:       0 days  0 hours  0 minutes  5.7 seconds.
 File lengths (MBytes):  RWF=      6 Int=      0 D2E=      0 Chk=      2 Scr=      1
 Normal termination of Gaussian 16 at Wed Jun 15 15:18:18 2022.
