 Entering Gaussian System, Link 0=g16
 AtFile(1): pcseg2.gbs
            -H     0
            S   4   1.00
                  0.754732D+02           0.427821D-02
                  0.113575D+02           0.328672D-01
                  0.260081D+01           0.159578D+00
                  0.735503D+00           0.500000D+00
            S   1   1.00
                  0.231761D+00           1.0000000
            S   1   1.00
                  0.741675D-01           1.0000000
            P   1   1.00
                  0.160000D+01           1.0000000
            P   1   1.00
                  0.450000D+00           1.0000000
            D   1   1.00
                  0.125000D+01           1.0000000
            ****
            -C     0
            S   7   1.00
                  0.731999D+04           0.695369D-03
                  0.109818D+04           0.537138D-02
                  0.250014D+03           0.274734D-01
                  0.707586D+02           0.105078D+00
                  0.228595D+02           0.291262D+00
                  0.803936D+01           0.500000D+00
                  0.289309D+01           0.362224D+00
            S   2   1.00
                  0.521640D+01          -0.957844D-01
                  0.556124D+00           0.500000D+00
            S   1   1.00
                  0.228813D+00           1.0000000
            S   1   1.00
                  0.936338D-01           1.0000000
            P   4   1.00
                  0.339855D+02           0.818395D-02
                  0.772957D+01           0.586921D-01
                  0.224954D+01           0.222514D+00
                  0.767681D+00           0.500000D+00
            P   1   1.00
                  0.263283D+00           1.0000000
            P   1   1.00
                  0.848744D-01           1.0000000
            D   1   1.00
                  0.140000D+01           1.0000000
            D   1   1.00
                  0.450000D+00           1.0000000
            F   1   1.00
                  0.950000D+00           1.0000000
            ****
            -O     0
            S   7   1.00
                  0.135887D+05           0.665492D-03
                  0.203847D+04           0.514222D-02
                  0.464041D+03           0.263472D-01
                  0.131339D+03           0.101500D+00
                  0.425340D+02           0.285877D+00
                  0.150429D+02           0.500000D+00
                  0.546616D+01           0.368211D+00
            S   2   1.00
                  0.100915D+02          -0.100084D+00
                  0.110429D+01           0.500000D+00
            S   1   1.00
                  0.448082D+00           1.0000000
            S   1   1.00
                  0.175325D+00           1.0000000
            P   4   1.00
                  0.608220D+02           0.908253D-02
                  0.140332D+02           0.645878D-01
                  0.418244D+01           0.241502D+00
                  0.142490D+01           0.500000D+00
            P   1   1.00
                  0.478741D+00           1.0000000
            P   1   1.00
                  0.146257D+00           1.0000000
            D   1   1.00
                  0.220000D+01           1.0000000
            D   1   1.00
                  0.650000D+00           1.0000000
            F   1   1.00
                  0.110000D+01           1.0000000
            ****
            -N     0
            S   7   1.00
                  0.101643D+05           0.682757D-03
                  0.152481D+04           0.527488D-02
                  0.347119D+03           0.270037D-01
                  0.982389D+02           0.103673D+00
                  0.317799D+02           0.289575D+00
                  0.112240D+02           0.500000D+00
                  0.406611D+01           0.364621D+00
            S   2   1.00
                  0.747898D+01          -0.975681D-01
                  0.805040D+00           0.500000D+00
            S   1   1.00
                  0.324626D+00           1.0000000
            S   1   1.00
                  0.128132D+00           1.0000000
            P   4   1.00
                  0.482704D+02           0.829547D-02
                  0.110815D+02           0.596223D-01
                  0.326643D+01           0.227889D+00
                  0.111680D+01           0.500000D+00
            P   1   1.00
                  0.382049D+00           1.0000000
            P   1   1.00
                  0.121222D+00           1.0000000
            D   1   1.00
                  0.180000D+01           1.0000000
            D   1   1.00
                  0.550000D+00           1.0000000
            F   1   1.00
                  0.102000D+01           1.0000000
            ****
            -F     0
            S   7   1.00
                  0.174507D+05           0.655972D-03
                  0.261768D+04           0.506944D-02
                  0.595857D+03           0.259899D-01
                  0.168651D+03           0.100353D+00
                  0.546654D+02           0.284095D+00
                  0.193717D+02           0.500000D+00
                  0.706202D+01           0.370721D+00
            S   2   1.00
                  0.131197D+02          -0.101997D+00
                  0.145046D+01           0.500000D+00
            S   1   1.00
                  0.588255D+00           1.0000000
            S   1   1.00
                  0.227960D+00           1.0000000
            P   4   1.00
                  0.779407D+02           0.931135D-02
                  0.180425D+02           0.663964D-01
                  0.542342D+01           0.246386D+00
                  0.184876D+01           0.500000D+00
            P   1   1.00
                  0.617455D+00           1.0000000
            P   1   1.00
                  0.185496D+00           1.0000000
            D   1   1.00
                  0.280000D+01           1.0000000
            D   1   1.00
                  0.800000D+00           1.0000000
            F   1   1.00
                  0.120000D+01           1.0000000
            ****
            -Cl     0
            S   8   1.00
                  0.154272D+06           0.222473D-03
                  0.231232D+05           0.172590D-02
                  0.526257D+04           0.899286D-02
                  0.148995D+04           0.367724D-01
                  0.485417D+03           0.121446D+00
                  0.174634D+03           0.304148D+00
                  0.672393D+02           0.500000D+00
                  0.265780D+02           0.360252D+00
            S   3   1.00
                  0.131826D+03          -0.531330D-01
                  0.400703D+02          -0.233346D+00
                  0.789448D+01           0.500000D+00
            S   2   1.00
                  0.427711D+01           0.500000D+00
                  0.196233D+01           0.370517D+00
            S   1   1.00
                  0.520793D+00           1.0000000
            S   1   1.00
                  0.181633D+00           1.0000000
            P   7   1.00
                  0.124440D+04           0.988206D-03
                  0.295109D+03           0.829674D-02
                  0.947224D+02           0.430906D-01
                  0.352588D+02           0.148443D+00
                  0.144211D+02           0.344744D+00
                  0.610371D+01           0.500000D+00
                  0.258886D+01           0.348278D+00
            P   2   1.00
                  0.109447D+02          -0.196768D-01
                  0.104413D+01           0.500000D+00
            P   1   1.00
                  0.376184D+00           1.0000000
            P   1   1.00
                  0.120613D+00           1.0000000
            D   1   1.00
                  0.231000D+01           1.0000000
            D   1   1.00
                  0.520000D+00           1.0000000
            F   1   1.00
                  0.720000D+00           1.0000000
            ****
            -S     0
            S   8   1.00
                  0.134700D+06           0.226231D-03
                  0.201904D+05           0.175488D-02
                  0.459528D+04           0.914190D-02
                  0.130109D+04           0.373551D-01
                  0.423902D+03           0.123121D+00
                  0.152485D+03           0.306801D+00
                  0.586925D+02           0.500000D+00
                  0.231461D+02           0.354358D+00
            S   3   1.00
                  0.116327D+03          -0.491772D-01
                  0.352841D+02          -0.215962D+00
                  0.677831D+01           0.500000D+00
            S   2   1.00
                  0.360404D+01           0.500000D+00
                  0.164871D+01           0.366278D+00
            S   1   1.00
                  0.421821D+00           1.0000000
            S   1   1.00
                  0.147554D+00           1.0000000
            P   7   1.00
                  0.104863D+04           0.105273D-02
                  0.248717D+03           0.879338D-02
                  0.797887D+02           0.453358D-01
                  0.296023D+02           0.154476D+00
                  0.120627D+02           0.352366D+00
                  0.507628D+01           0.500000D+00
                  0.213375D+01           0.346429D+00
            P   2   1.00
                  0.928958D+01          -0.185932D-01
                  0.837819D+00           0.500000D+00
            P   1   1.00
                  0.301495D+00           1.0000000
            P   1   1.00
                  0.974740D-01           1.0000000
            D   1   1.00
                  0.210000D+01           1.0000000
            D   1   1.00
                  0.480000D+00           1.0000000
            F   1   1.00
                  0.660000D+00           1.0000000
            ****
            -Br     0
            S    10   1.00
                  0.233625D+07           0.532336D-04
                  0.349961D+06           0.413715D-03
                  0.796444D+05           0.217123D-02
                  0.225555D+05           0.910109D-02
                  0.735546D+04           0.323789D-01
                  0.265352D+04           0.988755D-01
                  0.103517D+04           0.248138D+00
                  0.422205D+03           0.474328D+00
                  0.180035D+03           0.500000D+00
                  0.793308D+02           0.187769D+00
            S    4   1.00
                  0.620834D+03          -0.226511D-01
                  0.190829D+03          -0.109497D+00
                  0.312505D+02           0.500000D+00
                  0.135270D+02           0.492812D+00
            S    2   1.00
                  0.216097D+02          -0.165418D+00
                  0.372566D+01           0.500000D+00
            S    1   1.00
                  0.169770D+01           1.0000000
            S    1   1.00
                  0.489332D+00           1.0000000
            S    1   1.00
                  0.175712D+00           1.0000000
            P    8   1.00
                  0.960829D+04           0.478974D-03
                  0.227618D+04           0.417853D-02
                  0.736723D+03           0.229315D-01
                  0.281579D+03           0.892653D-01
                  0.118395D+03           0.255288D+00
                  0.527481D+02           0.479074D+00
                  0.245098D+02           0.500000D+00
                  0.112009D+02           0.200944D+00
            P    4   1.00
                  0.587849D+02          -0.189674D-01
                  0.918962D+01           0.264104D+00
                  0.413895D+01           0.500000D+00
                  0.184225D+01           0.319316D+00
            P    1   1.00
                  0.713862D+00           1.0000000
            P    1   1.00
                  0.274232D+00           1.0000000
            P    1   1.00
                  0.944411D-01           1.0000000
            D    7   1.00
                  0.398470D+03           0.204066D-02
                  0.118967D+03           0.175171D-01
                  0.450197D+02           0.829708D-01
                  0.190320D+02           0.236284D+00
                  0.855686D+01           0.428468D+00
                  0.382950D+01           0.500000D+00
                  0.166291D+01           0.349360D+00
            D    1   1.00
                  0.672953D+00           1.0000000
            D    1   1.00
                  0.252000D+00           1.0000000
            F    1   1.00
                  0.530000D+00           1.0000000
            ****
            -Si     0
            S    8   1.00
                  0.996133D+05           0.235546D-03
                  0.149311D+05           0.182707D-02
                  0.339820D+04           0.951425D-02
                  0.962140D+03           0.388172D-01
                  0.313430D+03           0.127328D+00
                  0.112683D+03           0.313522D+00
                  0.433372D+02           0.500000D+00
                  0.170029D+02           0.340347D+00
            S    3   1.00
                  0.884208D+02          -0.404451D-01
                  0.266756D+02          -0.178059D+00
                  0.479640D+01           0.500000D+00
            S    2   1.00
                  0.239385D+01           0.500000D+00
                  0.108333D+01           0.338016D+00
            S    1   1.00
                  0.252420D+00           1.0000000
            S    1   1.00
                  0.891210D-01           1.0000000
            P    7   1.00
                  0.709901D+03           0.123028D-02
                  0.168426D+03           0.101366D-01
                  0.539946D+02           0.511840D-01
                  0.198646D+02           0.169967D+00
                  0.801369D+01           0.370717D+00
                  0.331870D+01           0.500000D+00
                  0.136112D+01           0.344128D+00
            P    2   1.00
                  0.622158D+01          -0.166609D-01
                  0.503049D+00           0.500000D+00
            P    1   1.00
                  0.179848D+00           1.0000000
            P    1   1.00
                  0.591912D-01           1.0000000
            D    1   1.00
                  0.168000D+01           1.0000000
            D    1   1.00
                  0.380000D+00           1.0000000
            F    1   1.00
                  0.540000D+00           1.0000000
            ****
            -P     0
            S    8   1.00
                  0.116416D+06           0.230715D-03
                  0.174500D+05           0.178960D-02
                  0.397149D+04           0.932116D-02
                  0.112447D+04           0.380591D-01
                  0.366347D+03           0.125148D+00
                  0.131757D+03           0.310022D+00
                  0.506988D+02           0.500000D+00
                  0.199436D+02           0.347528D+00
            S    3   1.00
                  0.101878D+03          -0.446755D-01
                  0.308249D+02          -0.196376D+00
                  0.573688D+01           0.500000D+00
            S    2   1.00
                  0.296868D+01           0.500000D+00
                  0.135315D+01           0.355098D+00
            S    1   1.00
                  0.332196D+00           1.0000000
            S    1   1.00
                  0.116229D+00           1.0000000
            P    7   1.00
                  0.873928D+03           0.112375D-02
                  0.207298D+03           0.933330D-02
                  0.664628D+02           0.477213D-01
                  0.245665D+02           0.160733D+00
                  0.996820D+01           0.359760D+00
                  0.416536D+01           0.500000D+00
                  0.173022D+01           0.346593D+00
            P    2   1.00
                  0.772530D+01          -0.175718D-01
                  0.657252D+00           0.500000D+00
            P    1   1.00
                  0.239903D+00           1.0000000
            P    1   1.00
                  0.800988D-01           1.0000000
            D    1   1.00
                  0.189000D+01           1.0000000
            D    1   1.00
                  0.430000D+00           1.0000000
            F    1   1.00
                  0.600000D+00           1.0000000
            ****
            
 Initial command:
 /usr/local/apps/g16_b01_avx/g16/l1.exe "/wrk/irikura/Gau-1804.inp" -scrdir="/wrk/irikura/"
 Entering Link 1 = /usr/local/apps/g16_b01_avx/g16/l1.exe PID=      1806.
  
 Copyright (c) 1988-2017, Gaussian, Inc.  All Rights Reserved.
  
 This is part of the Gaussian(R) 16 program.  It is based on
 the Gaussian(R) 09 system (copyright 2009, Gaussian, Inc.),
 the Gaussian(R) 03 system (copyright 2003, Gaussian, Inc.),
 the Gaussian(R) 98 system (copyright 1998, Gaussian, Inc.),
 the Gaussian(R) 94 system (copyright 1995, Gaussian, Inc.),
 the Gaussian 92(TM) system (copyright 1992, Gaussian, Inc.),
 the Gaussian 90(TM) system (copyright 1990, Gaussian, Inc.),
 the Gaussian 88(TM) system (copyright 1988, Gaussian, Inc.),
 the Gaussian 86(TM) system (copyright 1986, Carnegie Mellon
 University), and the Gaussian 82(TM) system (copyright 1983,
 Carnegie Mellon University). Gaussian is a federally registered
 trademark of Gaussian, Inc.
  
 This software contains proprietary and confidential information,
 including trade secrets, belonging to Gaussian, Inc.
  
 This software is provided under written license and may be
 used, copied, transmitted, or stored only in accord with that
 written license.
  
 The following legend is applicable only to US Government
 contracts under FAR:
  
                    RESTRICTED RIGHTS LEGEND
  
 Use, reproduction and disclosure by the US Government is
 subject to restrictions as set forth in subparagraphs (a)
 and (c) of the Commercial Computer Software - Restricted
 Rights clause in FAR 52.227-19.
  
 Gaussian, Inc.
 340 Quinnipiac St., Bldg. 40, Wallingford CT 06492
  
  
 ---------------------------------------------------------------
 Warning -- This program may not be used in any manner that
 competes with the business of Gaussian, Inc. or will provide
 assistance to any competitor of Gaussian, Inc.  The licensee
 of this program is prohibited from giving any competitor of
 Gaussian, Inc. access to this program.  By using this program,
 the user acknowledges that Gaussian, Inc. is engaged in the
 business of creating and licensing software in the field of
 computational chemistry and represents and warrants to the
 licensee that it is not a competitor of Gaussian, Inc. and that
 it will not use this program in any manner prohibited above.
 ---------------------------------------------------------------
  

 Cite this work as:
 Gaussian 16, Revision B.01,
 M. J. Frisch, G. W. Trucks, H. B. Schlegel, G. E. Scuseria, 
 M. A. Robb, J. R. Cheeseman, G. Scalmani, V. Barone, 
 G. A. Petersson, H. Nakatsuji, X. Li, M. Caricato, A. V. Marenich, 
 J. Bloino, B. G. Janesko, R. Gomperts, B. Mennucci, H. P. Hratchian, 
 J. V. Ortiz, A. F. Izmaylov, J. L. Sonnenberg, D. Williams-Young, 
 F. Ding, F. Lipparini, F. Egidi, J. Goings, B. Peng, A. Petrone, 
 T. Henderson, D. Ranasinghe, V. G. Zakrzewski, J. Gao, N. Rega, 
 G. Zheng, W. Liang, M. Hada, M. Ehara, K. Toyota, R. Fukuda, 
 J. Hasegawa, M. Ishida, T. Nakajima, Y. Honda, O. Kitao, H. Nakai, 
 T. Vreven, K. Throssell, J. A. Montgomery, Jr., J. E. Peralta, 
 F. Ogliaro, M. J. Bearpark, J. J. Heyd, E. N. Brothers, K. N. Kudin, 
 V. N. Staroverov, T. A. Keith, R. Kobayashi, J. Normand, 
 K. Raghavachari, A. P. Rendell, J. C. Burant, S. S. Iyengar, 
 J. Tomasi, M. Cossi, J. M. Millam, M. Klene, C. Adamo, R. Cammi, 
 J. W. Ochterski, R. L. Martin, K. Morokuma, O. Farkas, 
 J. B. Foresman, and D. J. Fox, Gaussian, Inc., Wallingford CT, 2016.
 
 ******************************************
 Gaussian 16:  ES64L-G16RevB.01 20-Dec-2017
                16-Jun-2022 
 ******************************************
 %mem=1000mw
 %nprocs=12
 Will use up to   12 processors via shared memory.
 --------------------
 # b3lyp/gen opt freq
 --------------------
 1/18=20,19=15,26=3,38=1/1,3;
 2/9=110,12=2,17=6,18=5,40=1/2;
 3/5=7,11=2,25=1,30=1,71=1,74=-5/1,2,3;
 4//1;
 5/5=2,38=5/2;
 6/7=2,8=2,9=2,10=2,28=1/1;
 7//1,2,3,16;
 1/18=20,19=15,26=3/3(2);
 2/9=110/2;
 99//99;
 2/9=110/2;
 3/5=7,6=1,11=2,25=1,30=1,71=1,74=-5,82=7/1,2,3;
 4/5=5,16=3,69=1/1;
 5/5=2,38=5/2;
 7//1,2,3,16;
 1/18=20,19=15,26=3/3(-5);
 2/9=110/2;
 6/7=2,8=2,9=2,10=2,19=2,28=1/1;
 99/9=1/99;
 --------------------------------
 difluoromethylene, B3LYP/pcseg-2
 --------------------------------
 Symbolic Z-matrix:
 Charge =  0 Multiplicity = 1
 C                     0.        0.        0.59831 
 F                     0.        1.02959  -0.19944 
 F                     0.       -1.02959  -0.19944 
 

 GradGradGradGradGradGradGradGradGradGradGradGradGradGradGradGradGradGrad
 Berny optimization.
 Initialization pass.
                           ----------------------------
                           !    Initial Parameters    !
                           ! (Angstroms and Degrees)  !
 --------------------------                            --------------------------
 ! Name  Definition              Value          Derivative Info.                !
 --------------------------------------------------------------------------------
 ! R1    R(1,2)                  1.3025         estimate D2E/DX2                !
 ! R2    R(1,3)                  1.3025         estimate D2E/DX2                !
 ! A1    A(2,1,3)              104.4612         estimate D2E/DX2                !
 --------------------------------------------------------------------------------
 Trust Radius=3.00D-01 FncErr=1.00D-07 GrdErr=1.00D-06 EigMax=2.50D+02 EigMin=1.00D-04
 Number of steps in this run=     20 maximum allowed number of steps=    100.
 GradGradGradGradGradGradGradGradGradGradGradGradGradGradGradGradGradGrad

                          Input orientation:                          
 ---------------------------------------------------------------------
 Center     Atomic      Atomic             Coordinates (Angstroms)
 Number     Number       Type             X           Y           Z
 ---------------------------------------------------------------------
      1          6           0        0.000000    0.000000    0.598311
      2          9           0        0.000000    1.029586   -0.199437
      3          9           0        0.000000   -1.029586   -0.199437
 ---------------------------------------------------------------------
                    Distance matrix (angstroms):
                    1          2          3
     1  C    0.000000
     2  F    1.302478   0.000000
     3  F    1.302478   2.059172   0.000000
 Stoichiometry    CF2
 Framework group  C2V[C2(C),SGV(F2)]
 Deg. of freedom     2
 Full point group                 C2V     NOp   4
 Largest Abelian subgroup         C2V     NOp   4
 Largest concise Abelian subgroup C2      NOp   2
                         Standard orientation:                         
 ---------------------------------------------------------------------
 Center     Atomic      Atomic             Coordinates (Angstroms)
 Number     Number       Type             X           Y           Z
 ---------------------------------------------------------------------
      1          6           0        0.000000   -0.000000    0.598311
      2          9           0        0.000000    1.029586   -0.199437
      3          9           0       -0.000000   -1.029586   -0.199437
 ---------------------------------------------------------------------
 Rotational constants (GHZ):          87.0762411          12.5471429          10.9668835
 General basis read from cards:  (5D, 7F)
 There are    40 symmetry adapted cartesian basis functions of A1  symmetry.
 There are    14 symmetry adapted cartesian basis functions of A2  symmetry.
 There are    19 symmetry adapted cartesian basis functions of B1  symmetry.
 There are    32 symmetry adapted cartesian basis functions of B2  symmetry.
 There are    33 symmetry adapted basis functions of A1  symmetry.
 There are    13 symmetry adapted basis functions of A2  symmetry.
 There are    17 symmetry adapted basis functions of B1  symmetry.
 There are    27 symmetry adapted basis functions of B2  symmetry.
    90 basis functions,   153 primitive gaussians,   105 cartesian basis functions
    12 alpha electrons       12 beta electrons
       nuclear repulsion energy        64.6945915429 Hartrees.
 NAtoms=    3 NActive=    3 NUniq=    2 SFac= 2.25D+00 NAtFMM=   60 NAOKFM=F Big=F
 Integral buffers will be    131072 words long.
 Raffenetti 2 integral format.
 Two-electron integral symmetry is turned on.
 One-electron integrals computed using PRISM.
 NBasis=    90 RedAO= T EigKep=  3.30D-03  NBF=    33    13    17    27
 NBsUse=    90 1.00D-06 EigRej= -1.00D+00 NBFU=    33    13    17    27
 ExpMin= 8.49D-02 ExpMax= 1.75D+04 ExpMxC= 5.96D+02 IAcc=3 IRadAn=         5 AccDes= 0.00D+00
 Harris functional with IExCor=  402 and IRadAn=       5 diagonalized for initial guess.
 HarFok:  IExCor=  402 AccDes= 0.00D+00 IRadAn=         5 IDoV= 1 UseB2=F ITyADJ=14
 ICtDFT=  3500011 ScaDFX=  1.000000  1.000000  1.000000  1.000000
 FoFCou: FMM=F IPFlag=           0 FMFlag=      100000 FMFlg1=           0
         NFxFlg=           0 DoJE=T BraDBF=F KetDBF=T FulRan=T
         wScrn=  0.000000 ICntrl=       500 IOpCl=  0 I1Cent=   200000004 NGrid=           0
         NMat0=    1 NMatS0=      1 NMatT0=    0 NMatD0=    1 NMtDS0=    0 NMtDT0=    0
 Petite list used in FoFCou.
 Initial guess orbital symmetries:
       Occupied  (A1) (B2) (A1) (A1) (B2) (A1) (B2) (B1) (A1) (A2)
                 (B2) (A1)
       Virtual   (B1) (B2) (A1) (A1) (B1) (B2) (A1) (B2) (A1) (A1)
                 (A2) (B1) (B2) (A1) (B2) (B1) (A2) (A1) (A1) (B2)
                 (B1) (A1) (B2) (B1) (A1) (A2) (B2) (A1) (B2) (A2)
                 (B1) (B2) (A1) (A1) (A2) (B1) (B2) (A1) (B1) (B2)
                 (A1) (A1) (A2) (B1) (B2) (A1) (B2) (A1) (B2) (B1)
                 (A2) (A1) (B1) (B2) (A1) (A2) (A2) (B2) (A1) (B1)
                 (B2) (B1) (A1) (A1) (A2) (B2) (A1) (B2) (A1) (A2)
                 (B1) (B2) (B1) (B2) (A2) (B2) (A1) (A1)
 The electronic state of the initial guess is 1-A1.
 Keep R1 ints in memory in symmetry-blocked form, NReq=19565416.
 Requested convergence on RMS density matrix=1.00D-08 within 128 cycles.
 Requested convergence on MAX density matrix=1.00D-06.
 Requested convergence on             energy=1.00D-06.
 No special actions if energy rises.
 Integral accuracy reduced to 1.0D-05 until final iterations.
 Initial convergence to 1.0D-05 achieved.  Increase integral accuracy.
 SCF Done:  E(RB3LYP) =  -237.803978134     A.U. after   10 cycles
            NFock= 10  Conv=0.35D-08     -V/T= 2.0025

 **********************************************************************

            Population analysis using the SCF Density.

 **********************************************************************

 Orbital symmetries:
       Occupied  (B2) (A1) (A1) (A1) (B2) (A1) (B2) (B1) (A1) (A2)
                 (B2) (A1)
       Virtual   (B1) (B2) (A1) (B1) (A1) (A1) (B2) (B2) (A1) (A1)
                 (A2) (B1) (B2) (A1) (B2) (B1) (A2) (A1) (A1) (B2)
                 (B1) (A1) (B2) (B1) (A1) (A2) (B2) (A1) (B2) (A2)
                 (B1) (B2) (A1) (A1) (A2) (B1) (B2) (A1) (B1) (B2)
                 (A1) (A1) (A2) (B1) (B2) (A1) (B2) (A1) (B1) (B2)
                 (A2) (A1) (B1) (A1) (B2) (A2) (A2) (B2) (A1) (B1)
                 (B2) (B1) (A1) (A1) (A2) (B2) (A1) (B2) (A1) (A2)
                 (B1) (B2) (B1) (B2) (A2) (B2) (A1) (A1)
 The electronic state is 1-A1.
 Alpha  occ. eigenvalues --  -24.76461 -24.76461 -10.38827  -1.35097  -1.27473
 Alpha  occ. eigenvalues --   -0.72024  -0.61736  -0.57079  -0.56359  -0.49472
 Alpha  occ. eigenvalues --   -0.46752  -0.31938
 Alpha virt. eigenvalues --   -0.09982   0.08908   0.09076   0.15380   0.15676
 Alpha virt. eigenvalues --    0.26716   0.27396   0.38301   0.41511   0.45088
 Alpha virt. eigenvalues --    0.45251   0.47555   0.58094   0.75787   0.82590
 Alpha virt. eigenvalues --    0.96287   0.97645   1.02148   1.09167   1.12197
 Alpha virt. eigenvalues --    1.17881   1.27653   1.64619   1.74190   1.78696
 Alpha virt. eigenvalues --    1.81238   1.92283   2.06489   2.13543   2.16857
 Alpha virt. eigenvalues --    2.20162   2.24180   2.31774   2.39166   2.75531
 Alpha virt. eigenvalues --    2.81798   2.83795   2.94187   3.20995   3.29556
 Alpha virt. eigenvalues --    3.42225   3.45065   3.53458   3.61323   3.65983
 Alpha virt. eigenvalues --    3.80424   3.82326   3.98079   4.06232   4.07444
 Alpha virt. eigenvalues --    4.17381   4.21057   4.32511   4.34908   4.35071
 Alpha virt. eigenvalues --    4.35800   4.39819   4.61259   4.72192   4.91638
 Alpha virt. eigenvalues --    4.97056   5.15890   5.33531   5.49568   5.51525
 Alpha virt. eigenvalues --    5.66407   5.88310   6.05662   7.46521   7.47294
 Alpha virt. eigenvalues --    7.48251   7.54368   7.93450   7.94324   7.94393
 Alpha virt. eigenvalues --    8.09700   8.11562   8.12927
          Condensed to atoms (all electrons):
               1          2          3
     1  C    5.440787   0.134312   0.134312
     2  F    0.134312   9.076431  -0.065450
     3  F    0.134312  -0.065450   9.076431
 Mulliken charges:
               1
     1  C    0.290588
     2  F   -0.145294
     3  F   -0.145294
 Sum of Mulliken charges =   0.00000
 Mulliken charges with hydrogens summed into heavy atoms:
               1
     1  C    0.290588
     2  F   -0.145294
     3  F   -0.145294
 Electronic spatial extent (au):  <R**2>=            114.0727
 Charge=              0.0000 electrons
 Dipole moment (field-independent basis, Debye):
    X=              0.0000    Y=              0.0000    Z=             -0.6005  Tot=              0.6005
 Quadrupole moment (field-independent basis, Debye-Ang):
   XX=            -14.4801   YY=            -16.1202   ZZ=            -17.4267
   XY=             -0.0000   XZ=             -0.0000   YZ=              0.0000
 Traceless Quadrupole moment (field-independent basis, Debye-Ang):
   XX=              1.5289   YY=             -0.1112   ZZ=             -1.4177
   XY=             -0.0000   XZ=             -0.0000   YZ=              0.0000
 Octapole moment (field-independent basis, Debye-Ang**2):
  XXX=              0.0000  YYY=              0.0000  ZZZ=             -8.8139  XYY=              0.0000
  XXY=             -0.0000  XXZ=             -1.7067  XZZ=              0.0000  YZZ=              0.0000
  YYZ=             -1.6561  XYZ=              0.0000
 Hexadecapole moment (field-independent basis, Debye-Ang**3):
 XXXX=            -11.5226 YYYY=            -73.3241 ZZZZ=            -35.6507 XXXY=             -0.0000
 XXXZ=             -0.0000 YYYX=             -0.0000 YYYZ=              0.0000 ZZZX=             -0.0000
 ZZZY=             -0.0000 XXYY=            -14.0369 XXZZ=             -7.2329 YYZZ=            -16.8952
 XXYZ=              0.0000 YYXZ=             -0.0000 ZZXY=             -0.0000
 N-N= 6.469459154293D+01 E-N=-6.943997494020D+02  KE= 2.372176912122D+02
 Symmetry A1   KE= 1.294827174945D+02
 Symmetry A2   KE= 6.718157882977D+00
 Symmetry B1   KE= 5.345064253806D+00
 Symmetry B2   KE= 9.567175158088D+01
 Calling FoFJK, ICntrl=      2127 FMM=F ISym2X=1 I1Cent= 0 IOpClX= 0 NMat=1 NMatS=1 NMatT=0.
 ***** Axes restored to original set *****
 -------------------------------------------------------------------
 Center     Atomic                   Forces (Hartrees/Bohr)
 Number     Number              X              Y              Z
 -------------------------------------------------------------------
      1        6          -0.000000000   -0.000000000   -0.000033271
      2        9           0.000000000    0.002077807    0.000016636
      3        9           0.000000000   -0.002077807    0.000016636
 -------------------------------------------------------------------
 Cartesian Forces:  Max     0.002077807 RMS     0.000979582

 GradGradGradGradGradGradGradGradGradGradGradGradGradGradGradGradGradGrad
 Berny optimization.
 FormGI is forming the generalized inverse of G from B-inverse, IUseBI=4.
 Internal  Forces:  Max     0.003164713 RMS     0.002261569
 Search for a local minimum.
 Step number   1 out of a maximum of   20
 All quantities printed in internal units (Hartrees-Bohrs-Radians)
 Mixed Optimization -- RFO/linear search
 Second derivative matrix not updated -- first step.
 The second derivative matrix:
                          R1        R2        A1
           R1           0.66510
           R2           0.00000   0.66510
           A1           0.00000   0.00000   0.25000
 ITU=  0
     Eigenvalues ---    0.25000   0.66510   0.66510
 RFO step:  Lambda=-4.80735295D-05 EMin= 2.50000000D-01
 Linear search not attempted -- first point.
 Iteration  1 RMS(Cart)=  0.01066348 RMS(Int)=  0.00004068
 Iteration  2 RMS(Cart)=  0.00002978 RMS(Int)=  0.00000000
 Iteration  3 RMS(Cart)=  0.00000000 RMS(Int)=  0.00000000
 ClnCor:  largest displacement from symmetrization is 5.24D-16 for atom     3.
 Variable       Old X    -DE/DX   Delta X   Delta X   Delta X     New X
                                 (Linear)    (Quad)   (Total)
    R1        2.46133   0.00163   0.00000   0.00245   0.00245   2.46378
    R2        2.46133   0.00163   0.00000   0.00245   0.00245   2.46378
    A1        1.82319   0.00316   0.00000   0.01266   0.01266   1.83585
         Item               Value     Threshold  Converged?
 Maximum Force            0.003165     0.000450     NO 
 RMS     Force            0.002262     0.000300     NO 
 Maximum Displacement     0.011450     0.001800     NO 
 RMS     Displacement     0.010657     0.001200     NO 
 Predicted change in Energy=-2.403676D-05
 GradGradGradGradGradGradGradGradGradGradGradGradGradGradGradGradGradGrad

                          Input orientation:                          
 ---------------------------------------------------------------------
 Center     Atomic      Atomic             Coordinates (Angstroms)
 Number     Number       Type             X           Y           Z
 ---------------------------------------------------------------------
      1          6           0        0.000000    0.000000    0.594483
      2          9           0        0.000000    1.035645   -0.197523
      3          9           0       -0.000000   -1.035645   -0.197523
 ---------------------------------------------------------------------
                    Distance matrix (angstroms):
                    1          2          3
     1  C    0.000000
     2  F    1.303777   0.000000
     3  F    1.303777   2.071290   0.000000
 Stoichiometry    CF2
 Framework group  C2V[C2(C),SGV(F2)]
 Deg. of freedom     2
 Full point group                 C2V     NOp   4
 Largest Abelian subgroup         C2V     NOp   4
 Largest concise Abelian subgroup C2      NOp   2
                         Standard orientation:                         
 ---------------------------------------------------------------------
 Center     Atomic      Atomic             Coordinates (Angstroms)
 Number     Number       Type             X           Y           Z
 ---------------------------------------------------------------------
      1          6           0        0.000000    0.000000    0.594004
      2          9           0        0.000000    1.035645   -0.198001
      3          9           0       -0.000000   -1.035645   -0.198001
 ---------------------------------------------------------------------
 Rotational constants (GHZ):          88.3435245          12.4007542          10.8743280
 Basis read from rwf:  (5D, 7F)
 There are    40 symmetry adapted cartesian basis functions of A1  symmetry.
 There are    14 symmetry adapted cartesian basis functions of A2  symmetry.
 There are    19 symmetry adapted cartesian basis functions of B1  symmetry.
 There are    32 symmetry adapted cartesian basis functions of B2  symmetry.
 There are    33 symmetry adapted basis functions of A1  symmetry.
 There are    13 symmetry adapted basis functions of A2  symmetry.
 There are    17 symmetry adapted basis functions of B1  symmetry.
 There are    27 symmetry adapted basis functions of B2  symmetry.
    90 basis functions,   153 primitive gaussians,   105 cartesian basis functions
    12 alpha electrons       12 beta electrons
       nuclear repulsion energy        64.5291001428 Hartrees.
 NAtoms=    3 NActive=    3 NUniq=    2 SFac= 2.25D+00 NAtFMM=   60 NAOKFM=F Big=F
 Integral buffers will be    131072 words long.
 Raffenetti 2 integral format.
 Two-electron integral symmetry is turned on.
 One-electron integrals computed using PRISM.
 NBasis=    90 RedAO= T EigKep=  3.32D-03  NBF=    33    13    17    27
 NBsUse=    90 1.00D-06 EigRej= -1.00D+00 NBFU=    33    13    17    27
 Initial guess from the checkpoint file:  "/wrk/irikura/Gau-1806.chk"
 B after Tr=    -0.000000    0.000000   -0.000000
         Rot=    1.000000   -0.000000    0.000000    0.000000 Ang=   0.00 deg.
 Initial guess orbital symmetries:
       Occupied  (B2) (A1) (A1) (A1) (B2) (A1) (B2) (B1) (A1) (A2)
                 (B2) (A1)
       Virtual   (B1) (B2) (A1) (B1) (A1) (A1) (B2) (B2) (A1) (A1)
                 (A2) (B1) (B2) (A1) (B2) (B1) (A2) (A1) (A1) (B2)
                 (B1) (A1) (B2) (B1) (A1) (A2) (B2) (A1) (B2) (A2)
                 (B1) (B2) (A1) (A1) (A2) (B1) (B2) (A1) (B1) (B2)
                 (A1) (A1) (A2) (B1) (B2) (A1) (B2) (A1) (B1) (B2)
                 (A2) (A1) (B1) (A1) (B2) (A2) (A2) (B2) (A1) (B1)
                 (B2) (B1) (A1) (A1) (A2) (B2) (A1) (B2) (A1) (A2)
                 (B1) (B2) (B1) (B2) (A2) (B2) (A1) (A1)
 Keep R1 ints in memory in symmetry-blocked form, NReq=19565416.
 Requested convergence on RMS density matrix=1.00D-08 within 128 cycles.
 Requested convergence on MAX density matrix=1.00D-06.
 Requested convergence on             energy=1.00D-06.
 No special actions if energy rises.
 SCF Done:  E(RB3LYP) =  -237.803974305     A.U. after    7 cycles
            NFock=  7  Conv=0.33D-08     -V/T= 2.0025
 Calling FoFJK, ICntrl=      2127 FMM=F ISym2X=1 I1Cent= 0 IOpClX= 0 NMat=1 NMatS=1 NMatT=0.
 ***** Axes restored to original set *****
 -------------------------------------------------------------------
 Center     Atomic                   Forces (Hartrees/Bohr)
 Number     Number              X              Y              Z
 -------------------------------------------------------------------
      1        6          -0.000000000   -0.000000000    0.001930950
      2        9           0.000000000   -0.001490906   -0.000965475
      3        9           0.000000000    0.001490906   -0.000965475
 -------------------------------------------------------------------
 Cartesian Forces:  Max     0.001930950 RMS     0.001056117

 GradGradGradGradGradGradGradGradGradGradGradGradGradGradGradGradGradGrad
 Berny optimization.
 Using GEDIIS/GDIIS optimizer.
 FormGI is forming the generalized inverse of G from B-inverse, IUseBI=4.
 Internal  Forces:  Max     0.004120916 RMS     0.002428763
 Search for a local minimum.
 Step number   2 out of a maximum of   20
 All quantities printed in internal units (Hartrees-Bohrs-Radians)
 Mixed Optimization -- RFO/linear search
 Update second derivatives using D2CorX and points    2    1
 DE=  3.83D-06 DEPred=-2.40D-05 R=-1.59D-01
 Trust test=-1.59D-01 RLast= 1.31D-02 DXMaxT set to 1.50D-01
 The second derivative matrix:
                          R1        R2        A1
           R1           0.65787
           R2          -0.00722   0.65787
           A1           0.05004   0.05004   0.55624
 ITU= -1  0
 Use linear search instead of GDIIS.
     Eigenvalues ---    0.51838   0.66510   0.68852
 RFO step:  Lambda=-1.28468137D-06 EMin= 5.18376785D-01
 Quartic linear search produced a step of -0.53863.
 Iteration  1 RMS(Cart)=  0.00579849 RMS(Int)=  0.00001381
 Iteration  2 RMS(Cart)=  0.00001159 RMS(Int)=  0.00000000
 Iteration  3 RMS(Cart)=  0.00000000 RMS(Int)=  0.00000000
 ClnCor:  largest displacement from symmetrization is 4.28D-16 for atom     1.
 Variable       Old X    -DE/DX   Delta X   Delta X   Delta X     New X
                                 (Linear)    (Quad)   (Total)
    R1        2.46378  -0.00060  -0.00132   0.00096  -0.00036   2.46342
    R2        2.46378  -0.00060  -0.00132   0.00096  -0.00036   2.46342
    A1        1.83585  -0.00412  -0.00682  -0.00059  -0.00741   1.82844
         Item               Value     Threshold  Converged?
 Maximum Force            0.004121     0.000450     NO 
 RMS     Force            0.002429     0.000300     NO 
 Maximum Displacement     0.005841     0.001800     NO 
 RMS     Displacement     0.005804     0.001200     NO 
 Predicted change in Energy=-1.151484D-05
 GradGradGradGradGradGradGradGradGradGradGradGradGradGradGradGradGradGrad

                          Input orientation:                          
 ---------------------------------------------------------------------
 Center     Atomic      Atomic             Coordinates (Angstroms)
 Number     Number       Type             X           Y           Z
 ---------------------------------------------------------------------
      1          6           0       -0.000000   -0.000000    0.596958
      2          9           0        0.000000    1.032555   -0.198761
      3          9           0       -0.000000   -1.032555   -0.198761
 ---------------------------------------------------------------------
                    Distance matrix (angstroms):
                    1          2          3
     1  C    0.000000
     2  F    1.303586   0.000000
     3  F    1.303586   2.065109   0.000000
 Stoichiometry    CF2
 Framework group  C2V[C2(C),SGV(F2)]
 Deg. of freedom     2
 Full point group                 C2V     NOp   4
 Largest Abelian subgroup         C2V     NOp   4
 Largest concise Abelian subgroup C2      NOp   2
                         Standard orientation:                         
 ---------------------------------------------------------------------
 Center     Atomic      Atomic             Coordinates (Angstroms)
 Number     Number       Type             X           Y           Z
 ---------------------------------------------------------------------
      1          6           0        0.000000    0.000000    0.596789
      2          9           0       -0.000000    1.032555   -0.198930
      3          9           0       -0.000000   -1.032555   -0.198930
 ---------------------------------------------------------------------
 Rotational constants (GHZ):          87.5208604          12.4751020          10.9187575
 Basis read from rwf:  (5D, 7F)
 There are    40 symmetry adapted cartesian basis functions of A1  symmetry.
 There are    14 symmetry adapted cartesian basis functions of A2  symmetry.
 There are    19 symmetry adapted cartesian basis functions of B1  symmetry.
 There are    32 symmetry adapted cartesian basis functions of B2  symmetry.
 There are    33 symmetry adapted basis functions of A1  symmetry.
 There are    13 symmetry adapted basis functions of A2  symmetry.
 There are    17 symmetry adapted basis functions of B1  symmetry.
 There are    27 symmetry adapted basis functions of B2  symmetry.
    90 basis functions,   153 primitive gaussians,   105 cartesian basis functions
    12 alpha electrons       12 beta electrons
       nuclear repulsion energy        64.5974391005 Hartrees.
 NAtoms=    3 NActive=    3 NUniq=    2 SFac= 2.25D+00 NAtFMM=   60 NAOKFM=F Big=F
 Integral buffers will be    131072 words long.
 Raffenetti 2 integral format.
 Two-electron integral symmetry is turned on.
 One-electron integrals computed using PRISM.
 NBasis=    90 RedAO= T EigKep=  3.32D-03  NBF=    33    13    17    27
 NBsUse=    90 1.00D-06 EigRej= -1.00D+00 NBFU=    33    13    17    27
 Lowest energy guess from the checkpoint file:  "/wrk/irikura/Gau-1806.chk"
 B after Tr=    -0.000000   -0.000000   -0.000000
         Rot=    1.000000    0.000000    0.000000   -0.000000 Ang=   0.00 deg.
 B after Tr=     0.000000    0.000000   -0.000000
         Rot=    1.000000    0.000000   -0.000000   -0.000000 Ang=   0.00 deg.
 Initial guess orbital symmetries:
       Occupied  (A1) (B2) (A1) (B2) (B1) (A1) (A2) (A1) (B2) (A1)
                 (B2) (A1)
       Virtual   (A1) (B2) (A1) (B2) (B1) (A1) (A2) (A1) (B2) (A1)
                 (B2) (A1) (B2) (B2) (B2) (B2) (A2) (B2) (B2) (B2)
                 (B2) (B2) (B2) (B2) (B2) (B2) (B2) (B2) (B2) (B2)
                 (B2) (B2) (B2) (B2) (B2) (B1) (B2) (B2) (B2) (B2)
                 (B2) (B2) (B2) (B2) (B2) (B2) (B2) (B2) (B2) (B2)
                 (B2) (B2) (B2) (B2) (B2) (B2) (B2) (B2) (B2) (B2)
                 (B2) (B2) (B2) (B2) (A2) (B2) (B2) (B2) (B2) (B2)
                 (B2) (B2) (B2) (B2) (B2) (B2) (B2) (B2)
 Keep R1 ints in memory in symmetry-blocked form, NReq=19565416.
 Requested convergence on RMS density matrix=1.00D-08 within 128 cycles.
 Requested convergence on MAX density matrix=1.00D-06.
 Requested convergence on             energy=1.00D-06.
 No special actions if energy rises.
 An orbital has undefined symmetry, so N**3 symmetry is turned off.
 SCF Done:  E(RB3LYP) =  -237.803990004     A.U. after    6 cycles
            NFock=  6  Conv=0.29D-08     -V/T= 2.0025
 Calling FoFJK, ICntrl=      2127 FMM=F ISym2X=1 I1Cent= 0 IOpClX= 0 NMat=1 NMatS=1 NMatT=0.
 ***** Axes restored to original set *****
 -------------------------------------------------------------------
 Center     Atomic                   Forces (Hartrees/Bohr)
 Number     Number              X              Y              Z
 -------------------------------------------------------------------
      1        6          -0.000000000   -0.000000000    0.000243244
      2        9           0.000000000    0.000115221   -0.000121622
      3        9           0.000000000   -0.000115221   -0.000121622
 -------------------------------------------------------------------
 Cartesian Forces:  Max     0.000243244 RMS     0.000113188

 GradGradGradGradGradGradGradGradGradGradGradGradGradGradGradGradGradGrad
 Berny optimization.
 Using GEDIIS/GDIIS optimizer.
 FormGI is forming the generalized inverse of G from B-inverse, IUseBI=4.
 Internal  Forces:  Max     0.000165504 RMS     0.000140103
 Search for a local minimum.
 Step number   3 out of a maximum of   20
 All quantities printed in internal units (Hartrees-Bohrs-Radians)
 Mixed Optimization -- En-DIIS/RFO-DIIS
 Update second derivatives using D2CorX and points    2    1    3
 DE= -1.19D-05 DEPred=-1.15D-05 R= 1.03D+00
 TightC=F SS=  1.41D+00  RLast= 6.03D-03 DXNew= 2.5227D-01 1.8084D-02
 Trust test= 1.03D+00 RLast= 6.03D-03 DXMaxT set to 1.50D-01
 The second derivative matrix:
                          R1        R2        A1
           R1           0.62778
           R2          -0.03731   0.62778
           A1           0.04381   0.04381   0.58003
 ITU=  1 -1  0
 Use linear search instead of GDIIS.
     Eigenvalues ---    0.52307   0.64743   0.66510
 RFO step:  Lambda=-1.00925507D-07 EMin= 5.23073710D-01
 Quartic linear search produced a step of  0.01560.
 Iteration  1 RMS(Cart)=  0.00018130 RMS(Int)=  0.00000001
 Iteration  2 RMS(Cart)=  0.00000002 RMS(Int)=  0.00000000
 ClnCor:  largest displacement from symmetrization is 2.96D-17 for atom     1.
 Variable       Old X    -DE/DX   Delta X   Delta X   Delta X     New X
                                 (Linear)    (Quad)   (Total)
    R1        2.46342   0.00017   0.00003   0.00026   0.00029   2.46371
    R2        2.46342   0.00017   0.00003   0.00026   0.00029   2.46371
    A1        1.82844  -0.00006   0.00008  -0.00024  -0.00015   1.82829
         Item               Value     Threshold  Converged?
 Maximum Force            0.000166     0.000450     YES
 RMS     Force            0.000140     0.000300     YES
 Maximum Displacement     0.000219     0.001800     YES
 RMS     Displacement     0.000181     0.001200     YES
 Predicted change in Energy=-5.323545D-08
 Optimization completed.
    -- Stationary point found.
                           ----------------------------
                           !   Optimized Parameters   !
                           ! (Angstroms and Degrees)  !
 --------------------------                            --------------------------
 ! Name  Definition              Value          Derivative Info.                !
 --------------------------------------------------------------------------------
 ! R1    R(1,2)                  1.3036         -DE/DX =    0.0002              !
 ! R2    R(1,3)                  1.3036         -DE/DX =    0.0002              !
 ! A1    A(2,1,3)              104.762          -DE/DX =   -0.0001              !
 --------------------------------------------------------------------------------
 GradGradGradGradGradGradGradGradGradGradGradGradGradGradGradGradGradGrad

                          Input orientation:                          
 ---------------------------------------------------------------------
 Center     Atomic      Atomic             Coordinates (Angstroms)
 Number     Number       Type             X           Y           Z
 ---------------------------------------------------------------------
      1          6           0        0.000000   -0.000000    0.596958
      2          9           0        0.000000    1.032555   -0.198761
      3          9           0       -0.000000   -1.032555   -0.198761
 ---------------------------------------------------------------------
                    Distance matrix (angstroms):
                    1          2          3
     1  C    0.000000
     2  F    1.303586   0.000000
     3  F    1.303586   2.065109   0.000000
 Stoichiometry    CF2
 Framework group  C2V[C2(C),SGV(F2)]
 Deg. of freedom     2
 Full point group                 C2V     NOp   4
 Largest Abelian subgroup         C2V     NOp   4
 Largest concise Abelian subgroup C2      NOp   2
                         Standard orientation:                         
 ---------------------------------------------------------------------
 Center     Atomic      Atomic             Coordinates (Angstroms)
 Number     Number       Type             X           Y           Z
 ---------------------------------------------------------------------
      1          6           0       -0.000000    0.000000    0.596789
      2          9           0        0.000000    1.032555   -0.198930
      3          9           0       -0.000000   -1.032555   -0.198930
 ---------------------------------------------------------------------
 Rotational constants (GHZ):          87.5208604          12.4751020          10.9187575

 **********************************************************************

            Population analysis using the SCF Density.

 **********************************************************************

 Orbital symmetries:
       Occupied  (B2) (A1) (A1) (A1) (B2) (A1) (B2) (B1) (A1) (A2)
                 (B2) (A1)
       Virtual   (B1) (B2) (A1) (B1) (A1) (A1) (B2) (B2) (A1) (A1)
                 (A2) (B1) (B2) (A1) (B2) (B1) (A2) (A1) (A1) (B2)
                 (B1) (A1) (B2) (B1) (A1) (A2) (B2) (A1) (B2) (A2)
                 (B1) (B2) (A1) (A1) (A2) (B1) (B2) (A1) (B1) (B2)
                 (A1) (A1) (A2) (B1) (B2) (A1) (B2) (A1) (B1) (B2)
                 (A2) (A1) (B1) (A1) (B2) (A2) (A2) (B2) (A1) (B1)
                 (B2) (B1) (A1) (A1) (A2) (B2) (A1) (B2) (A1) (A2)
                 (B1) (B2) (B1) (B2) (A2) (B2) (A1) (A1)
 The electronic state is 1-A1.
 Alpha  occ. eigenvalues --  -24.76481 -24.76480 -10.38859  -1.35010  -1.27484
 Alpha  occ. eigenvalues --   -0.72011  -0.61737  -0.57037  -0.56315  -0.49484
 Alpha  occ. eigenvalues --   -0.46811  -0.31910
 Alpha virt. eigenvalues --   -0.10018   0.08923   0.09031   0.15384   0.15676
 Alpha virt. eigenvalues --    0.26495   0.27386   0.38311   0.41461   0.45083
 Alpha virt. eigenvalues --    0.45234   0.47584   0.58064   0.75788   0.82552
 Alpha virt. eigenvalues --    0.96223   0.97637   1.02057   1.09238   1.12207
 Alpha virt. eigenvalues --    1.17866   1.27631   1.64476   1.74280   1.78830
 Alpha virt. eigenvalues --    1.81032   1.92498   2.06496   2.12899   2.16899
 Alpha virt. eigenvalues --    2.20072   2.24205   2.31616   2.39137   2.75508
 Alpha virt. eigenvalues --    2.81750   2.83648   2.94381   3.20974   3.29366
 Alpha virt. eigenvalues --    3.42066   3.44944   3.53332   3.61304   3.66092
 Alpha virt. eigenvalues --    3.80661   3.81932   3.97952   4.06134   4.07345
 Alpha virt. eigenvalues --    4.17306   4.20869   4.32551   4.34765   4.34912
 Alpha virt. eigenvalues --    4.35718   4.39714   4.60997   4.72247   4.91308
 Alpha virt. eigenvalues --    4.97620   5.15803   5.32695   5.48852   5.51181
 Alpha virt. eigenvalues --    5.66324   5.88086   6.05483   7.46674   7.47156
 Alpha virt. eigenvalues --    7.48312   7.54300   7.93362   7.93848   7.94332
 Alpha virt. eigenvalues --    8.09503   8.11716   8.12800
          Condensed to atoms (all electrons):
               1          2          3
     1  C    5.442986   0.133250   0.133250
     2  F    0.133250   9.076057  -0.064051
     3  F    0.133250  -0.064051   9.076057
 Mulliken charges:
               1
     1  C    0.290513
     2  F   -0.145256
     3  F   -0.145256
 Sum of Mulliken charges =  -0.00000
 Mulliken charges with hydrogens summed into heavy atoms:
               1
     1  C    0.290513
     2  F   -0.145256
     3  F   -0.145256
 Electronic spatial extent (au):  <R**2>=            114.4232
 Charge=             -0.0000 electrons
 Dipole moment (field-independent basis, Debye):
    X=              0.0000    Y=              0.0000    Z=             -0.6034  Tot=              0.6034
 Quadrupole moment (field-independent basis, Debye-Ang):
   XX=            -14.4839   YY=            -16.1251   ZZ=            -17.4301
   XY=             -0.0000   XZ=             -0.0000   YZ=             -0.0000
 Traceless Quadrupole moment (field-independent basis, Debye-Ang):
   XX=              1.5291   YY=             -0.1121   ZZ=             -1.4171
   XY=             -0.0000   XZ=             -0.0000   YZ=             -0.0000
 Octapole moment (field-independent basis, Debye-Ang**2):
  XXX=              0.0000  YYY=              0.0000  ZZZ=             -8.7943  XYY=              0.0000
  XXY=             -0.0000  XXZ=             -1.7045  XZZ=              0.0000  YZZ=             -0.0000
  YYZ=             -1.6522  XYZ=              0.0000
 Hexadecapole moment (field-independent basis, Debye-Ang**3):
 XXXX=            -11.5292 YYYY=            -73.6652 ZZZZ=            -35.5656 XXXY=             -0.0000
 XXXZ=             -0.0000 YYYX=             -0.0000 YYYZ=              0.0000 ZZZX=             -0.0000
 ZZZY=              0.0000 XXYY=            -14.0979 XXZZ=             -7.2234 YYZZ=            -16.9470
 XXYZ=              0.0000 YYXZ=             -0.0000 ZZXY=             -0.0000
 N-N= 6.459743910049D+01 E-N=-6.942000509705D+02  KE= 2.372101850319D+02
 Symmetry A1   KE= 1.294875828466D+02
 Symmetry A2   KE= 6.715711939757D+00
 Symmetry B1   KE= 5.347668621234D+00
 Symmetry B2   KE= 9.565922162432D+01
 1\1\GINC-GAMBA\FOpt\RB3LYP\Gen\C1F2\IRIKURA\16-Jun-2022\0\\# b3lyp/gen
  opt freq\\difluoromethylene, B3LYP/pcseg-2\\0,1\C,0.,0.,0.5969583863\
 F,0.,1.0325545336,-0.1987606931\F,0.,-1.0325545336,-0.1987606931\\Vers
 ion=ES64L-G16RevB.01\State=1-A1\HF=-237.80399\RMSD=2.924e-09\RMSF=1.13
 2e-04\Dipole=0.,0.,-0.2373927\Quadrupole=1.1368554,-0.0833125,-1.05354
 29,0.,0.,0.\PG=C02V [C2(C1),SGV(F2)]\\@


 ... IT CAN BE VERY DIFFICULT, IN THESE COMPLEX TIMES,
 TO UNDERSTAND JUST HOW SCIENTISTS DO WHAT THEY DO.

                     DON MOSER IN THE FEBRUARY 1979 SMITHSONIAN
 Job cpu time:       0 days  0 hours  1 minutes 34.0 seconds.
 Elapsed time:       0 days  0 hours  0 minutes  8.0 seconds.
 File lengths (MBytes):  RWF=     10 Int=      0 D2E=      0 Chk=      2 Scr=      1
 Normal termination of Gaussian 16 at Thu Jun 16 14:05:38 2022.
 Link1:  Proceeding to internal job step number  2.
 ------------------------------------------------------------------
 #N Geom=AllCheck Guess=TCheck SCRF=Check GenChk RB3LYP/ChkBas Freq
 ------------------------------------------------------------------
 1/10=4,29=7,30=1,38=1,40=1/1,3;
 2/12=2,40=1/2;
 3/5=7,6=2,11=2,14=-4,25=1,30=1,67=1,70=2,71=2,74=-5,82=7,116=1,140=1/1,2,3;
 4/5=101/1;
 5/5=2,38=6,98=1/2;
 8/6=4,10=90,11=11/1;
 11/6=1,8=1,9=11,15=111,16=1/1,2,10;
 10/6=1/2;
 6/7=2,8=2,9=2,10=2,28=1/1;
 7/8=1,10=1,25=1/1,2,3,16;
 1/10=4,30=1/3;
 99//99;
 Structure from the checkpoint file:  "/wrk/irikura/Gau-1806.chk"
 --------------------------------
 difluoromethylene, B3LYP/pcseg-2
 --------------------------------
 Charge =  0 Multiplicity = 1
 Redundant internal coordinates found in file.  (old form).
 C,0,0.,0.,0.5969583863
 F,0,0.,1.0325545336,-0.1987606931
 F,0,0.,-1.0325545336,-0.1987606931
 Recover connectivity data from disk.

 GradGradGradGradGradGradGradGradGradGradGradGradGradGradGradGradGradGrad
 Berny optimization.
 Initialization pass.
                           ----------------------------
                           !    Initial Parameters    !
                           ! (Angstroms and Degrees)  !
 --------------------------                            --------------------------
 ! Name  Definition              Value          Derivative Info.                !
 --------------------------------------------------------------------------------
 ! R1    R(1,2)                  1.3036         calculate D2E/DX2 analytically  !
 ! R2    R(1,3)                  1.3036         calculate D2E/DX2 analytically  !
 ! A1    A(2,1,3)              104.762          calculate D2E/DX2 analytically  !
 --------------------------------------------------------------------------------
 Trust Radius=3.00D-01 FncErr=1.00D-07 GrdErr=1.00D-07 EigMax=2.50D+02 EigMin=1.00D-04
 Number of steps in this run=      2 maximum allowed number of steps=      2.
 GradGradGradGradGradGradGradGradGradGradGradGradGradGradGradGradGradGrad

                          Input orientation:                          
 ---------------------------------------------------------------------
 Center     Atomic      Atomic             Coordinates (Angstroms)
 Number     Number       Type             X           Y           Z
 ---------------------------------------------------------------------
      1          6           0        0.000000   -0.000000    0.596958
      2          9           0        0.000000    1.032555   -0.198761
      3          9           0       -0.000000   -1.032555   -0.198761
 ---------------------------------------------------------------------
                    Distance matrix (angstroms):
                    1          2          3
     1  C    0.000000
     2  F    1.303586   0.000000
     3  F    1.303586   2.065109   0.000000
 Stoichiometry    CF2
 Framework group  C2V[C2(C),SGV(F2)]
 Deg. of freedom     2
 Full point group                 C2V     NOp   4
 Largest Abelian subgroup         C2V     NOp   4
 Largest concise Abelian subgroup C2      NOp   2
                         Standard orientation:                         
 ---------------------------------------------------------------------
 Center     Atomic      Atomic             Coordinates (Angstroms)
 Number     Number       Type             X           Y           Z
 ---------------------------------------------------------------------
      1          6           0       -0.000000    0.000000    0.596789
      2          9           0        0.000000    1.032555   -0.198930
      3          9           0       -0.000000   -1.032555   -0.198930
 ---------------------------------------------------------------------
 Rotational constants (GHZ):          87.5208604          12.4751020          10.9187575
 Basis read from chk: "/wrk/irikura/Gau-1806.chk" (5D, 7F)
 There are    40 symmetry adapted cartesian basis functions of A1  symmetry.
 There are    14 symmetry adapted cartesian basis functions of A2  symmetry.
 There are    19 symmetry adapted cartesian basis functions of B1  symmetry.
 There are    32 symmetry adapted cartesian basis functions of B2  symmetry.
 There are    33 symmetry adapted basis functions of A1  symmetry.
 There are    13 symmetry adapted basis functions of A2  symmetry.
 There are    17 symmetry adapted basis functions of B1  symmetry.
 There are    27 symmetry adapted basis functions of B2  symmetry.
    90 basis functions,   153 primitive gaussians,   105 cartesian basis functions
    12 alpha electrons       12 beta electrons
       nuclear repulsion energy        64.5974391005 Hartrees.
 NAtoms=    3 NActive=    3 NUniq=    2 SFac= 2.25D+00 NAtFMM=   60 NAOKFM=F Big=F
 Integral buffers will be    131072 words long.
 Raffenetti 2 integral format.
 Two-electron integral symmetry is turned on.
 One-electron integrals computed using PRISM.
 NBasis=    90 RedAO= T EigKep=  3.32D-03  NBF=    33    13    17    27
 NBsUse=    90 1.00D-06 EigRej= -1.00D+00 NBFU=    33    13    17    27
 Initial guess from the checkpoint file:  "/wrk/irikura/Gau-1806.chk"
 B after Tr=     0.000000    0.000000    0.000000
         Rot=    1.000000    0.000000   -0.000000    0.000000 Ang=   0.00 deg.
 Initial guess orbital symmetries:
       Occupied  (B2) (A1) (A1) (A1) (B2) (A1) (B2) (B1) (A1) (A2)
                 (B2) (A1)
       Virtual   (B1) (B2) (A1) (B1) (A1) (A1) (B2) (B2) (A1) (A1)
                 (A2) (B1) (B2) (A1) (B2) (B1) (A2) (A1) (A1) (B2)
                 (B1) (A1) (B2) (B1) (A1) (A2) (B2) (A1) (B2) (A2)
                 (B1) (B2) (A1) (A1) (A2) (B1) (B2) (A1) (B1) (B2)
                 (A1) (A1) (A2) (B1) (B2) (A1) (B2) (A1) (B1) (B2)
                 (A2) (A1) (B1) (A1) (B2) (A2) (A2) (B2) (A1) (B1)
                 (B2) (B1) (A1) (A1) (A2) (B2) (A1) (B2) (A1) (A2)
                 (B1) (B2) (B1) (B2) (A2) (B2) (A1) (A1)
 Keep R1 ints in memory in symmetry-blocked form, NReq=19565416.
 Requested convergence on RMS density matrix=1.00D-08 within 128 cycles.
 Requested convergence on MAX density matrix=1.00D-06.
 Requested convergence on             energy=1.00D-06.
 No special actions if energy rises.
 SCF Done:  E(RB3LYP) =  -237.803990004     A.U. after    1 cycles
            NFock=  1  Conv=0.74D-09     -V/T= 2.0025
 DoSCS=F DFT=T ScalE2(SS,OS)=  1.000000  1.000000
 Range of M.O.s used for correlation:     1    90
 NBasis=    90 NAE=    12 NBE=    12 NFC=     0 NFV=     0
 NROrb=     90 NOA=    12 NOB=    12 NVA=    78 NVB=    78
 Symmetrizing basis deriv contribution to polar:
 IMax=3 JMax=2 DiffMx= 0.00D+00
 G2DrvN: will do     4 centers at a time, making    1 passes.
 Calling FoFCou, ICntrl=  3107 FMM=F I1Cent=   0 AccDes= 0.00D+00.
 End of G2Drv F.D. properties file   721 does not exist.
 End of G2Drv F.D. properties file   722 does not exist.
 End of G2Drv F.D. properties file   788 does not exist.
          IDoAtm=111
          Differentiating once with respect to electric field.
                with respect to dipole field.
          Differentiating once with respect to nuclear coordinates.
 Keep R1 ints in memory in symmetry-blocked form, NReq=19526397.
          There are     9 degrees of freedom in the 1st order CPHF.  IDoFFX=4 NUNeed=     9.
      9 vectors produced by pass  0 Test12= 1.04D-14 1.11D-08 XBig12= 1.22D+01 2.92D+00.
 AX will form     9 AO Fock derivatives at one time.
      9 vectors produced by pass  1 Test12= 1.04D-14 1.11D-08 XBig12= 3.79D+00 7.21D-01.
      9 vectors produced by pass  2 Test12= 1.04D-14 1.11D-08 XBig12= 2.45D-02 5.73D-02.
      9 vectors produced by pass  3 Test12= 1.04D-14 1.11D-08 XBig12= 5.57D-04 7.12D-03.
      9 vectors produced by pass  4 Test12= 1.04D-14 1.11D-08 XBig12= 1.78D-06 3.52D-04.
      9 vectors produced by pass  5 Test12= 1.04D-14 1.11D-08 XBig12= 7.06D-09 3.10D-05.
      5 vectors produced by pass  6 Test12= 1.04D-14 1.11D-08 XBig12= 9.80D-12 8.36D-07.
      2 vectors produced by pass  7 Test12= 1.04D-14 1.11D-08 XBig12= 1.89D-14 4.34D-08.
 InvSVY:  IOpt=1 It=  1 EMax= 3.32D-16
 Solved reduced A of dimension    61 with     9 vectors.
 Isotropic polarizability for W=    0.000000       14.97 Bohr**3.
 End of Minotr F.D. properties file   721 does not exist.
 End of Minotr F.D. properties file   722 does not exist.
 End of Minotr F.D. properties file   788 does not exist.

 **********************************************************************

            Population analysis using the SCF Density.

 **********************************************************************

 Orbital symmetries:
       Occupied  (B2) (A1) (A1) (A1) (B2) (A1) (B2) (B1) (A1) (A2)
                 (B2) (A1)
       Virtual   (B1) (B2) (A1) (B1) (A1) (A1) (B2) (B2) (A1) (A1)
                 (A2) (B1) (B2) (A1) (B2) (B1) (A2) (A1) (A1) (B2)
                 (B1) (A1) (B2) (B1) (A1) (A2) (B2) (A1) (B2) (A2)
                 (B1) (B2) (A1) (A1) (A2) (B1) (B2) (A1) (B1) (B2)
                 (A1) (A1) (A2) (B1) (B2) (A1) (B2) (A1) (B1) (B2)
                 (A2) (A1) (B1) (A1) (B2) (A2) (A2) (B2) (A1) (B1)
                 (B2) (B1) (A1) (A1) (A2) (B2) (A1) (B2) (A1) (A2)
                 (B1) (B2) (B1) (B2) (A2) (B2) (A1) (A1)
 The electronic state is 1-A1.
 Alpha  occ. eigenvalues --  -24.76481 -24.76480 -10.38859  -1.35010  -1.27484
 Alpha  occ. eigenvalues --   -0.72011  -0.61737  -0.57037  -0.56315  -0.49484
 Alpha  occ. eigenvalues --   -0.46811  -0.31910
 Alpha virt. eigenvalues --   -0.10018   0.08923   0.09031   0.15384   0.15676
 Alpha virt. eigenvalues --    0.26495   0.27386   0.38311   0.41461   0.45083
 Alpha virt. eigenvalues --    0.45234   0.47584   0.58064   0.75788   0.82552
 Alpha virt. eigenvalues --    0.96223   0.97637   1.02057   1.09238   1.12207
 Alpha virt. eigenvalues --    1.17866   1.27631   1.64476   1.74280   1.78830
 Alpha virt. eigenvalues --    1.81032   1.92498   2.06496   2.12899   2.16899
 Alpha virt. eigenvalues --    2.20072   2.24205   2.31616   2.39137   2.75508
 Alpha virt. eigenvalues --    2.81750   2.83648   2.94381   3.20974   3.29366
 Alpha virt. eigenvalues --    3.42066   3.44944   3.53332   3.61304   3.66092
 Alpha virt. eigenvalues --    3.80661   3.81932   3.97952   4.06134   4.07345
 Alpha virt. eigenvalues --    4.17306   4.20869   4.32551   4.34765   4.34912
 Alpha virt. eigenvalues --    4.35718   4.39714   4.60997   4.72247   4.91308
 Alpha virt. eigenvalues --    4.97620   5.15803   5.32695   5.48852   5.51181
 Alpha virt. eigenvalues --    5.66324   5.88086   6.05483   7.46674   7.47156
 Alpha virt. eigenvalues --    7.48312   7.54300   7.93362   7.93848   7.94332
 Alpha virt. eigenvalues --    8.09503   8.11716   8.12800
          Condensed to atoms (all electrons):
               1          2          3
     1  C    5.442986   0.133251   0.133251
     2  F    0.133251   9.076057  -0.064051
     3  F    0.133251  -0.064051   9.076057
 Mulliken charges:
               1
     1  C    0.290513
     2  F   -0.145256
     3  F   -0.145256
 Sum of Mulliken charges =  -0.00000
 Mulliken charges with hydrogens summed into heavy atoms:
               1
     1  C    0.290513
     2  F   -0.145256
     3  F   -0.145256
 APT charges:
               1
     1  C    0.885031
     2  F   -0.442515
     3  F   -0.442515
 Sum of APT charges =   0.00000
 APT charges with hydrogens summed into heavy atoms:
               1
     1  C    0.885031
     2  F   -0.442515
     3  F   -0.442515
 Electronic spatial extent (au):  <R**2>=            114.4232
 Charge=              0.0000 electrons
 Dipole moment (field-independent basis, Debye):
    X=              0.0000    Y=              0.0000    Z=             -0.6034  Tot=              0.6034
 Quadrupole moment (field-independent basis, Debye-Ang):
   XX=            -14.4839   YY=            -16.1251   ZZ=            -17.4301
   XY=             -0.0000   XZ=             -0.0000   YZ=              0.0000
 Traceless Quadrupole moment (field-independent basis, Debye-Ang):
   XX=              1.5291   YY=             -0.1121   ZZ=             -1.4171
   XY=             -0.0000   XZ=             -0.0000   YZ=              0.0000
 Octapole moment (field-independent basis, Debye-Ang**2):
  XXX=              0.0000  YYY=              0.0000  ZZZ=             -8.7943  XYY=              0.0000
  XXY=              0.0000  XXZ=             -1.7045  XZZ=              0.0000  YZZ=             -0.0000
  YYZ=             -1.6522  XYZ=              0.0000
 Hexadecapole moment (field-independent basis, Debye-Ang**3):
 XXXX=            -11.5292 YYYY=            -73.6652 ZZZZ=            -35.5656 XXXY=             -0.0000
 XXXZ=             -0.0000 YYYX=             -0.0000 YYYZ=              0.0000 ZZZX=             -0.0000
 ZZZY=             -0.0000 XXYY=            -14.0979 XXZZ=             -7.2234 YYZZ=            -16.9470
 XXYZ=              0.0000 YYXZ=             -0.0000 ZZXY=             -0.0000
 N-N= 6.459743910049D+01 E-N=-6.942000494857D+02  KE= 2.372101842313D+02
 Symmetry A1   KE= 1.294875826445D+02
 Symmetry A2   KE= 6.715711839075D+00
 Symmetry B1   KE= 5.347668438768D+00
 Symmetry B2   KE= 9.565922130889D+01
  Exact polarizability:  13.005  -0.000  17.953   0.000   0.000  13.956
 Approx polarizability:  18.494   0.000  25.592   0.000   0.000  17.099
 Calling FoFJK, ICntrl=    100127 FMM=F ISym2X=1 I1Cent= 0 IOpClX= 0 NMat=1 NMatS=1 NMatT=0.
 Full mass-weighted force constant matrix:
 Low frequencies ---  -17.6410  -12.2901   -7.0069    0.0011    0.0017    0.0017
 Low frequencies ---  669.8023 1103.8869 1225.9189
 Diagonal vibrational polarizability:
        0.0000000       8.6031818       2.3589112
 Harmonic frequencies (cm**-1), IR intensities (KM/Mole), Raman scattering
 activities (A**4/AMU), depolarization ratios for plane and unpolarized
 incident light, reduced masses (AMU), force constants (mDyne/A),
 and normal coordinates:
                      1                      2                      3
                     A1                     B2                     A1
 Frequencies --    669.8023              1103.8868              1225.9189
 Red. masses --     17.7960                13.6883                13.8104
 Frc consts  --      4.7040                 9.8276                12.2287
 IR Inten    --      3.3331               389.5607               120.5699
  Atom  AN      X      Y      Z        X      Y      Z        X      Y      Z
     1   6    -0.00   0.00  -0.41     0.00   0.87   0.00     0.00  -0.00   0.86
     2   9     0.00   0.63   0.13    -0.00  -0.28   0.21    -0.00   0.24  -0.27
     3   9    -0.00  -0.63   0.13    -0.00  -0.28  -0.21    -0.00  -0.24  -0.27

 -------------------
 - Thermochemistry -
 -------------------
 Temperature   298.150 Kelvin.  Pressure   1.00000 Atm.
 Atom     1 has atomic number  6 and mass  12.00000
 Atom     2 has atomic number  9 and mass  18.99840
 Atom     3 has atomic number  9 and mass  18.99840
 Molecular mass:    49.99681 amu.
 Principal axes and moments of inertia in atomic units:
                           1         2         3
     Eigenvalues --    20.62070 144.66745 165.28815
           X           -0.00000   0.00000   1.00000
           Y            1.00000   0.00000   0.00000
           Z           -0.00000   1.00000   0.00000
 This molecule is an asymmetric top.
 Rotational symmetry number  2.
 Rotational temperatures (Kelvin)      4.20034     0.59871     0.52402
 Rotational constants (GHZ):          87.52086    12.47510    10.91876
 Zero-point vibrational energy      17941.6 (Joules/Mol)
                                    4.28815 (Kcal/Mol)
 Vibrational temperatures:    963.70  1588.25  1763.82
          (Kelvin)
 
 Zero-point correction=                           0.006834 (Hartree/Particle)
 Thermal correction to Energy=                    0.009831
 Thermal correction to Enthalpy=                  0.010775
 Thermal correction to Gibbs Free Energy=        -0.016566
 Sum of electronic and zero-point Energies=           -237.797156
 Sum of electronic and thermal Energies=              -237.794159
 Sum of electronic and thermal Enthalpies=            -237.793215
 Sum of electronic and thermal Free Energies=         -237.820556
 
                     E (Thermal)             CV                S
                      KCal/Mol        Cal/Mol-Kelvin    Cal/Mol-Kelvin
 Total                    6.169              7.315             57.544
 Electronic               0.000              0.000              0.000
 Translational            0.889              2.981             37.652
 Rotational               0.889              2.981             19.450
 Vibrational              4.392              1.353              0.442
                       Q            Log10(Q)             Ln(Q)
 Total Bot       0.416560D+08          7.619677         17.544956
 Total V=0       0.579318D+11         10.762917         24.782532
 Vib (Bot)       0.754287D-03         -3.122463         -7.189738
 Vib (V=0)       0.104900D+01          0.020776          0.047839
 Electronic      0.100000D+01          0.000000          0.000000
 Translational   0.138953D+08          7.142867         16.447060
 Rotational      0.397442D+04          3.599274          8.287634
 ***** Axes restored to original set *****
 -------------------------------------------------------------------
 Center     Atomic                   Forces (Hartrees/Bohr)
 Number     Number              X              Y              Z
 -------------------------------------------------------------------
      1        6          -0.000000000   -0.000000000    0.000243215
      2        9          -0.000000000    0.000115214   -0.000121607
      3        9           0.000000000   -0.000115214   -0.000121607
 -------------------------------------------------------------------
 Cartesian Forces:  Max     0.000243215 RMS     0.000113176
 FormGI is forming the generalized inverse of G from B-inverse, IUseBI=4.

 GradGradGradGradGradGradGradGradGradGradGradGradGradGradGradGradGradGrad
 Berny optimization.
 Internal  Forces:  Max     0.000165490 RMS     0.000140089
 Search for a local minimum.
 Step number   1 out of a maximum of    2
 All quantities printed in internal units (Hartrees-Bohrs-Radians)
 Second derivative matrix not updated -- analytic derivatives used.
 The second derivative matrix:
                          R1        R2        A1
           R1           0.39180
           R2           0.09843   0.39180
           A1           0.08109   0.08109   0.54477
 ITU=  0
     Eigenvalues ---    0.29337   0.39962   0.63538
 Angle between quadratic step and forces=   8.05 degrees.
 Linear search not attempted -- first point.
 Iteration  1 RMS(Cart)=  0.00023667 RMS(Int)=  0.00000002
 Iteration  2 RMS(Cart)=  0.00000003 RMS(Int)=  0.00000000
 ClnCor:  largest displacement from symmetrization is 6.28D-16 for atom     3.
 Variable       Old X    -DE/DX   Delta X   Delta X   Delta X     New X
                                 (Linear)    (Quad)   (Total)
    R1        2.46342   0.00017   0.00000   0.00038   0.00038   2.46380
    R2        2.46342   0.00017   0.00000   0.00038   0.00038   2.46380
    A1        1.82844  -0.00006   0.00000  -0.00023  -0.00023   1.82821
         Item               Value     Threshold  Converged?
 Maximum Force            0.000165     0.000450     YES
 RMS     Force            0.000140     0.000300     YES
 Maximum Displacement     0.000302     0.001800     YES
 RMS     Displacement     0.000237     0.001200     YES
 Predicted change in Energy=-6.948725D-08
 Optimization completed.
    -- Stationary point found.
                           ----------------------------
                           !   Optimized Parameters   !
                           ! (Angstroms and Degrees)  !
 --------------------------                            --------------------------
 ! Name  Definition              Value          Derivative Info.                !
 --------------------------------------------------------------------------------
 ! R1    R(1,2)                  1.3036         -DE/DX =    0.0002              !
 ! R2    R(1,3)                  1.3036         -DE/DX =    0.0002              !
 ! A1    A(2,1,3)              104.762          -DE/DX =   -0.0001              !
 --------------------------------------------------------------------------------
 GradGradGradGradGradGradGradGradGradGradGradGradGradGradGradGradGradGrad


 ----------------------------------------------------------------------

 Electric dipole moment (input orientation):
 (Debye = 10**-18 statcoulomb cm , SI units = C m)
                  (au)            (Debye)         (10**-30 SI)
   Tot        0.237393D+00      0.603392D+00      0.201270D+01
   x          0.000000D+00      0.000000D+00      0.000000D+00
   y          0.000000D+00      0.000000D+00      0.000000D+00
   z         -0.237393D+00     -0.603392D+00     -0.201270D+01

 Dipole polarizability, Alpha (input orientation).
 (esu units = cm**3 , SI units = C**2 m**2 J**-1)
 Alpha(0;0):
               (au)            (10**-24 esu)      (10**-40 SI)
   iso        0.149715D+02      0.221854D+01      0.246846D+01
   aniso      0.454789D+01      0.673927D+00      0.749845D+00
   xx         0.130054D+02      0.192720D+01      0.214430D+01
   yx         0.000000D+00      0.000000D+00      0.000000D+00
   yy         0.179533D+02      0.266041D+01      0.296011D+01
   zx         0.000000D+00      0.000000D+00      0.000000D+00
   zy         0.000000D+00      0.000000D+00      0.000000D+00
   zz         0.139557D+02      0.206802D+01      0.230098D+01

 ----------------------------------------------------------------------

 Dipole orientation:
     6         -0.00000000         -0.00000000         -1.12808786
     9          0.00000000         -1.95124528          0.37560327
     9         -0.00000000          1.95124528          0.37560327

 Electric dipole moment (dipole orientation):
 (Debye = 10**-18 statcoulomb cm , SI units = C m)
                  (au)            (Debye)         (10**-30 SI)
   Tot        0.237393D+00      0.603392D+00      0.201270D+01
   x          0.000000D+00      0.000000D+00      0.000000D+00
   y          0.000000D+00      0.000000D+00      0.000000D+00
   z          0.237393D+00      0.603392D+00      0.201270D+01

 Dipole polarizability, Alpha (dipole orientation).
 (esu units = cm**3 , SI units = C**2 m**2 J**-1)
 Alpha(0;0):
               (au)            (10**-24 esu)      (10**-40 SI)
   iso        0.149715D+02      0.221854D+01      0.246846D+01
   aniso      0.454789D+01      0.673927D+00      0.749845D+00
   xx         0.130054D+02      0.192720D+01      0.214430D+01
   yx         0.000000D+00      0.000000D+00      0.000000D+00
   yy         0.179533D+02      0.266041D+01      0.296011D+01
   zx         0.000000D+00      0.000000D+00      0.000000D+00
   zy         0.000000D+00      0.000000D+00      0.000000D+00
   zz         0.139557D+02      0.206802D+01      0.230098D+01

 ----------------------------------------------------------------------
 1\1\GINC-GAMBA\Freq\RB3LYP\Gen\C1F2\IRIKURA\16-Jun-2022\0\\#N Geom=All
 Check Guess=TCheck SCRF=Check GenChk RB3LYP/ChkBas Freq\\difluoromethy
 lene, B3LYP/pcseg-2\\0,1\C,0.,0.,0.5969583863\F,0.,1.0325545336,-0.198
 7606931\F,0.,-1.0325545336,-0.1987606931\\Version=ES64L-G16RevB.01\Sta
 te=1-A1\HF=-237.80399\RMSD=7.366e-10\RMSF=1.132e-04\ZeroPoint=0.006833
 6\Thermal=0.0098312\Dipole=0.,0.,-0.2373929\DipoleDeriv=-0.157847,0.,0
 .,0.,1.7662594,0.,0.,0.,1.0466796,0.0789235,0.,0.,0.,-0.8831297,0.2572
 811,0.,0.7413859,-0.5233398,0.0789235,0.,0.,0.,-0.8831297,-0.2572811,0
 .,-0.7413859,-0.5233398\Polar=13.0053902,0.,17.953342,0.,0.,13.9556839
 \Quadrupole=1.1368553,-0.0833122,-1.0535431,0.,0.,0.\PG=C02V [C2(C1),S
 GV(F2)]\NImag=0\\-0.00010741,0.,0.36806277,0.,0.,0.46321697,0.00005370
 ,0.,0.,-0.00004450,0.,-0.18403138,0.13347602,0.,0.31106458,0.,0.141874
 76,-0.23160849,0.,-0.13767539,0.17042974,0.00005370,0.,0.,-0.00000920,
 0.,0.,-0.00004450,0.,-0.18403138,-0.13347602,0.,-0.12703320,-0.0041993
 7,0.,0.31106458,0.,-0.14187476,-0.23160849,0.,0.00419937,0.06117875,0.
 ,0.13767539,0.17042974\\0.,0.,-0.00024321,0.,-0.00011521,0.00012161,0.
 ,0.00011521,0.00012161\\\@


 LORD, MAN... WERE YE BUT WHYLES WHERE I AM, 
 THE GENTILES YE WAD NE'ER ENVY 'EM.        
 IT'S TRUE, THEY NEEDNA STARVE OR SWEAT,     
 THRO' WINTER'S CAULD OR SIMMER'S HEAT...  
 THEY'VE NAE SAIR WARK TO CRAZE THEIR BANES, 
 AND FILL AULD AGE WITH GRIPS AN' GRANES...  
                                             
 BUT HUMAN BODIES ARE SIC FOOLS              
 FOR A' THEIR COLLEGES AND SCHOOLS,           
 THAT WHEN NAE REAL ILLS PERPLEX THEM,       
 THEY MAK ENOW THEMSELVES TO VEX THEM,       
 AN' AYE THE LESS THEY HAE TO STURT THEM,    
 IN LIKE PROPORTION LESS WILL HURT THEM....  
                                             
                (ROBERT BURNS 'THE TWA DOGS')
 Job cpu time:       0 days  0 hours  1 minutes 40.8 seconds.
 Elapsed time:       0 days  0 hours  0 minutes  8.5 seconds.
 File lengths (MBytes):  RWF=     10 Int=      0 D2E=      0 Chk=      2 Scr=      1
 Normal termination of Gaussian 16 at Thu Jun 16 14:05:47 2022.
