 Entering Gaussian System, Link 0=g16
 AtFile(1): pcseg2.gbs
            -H     0
            S   4   1.00
                  0.754732D+02           0.427821D-02
                  0.113575D+02           0.328672D-01
                  0.260081D+01           0.159578D+00
                  0.735503D+00           0.500000D+00
            S   1   1.00
                  0.231761D+00           1.0000000
            S   1   1.00
                  0.741675D-01           1.0000000
            P   1   1.00
                  0.160000D+01           1.0000000
            P   1   1.00
                  0.450000D+00           1.0000000
            D   1   1.00
                  0.125000D+01           1.0000000
            ****
            -C     0
            S   7   1.00
                  0.731999D+04           0.695369D-03
                  0.109818D+04           0.537138D-02
                  0.250014D+03           0.274734D-01
                  0.707586D+02           0.105078D+00
                  0.228595D+02           0.291262D+00
                  0.803936D+01           0.500000D+00
                  0.289309D+01           0.362224D+00
            S   2   1.00
                  0.521640D+01          -0.957844D-01
                  0.556124D+00           0.500000D+00
            S   1   1.00
                  0.228813D+00           1.0000000
            S   1   1.00
                  0.936338D-01           1.0000000
            P   4   1.00
                  0.339855D+02           0.818395D-02
                  0.772957D+01           0.586921D-01
                  0.224954D+01           0.222514D+00
                  0.767681D+00           0.500000D+00
            P   1   1.00
                  0.263283D+00           1.0000000
            P   1   1.00
                  0.848744D-01           1.0000000
            D   1   1.00
                  0.140000D+01           1.0000000
            D   1   1.00
                  0.450000D+00           1.0000000
            F   1   1.00
                  0.950000D+00           1.0000000
            ****
            -O     0
            S   7   1.00
                  0.135887D+05           0.665492D-03
                  0.203847D+04           0.514222D-02
                  0.464041D+03           0.263472D-01
                  0.131339D+03           0.101500D+00
                  0.425340D+02           0.285877D+00
                  0.150429D+02           0.500000D+00
                  0.546616D+01           0.368211D+00
            S   2   1.00
                  0.100915D+02          -0.100084D+00
                  0.110429D+01           0.500000D+00
            S   1   1.00
                  0.448082D+00           1.0000000
            S   1   1.00
                  0.175325D+00           1.0000000
            P   4   1.00
                  0.608220D+02           0.908253D-02
                  0.140332D+02           0.645878D-01
                  0.418244D+01           0.241502D+00
                  0.142490D+01           0.500000D+00
            P   1   1.00
                  0.478741D+00           1.0000000
            P   1   1.00
                  0.146257D+00           1.0000000
            D   1   1.00
                  0.220000D+01           1.0000000
            D   1   1.00
                  0.650000D+00           1.0000000
            F   1   1.00
                  0.110000D+01           1.0000000
            ****
            -N     0
            S   7   1.00
                  0.101643D+05           0.682757D-03
                  0.152481D+04           0.527488D-02
                  0.347119D+03           0.270037D-01
                  0.982389D+02           0.103673D+00
                  0.317799D+02           0.289575D+00
                  0.112240D+02           0.500000D+00
                  0.406611D+01           0.364621D+00
            S   2   1.00
                  0.747898D+01          -0.975681D-01
                  0.805040D+00           0.500000D+00
            S   1   1.00
                  0.324626D+00           1.0000000
            S   1   1.00
                  0.128132D+00           1.0000000
            P   4   1.00
                  0.482704D+02           0.829547D-02
                  0.110815D+02           0.596223D-01
                  0.326643D+01           0.227889D+00
                  0.111680D+01           0.500000D+00
            P   1   1.00
                  0.382049D+00           1.0000000
            P   1   1.00
                  0.121222D+00           1.0000000
            D   1   1.00
                  0.180000D+01           1.0000000
            D   1   1.00
                  0.550000D+00           1.0000000
            F   1   1.00
                  0.102000D+01           1.0000000
            ****
            -F     0
            S   7   1.00
                  0.174507D+05           0.655972D-03
                  0.261768D+04           0.506944D-02
                  0.595857D+03           0.259899D-01
                  0.168651D+03           0.100353D+00
                  0.546654D+02           0.284095D+00
                  0.193717D+02           0.500000D+00
                  0.706202D+01           0.370721D+00
            S   2   1.00
                  0.131197D+02          -0.101997D+00
                  0.145046D+01           0.500000D+00
            S   1   1.00
                  0.588255D+00           1.0000000
            S   1   1.00
                  0.227960D+00           1.0000000
            P   4   1.00
                  0.779407D+02           0.931135D-02
                  0.180425D+02           0.663964D-01
                  0.542342D+01           0.246386D+00
                  0.184876D+01           0.500000D+00
            P   1   1.00
                  0.617455D+00           1.0000000
            P   1   1.00
                  0.185496D+00           1.0000000
            D   1   1.00
                  0.280000D+01           1.0000000
            D   1   1.00
                  0.800000D+00           1.0000000
            F   1   1.00
                  0.120000D+01           1.0000000
            ****
            -Cl     0
            S   8   1.00
                  0.154272D+06           0.222473D-03
                  0.231232D+05           0.172590D-02
                  0.526257D+04           0.899286D-02
                  0.148995D+04           0.367724D-01
                  0.485417D+03           0.121446D+00
                  0.174634D+03           0.304148D+00
                  0.672393D+02           0.500000D+00
                  0.265780D+02           0.360252D+00
            S   3   1.00
                  0.131826D+03          -0.531330D-01
                  0.400703D+02          -0.233346D+00
                  0.789448D+01           0.500000D+00
            S   2   1.00
                  0.427711D+01           0.500000D+00
                  0.196233D+01           0.370517D+00
            S   1   1.00
                  0.520793D+00           1.0000000
            S   1   1.00
                  0.181633D+00           1.0000000
            P   7   1.00
                  0.124440D+04           0.988206D-03
                  0.295109D+03           0.829674D-02
                  0.947224D+02           0.430906D-01
                  0.352588D+02           0.148443D+00
                  0.144211D+02           0.344744D+00
                  0.610371D+01           0.500000D+00
                  0.258886D+01           0.348278D+00
            P   2   1.00
                  0.109447D+02          -0.196768D-01
                  0.104413D+01           0.500000D+00
            P   1   1.00
                  0.376184D+00           1.0000000
            P   1   1.00
                  0.120613D+00           1.0000000
            D   1   1.00
                  0.231000D+01           1.0000000
            D   1   1.00
                  0.520000D+00           1.0000000
            F   1   1.00
                  0.720000D+00           1.0000000
            ****
            -S     0
            S   8   1.00
                  0.134700D+06           0.226231D-03
                  0.201904D+05           0.175488D-02
                  0.459528D+04           0.914190D-02
                  0.130109D+04           0.373551D-01
                  0.423902D+03           0.123121D+00
                  0.152485D+03           0.306801D+00
                  0.586925D+02           0.500000D+00
                  0.231461D+02           0.354358D+00
            S   3   1.00
                  0.116327D+03          -0.491772D-01
                  0.352841D+02          -0.215962D+00
                  0.677831D+01           0.500000D+00
            S   2   1.00
                  0.360404D+01           0.500000D+00
                  0.164871D+01           0.366278D+00
            S   1   1.00
                  0.421821D+00           1.0000000
            S   1   1.00
                  0.147554D+00           1.0000000
            P   7   1.00
                  0.104863D+04           0.105273D-02
                  0.248717D+03           0.879338D-02
                  0.797887D+02           0.453358D-01
                  0.296023D+02           0.154476D+00
                  0.120627D+02           0.352366D+00
                  0.507628D+01           0.500000D+00
                  0.213375D+01           0.346429D+00
            P   2   1.00
                  0.928958D+01          -0.185932D-01
                  0.837819D+00           0.500000D+00
            P   1   1.00
                  0.301495D+00           1.0000000
            P   1   1.00
                  0.974740D-01           1.0000000
            D   1   1.00
                  0.210000D+01           1.0000000
            D   1   1.00
                  0.480000D+00           1.0000000
            F   1   1.00
                  0.660000D+00           1.0000000
            ****
            -Br     0
            S    10   1.00
                  0.233625D+07           0.532336D-04
                  0.349961D+06           0.413715D-03
                  0.796444D+05           0.217123D-02
                  0.225555D+05           0.910109D-02
                  0.735546D+04           0.323789D-01
                  0.265352D+04           0.988755D-01
                  0.103517D+04           0.248138D+00
                  0.422205D+03           0.474328D+00
                  0.180035D+03           0.500000D+00
                  0.793308D+02           0.187769D+00
            S    4   1.00
                  0.620834D+03          -0.226511D-01
                  0.190829D+03          -0.109497D+00
                  0.312505D+02           0.500000D+00
                  0.135270D+02           0.492812D+00
            S    2   1.00
                  0.216097D+02          -0.165418D+00
                  0.372566D+01           0.500000D+00
            S    1   1.00
                  0.169770D+01           1.0000000
            S    1   1.00
                  0.489332D+00           1.0000000
            S    1   1.00
                  0.175712D+00           1.0000000
            P    8   1.00
                  0.960829D+04           0.478974D-03
                  0.227618D+04           0.417853D-02
                  0.736723D+03           0.229315D-01
                  0.281579D+03           0.892653D-01
                  0.118395D+03           0.255288D+00
                  0.527481D+02           0.479074D+00
                  0.245098D+02           0.500000D+00
                  0.112009D+02           0.200944D+00
            P    4   1.00
                  0.587849D+02          -0.189674D-01
                  0.918962D+01           0.264104D+00
                  0.413895D+01           0.500000D+00
                  0.184225D+01           0.319316D+00
            P    1   1.00
                  0.713862D+00           1.0000000
            P    1   1.00
                  0.274232D+00           1.0000000
            P    1   1.00
                  0.944411D-01           1.0000000
            D    7   1.00
                  0.398470D+03           0.204066D-02
                  0.118967D+03           0.175171D-01
                  0.450197D+02           0.829708D-01
                  0.190320D+02           0.236284D+00
                  0.855686D+01           0.428468D+00
                  0.382950D+01           0.500000D+00
                  0.166291D+01           0.349360D+00
            D    1   1.00
                  0.672953D+00           1.0000000
            D    1   1.00
                  0.252000D+00           1.0000000
            F    1   1.00
                  0.530000D+00           1.0000000
            ****
            -Si     0
            S    8   1.00
                  0.996133D+05           0.235546D-03
                  0.149311D+05           0.182707D-02
                  0.339820D+04           0.951425D-02
                  0.962140D+03           0.388172D-01
                  0.313430D+03           0.127328D+00
                  0.112683D+03           0.313522D+00
                  0.433372D+02           0.500000D+00
                  0.170029D+02           0.340347D+00
            S    3   1.00
                  0.884208D+02          -0.404451D-01
                  0.266756D+02          -0.178059D+00
                  0.479640D+01           0.500000D+00
            S    2   1.00
                  0.239385D+01           0.500000D+00
                  0.108333D+01           0.338016D+00
            S    1   1.00
                  0.252420D+00           1.0000000
            S    1   1.00
                  0.891210D-01           1.0000000
            P    7   1.00
                  0.709901D+03           0.123028D-02
                  0.168426D+03           0.101366D-01
                  0.539946D+02           0.511840D-01
                  0.198646D+02           0.169967D+00
                  0.801369D+01           0.370717D+00
                  0.331870D+01           0.500000D+00
                  0.136112D+01           0.344128D+00
            P    2   1.00
                  0.622158D+01          -0.166609D-01
                  0.503049D+00           0.500000D+00
            P    1   1.00
                  0.179848D+00           1.0000000
            P    1   1.00
                  0.591912D-01           1.0000000
            D    1   1.00
                  0.168000D+01           1.0000000
            D    1   1.00
                  0.380000D+00           1.0000000
            F    1   1.00
                  0.540000D+00           1.0000000
            ****
            -P     0
            S    8   1.00
                  0.116416D+06           0.230715D-03
                  0.174500D+05           0.178960D-02
                  0.397149D+04           0.932116D-02
                  0.112447D+04           0.380591D-01
                  0.366347D+03           0.125148D+00
                  0.131757D+03           0.310022D+00
                  0.506988D+02           0.500000D+00
                  0.199436D+02           0.347528D+00
            S    3   1.00
                  0.101878D+03          -0.446755D-01
                  0.308249D+02          -0.196376D+00
                  0.573688D+01           0.500000D+00
            S    2   1.00
                  0.296868D+01           0.500000D+00
                  0.135315D+01           0.355098D+00
            S    1   1.00
                  0.332196D+00           1.0000000
            S    1   1.00
                  0.116229D+00           1.0000000
            P    7   1.00
                  0.873928D+03           0.112375D-02
                  0.207298D+03           0.933330D-02
                  0.664628D+02           0.477213D-01
                  0.245665D+02           0.160733D+00
                  0.996820D+01           0.359760D+00
                  0.416536D+01           0.500000D+00
                  0.173022D+01           0.346593D+00
            P    2   1.00
                  0.772530D+01          -0.175718D-01
                  0.657252D+00           0.500000D+00
            P    1   1.00
                  0.239903D+00           1.0000000
            P    1   1.00
                  0.800988D-01           1.0000000
            D    1   1.00
                  0.189000D+01           1.0000000
            D    1   1.00
                  0.430000D+00           1.0000000
            F    1   1.00
                  0.600000D+00           1.0000000
            ****
            
 Initial command:
 /usr/local/apps/g16_b01_avx/g16/l1.exe "/wrk/irikura/Gau-408935.inp" -scrdir="/wrk/irikura/"
 Entering Link 1 = /usr/local/apps/g16_b01_avx/g16/l1.exe PID=    408937.
  
 Copyright (c) 1988-2017, Gaussian, Inc.  All Rights Reserved.
  
 This is part of the Gaussian(R) 16 program.  It is based on
 the Gaussian(R) 09 system (copyright 2009, Gaussian, Inc.),
 the Gaussian(R) 03 system (copyright 2003, Gaussian, Inc.),
 the Gaussian(R) 98 system (copyright 1998, Gaussian, Inc.),
 the Gaussian(R) 94 system (copyright 1995, Gaussian, Inc.),
 the Gaussian 92(TM) system (copyright 1992, Gaussian, Inc.),
 the Gaussian 90(TM) system (copyright 1990, Gaussian, Inc.),
 the Gaussian 88(TM) system (copyright 1988, Gaussian, Inc.),
 the Gaussian 86(TM) system (copyright 1986, Carnegie Mellon
 University), and the Gaussian 82(TM) system (copyright 1983,
 Carnegie Mellon University). Gaussian is a federally registered
 trademark of Gaussian, Inc.
  
 This software contains proprietary and confidential information,
 including trade secrets, belonging to Gaussian, Inc.
  
 This software is provided under written license and may be
 used, copied, transmitted, or stored only in accord with that
 written license.
  
 The following legend is applicable only to US Government
 contracts under FAR:
  
                    RESTRICTED RIGHTS LEGEND
  
 Use, reproduction and disclosure by the US Government is
 subject to restrictions as set forth in subparagraphs (a)
 and (c) of the Commercial Computer Software - Restricted
 Rights clause in FAR 52.227-19.
  
 Gaussian, Inc.
 340 Quinnipiac St., Bldg. 40, Wallingford CT 06492
  
  
 ---------------------------------------------------------------
 Warning -- This program may not be used in any manner that
 competes with the business of Gaussian, Inc. or will provide
 assistance to any competitor of Gaussian, Inc.  The licensee
 of this program is prohibited from giving any competitor of
 Gaussian, Inc. access to this program.  By using this program,
 the user acknowledges that Gaussian, Inc. is engaged in the
 business of creating and licensing software in the field of
 computational chemistry and represents and warrants to the
 licensee that it is not a competitor of Gaussian, Inc. and that
 it will not use this program in any manner prohibited above.
 ---------------------------------------------------------------
  

 Cite this work as:
 Gaussian 16, Revision B.01,
 M. J. Frisch, G. W. Trucks, H. B. Schlegel, G. E. Scuseria, 
 M. A. Robb, J. R. Cheeseman, G. Scalmani, V. Barone, 
 G. A. Petersson, H. Nakatsuji, X. Li, M. Caricato, A. V. Marenich, 
 J. Bloino, B. G. Janesko, R. Gomperts, B. Mennucci, H. P. Hratchian, 
 J. V. Ortiz, A. F. Izmaylov, J. L. Sonnenberg, D. Williams-Young, 
 F. Ding, F. Lipparini, F. Egidi, J. Goings, B. Peng, A. Petrone, 
 T. Henderson, D. Ranasinghe, V. G. Zakrzewski, J. Gao, N. Rega, 
 G. Zheng, W. Liang, M. Hada, M. Ehara, K. Toyota, R. Fukuda, 
 J. Hasegawa, M. Ishida, T. Nakajima, Y. Honda, O. Kitao, H. Nakai, 
 T. Vreven, K. Throssell, J. A. Montgomery, Jr., J. E. Peralta, 
 F. Ogliaro, M. J. Bearpark, J. J. Heyd, E. N. Brothers, K. N. Kudin, 
 V. N. Staroverov, T. A. Keith, R. Kobayashi, J. Normand, 
 K. Raghavachari, A. P. Rendell, J. C. Burant, S. S. Iyengar, 
 J. Tomasi, M. Cossi, J. M. Millam, M. Klene, C. Adamo, R. Cammi, 
 J. W. Ochterski, R. L. Martin, K. Morokuma, O. Farkas, 
 J. B. Foresman, and D. J. Fox, Gaussian, Inc., Wallingford CT, 2016.
 
 ******************************************
 Gaussian 16:  ES64L-G16RevB.01 20-Dec-2017
                29-Sep-2023 
 ******************************************
 %chk=cf3.chk
 %mem=500mw
 %nprocs=4
 Will use up to    4 processors via shared memory.
 ---------------------------------------
 # b3lyp/gen opt freq CPHF(Grid=OneStep)
 ---------------------------------------
 1/18=20,19=15,26=3,38=1/1,3;
 2/9=110,12=2,17=6,18=5,40=1/2;
 3/5=7,11=2,25=1,30=1,71=1,74=-5/1,2,3;
 4//1;
 5/5=2,38=5/2;
 6/7=2,8=2,9=2,10=2,28=1/1;
 7//1,2,3,16;
 1/18=20,19=15,26=3/3(2);
 2/9=110/2;
 99//99;
 2/9=110/2;
 3/5=7,6=1,11=2,25=1,30=1,71=1,74=-5,82=7/1,2,3;
 4/5=5,16=3,69=1/1;
 5/5=2,38=5/2;
 7//1,2,3,16;
 1/18=20,19=15,26=3/3(-5);
 2/9=110/2;
 6/7=2,8=2,9=2,10=2,19=2,28=1/1;
 99/9=1/99;
 ------------------
 CF3, B3LYP/pcseg-2
 ------------------
 Symbolic Z-matrix:
 Charge =  0 Multiplicity = 2
 C                     0.        0.        0.32501 
 F                     0.        1.26005  -0.07222 
 F                     1.09124  -0.63003  -0.07222 
 F                    -1.09124  -0.63003  -0.07222 
 

 GradGradGradGradGradGradGradGradGradGradGradGradGradGradGradGradGradGrad
 Berny optimization.
 Initialization pass.
                           ----------------------------
                           !    Initial Parameters    !
                           ! (Angstroms and Degrees)  !
 --------------------------                            --------------------------
 ! Name  Definition              Value          Derivative Info.                !
 --------------------------------------------------------------------------------
 ! R1    R(1,2)                  1.3212         estimate D2E/DX2                !
 ! R2    R(1,3)                  1.3212         estimate D2E/DX2                !
 ! R3    R(1,4)                  1.3212         estimate D2E/DX2                !
 ! A1    A(2,1,3)              111.3708         estimate D2E/DX2                !
 ! A2    A(2,1,4)              111.3708         estimate D2E/DX2                !
 ! A3    A(3,1,4)              111.3708         estimate D2E/DX2                !
 ! D1    D(2,1,4,3)            124.9823         estimate D2E/DX2                !
 --------------------------------------------------------------------------------
 Trust Radius=3.00D-01 FncErr=1.00D-07 GrdErr=1.00D-06 EigMax=2.50D+02 EigMin=1.00D-04
 Number of steps in this run=     20 maximum allowed number of steps=    100.
 GradGradGradGradGradGradGradGradGradGradGradGradGradGradGradGradGradGrad

                          Input orientation:                          
 ---------------------------------------------------------------------
 Center     Atomic      Atomic             Coordinates (Angstroms)
 Number     Number       Type             X           Y           Z
 ---------------------------------------------------------------------
      1          6           0        0.000000    0.000000    0.325007
      2          9           0        0.000000    1.260054   -0.072224
      3          9           0        1.091239   -0.630027   -0.072224
      4          9           0       -1.091239   -0.630027   -0.072224
 ---------------------------------------------------------------------
                    Distance matrix (angstroms):
                    1          2          3          4
     1  C    0.000000
     2  F    1.321185   0.000000
     3  F    1.321185   2.182478   0.000000
     4  F    1.321185   2.182478   2.182478   0.000000
 Stoichiometry    CF3(2)
 Framework group  C3V[C3(C),3SGV(F)]
 Deg. of freedom     2
 Full point group                 C3V     NOp   6
 Largest Abelian subgroup         CS      NOp   2
 Largest concise Abelian subgroup CS      NOp   2
                         Standard orientation:                         
 ---------------------------------------------------------------------
 Center     Atomic      Atomic             Coordinates (Angstroms)
 Number     Number       Type             X           Y           Z
 ---------------------------------------------------------------------
      1          6           0        0.000000    0.000000    0.325007
      2          9           0        0.000000    1.260054   -0.072224
      3          9           0        1.091239   -0.630027   -0.072224
      4          9           0       -1.091239   -0.630027   -0.072224
 ---------------------------------------------------------------------
 Rotational constants (GHZ):          10.7961924          10.7961924           5.5847087
 General basis read from cards:  (5D, 7F)
 There are    83 symmetry adapted cartesian basis functions of A'  symmetry.
 There are    57 symmetry adapted cartesian basis functions of A"  symmetry.
 There are    70 symmetry adapted basis functions of A'  symmetry.
 There are    50 symmetry adapted basis functions of A"  symmetry.
   120 basis functions,   204 primitive gaussians,   140 cartesian basis functions
    17 alpha electrons       16 beta electrons
       nuclear repulsion energy       123.8055549422 Hartrees.
 NAtoms=    4 NActive=    4 NUniq=    2 SFac= 4.00D+00 NAtFMM=   60 NAOKFM=F Big=F
 Integral buffers will be    131072 words long.
 Raffenetti 2 integral format.
 Two-electron integral symmetry is turned on.
 One-electron integrals computed using PRISM.
 NBasis=   120 RedAO= T EigKep=  2.89D-03  NBF=    70    50
 NBsUse=   120 1.00D-06 EigRej= -1.00D+00 NBFU=    70    50
 ExpMin= 8.49D-02 ExpMax= 1.75D+04 ExpMxC= 5.96D+02 IAcc=3 IRadAn=         5 AccDes= 0.00D+00
 Harris functional with IExCor=  402 and IRadAn=       5 diagonalized for initial guess.
 HarFok:  IExCor=  402 AccDes= 0.00D+00 IRadAn=         5 IDoV= 1 UseB2=F ITyADJ=14
 ICtDFT=  3500011 ScaDFX=  1.000000  1.000000  1.000000  1.000000
 FoFCou: FMM=F IPFlag=           0 FMFlag=      100000 FMFlg1=           0
         NFxFlg=           0 DoJE=T BraDBF=F KetDBF=T FulRan=T
         wScrn=  0.000000 ICntrl=       500 IOpCl=  0 I1Cent=   200000004 NGrid=           0
         NMat0=    1 NMatS0=      1 NMatT0=    0 NMatD0=    1 NMtDS0=    0 NMtDT0=    0
 Petite list used in FoFCou.
 Initial guess orbital symmetries:
 Alpha Orbitals:
       Occupied  (A1) (E) (E) (A1) (A1) (E) (E) (A1) (E) (E) (A1)
                 (E) (E) (E) (E) (A2) (A1)
       Virtual   (A1) (E) (E) (A1) (A1) (E) (E) (E) (E) (A1) (E)
                 (E) (A1) (A2) (E) (E) (E) (E) (A1) (E) (E) (A1)
                 (E) (E) (A1) (E) (E) (A1) (A2) (E) (E) (A2) (E)
                 (E) (E) (E) (A1) (E) (E) (A1) (A1) (E) (E) (A2)
                 (E) (E) (A1) (E) (E) (E) (E) (A1) (A1) (E) (E)
                 (E) (E) (A2) (A1) (E) (E) (E) (E) (A1) (E) (E)
                 (A2) (E) (E) (A2) (A1) (E) (E) (A1) (E) (E) (E)
                 (E) (A1) (E) (E) (A1) (E) (E) (A1) (A2) (E) (E)
                 (E) (E) (A2) (A1) (E) (E) (A2) (E) (E) (A1) (E)
                 (E) (A1) (E) (E)
 Beta  Orbitals:
       Occupied  (A1) (E) (E) (A1) (A1) (E) (E) (A1) (E) (E) (A1)
                 (E) (E) (E) (E) (A2)
       Virtual   (A1) (A1) (E) (E) (A1) (A1) (E) (E) (E) (E) (A1)
                 (E) (E) (A1) (A2) (E) (E) (E) (E) (A1) (E) (E)
                 (A1) (E) (E) (A1) (E) (E) (A1) (A2) (E) (E) (A2)
                 (E) (E) (E) (E) (A1) (E) (E) (A1) (A1) (E) (E)
                 (A2) (E) (E) (A1) (E) (E) (E) (E) (A1) (A1) (E)
                 (E) (E) (E) (A2) (A1) (E) (E) (E) (E) (A1) (E)
                 (E) (A2) (E) (E) (A2) (A1) (E) (E) (A1) (E) (E)
                 (E) (E) (A1) (E) (E) (A1) (E) (E) (A1) (A2) (E)
                 (E) (E) (E) (A2) (A1) (E) (E) (A2) (E) (E) (A1)
                 (E) (E) (A1) (E) (E)
 The electronic state of the initial guess is 2-A1.
 Initial guess <Sx>= 0.0000 <Sy>= 0.0000 <Sz>= 0.5000 <S**2>= 0.7500 S= 0.5000
 Keep R1 and R2 ints in memory in symmetry-blocked form, NReq=39609237.
 Requested convergence on RMS density matrix=1.00D-08 within 128 cycles.
 Requested convergence on MAX density matrix=1.00D-06.
 Requested convergence on             energy=1.00D-06.
 No special actions if energy rises.
 Integral accuracy reduced to 1.0D-05 until final iterations.
 Initial convergence to 1.0D-05 achieved.  Increase integral accuracy.
 SCF Done:  E(UB3LYP) =  -337.712845730     A.U. after   12 cycles
            NFock= 12  Conv=0.50D-08     -V/T= 2.0025
 <Sx>= 0.0000 <Sy>= 0.0000 <Sz>= 0.5000 <S**2>= 0.7517 S= 0.5008
 <L.S>=  0.00000000000    
 Annihilation of the first spin contaminant:
 S**2 before annihilation     0.7517,   after     0.7500

 **********************************************************************

            Population analysis using the SCF Density.

 **********************************************************************

 Orbital symmetries:
 Alpha Orbitals:
       Occupied  (E) (E) (A1) (A1) (A1) (E) (E) (A1) (E) (E) (A1)
                 (E) (E) (E) (E) (A2) (A1)
       Virtual   (A1) (E) (E) (A1) (A1) (E) (E) (E) (E) (A1) (E)
                 (E) (A1) (A2) (E) (E) (E) (E) (A1) (E) (E) (A1)
                 (E) (E) (A1) (E) (E) (A1) (A2) (E) (E) (A2) (E)
                 (E) (E) (E) (A1) (E) (E) (A1) (A1) (E) (E) (A2)
                 (E) (E) (A1) (E) (E) (E) (E) (A1) (A1) (E) (E)
                 (E) (E) (A2) (A1) (E) (E) (E) (E) (A1) (E) (E)
                 (A2) (E) (E) (A1) (A2) (E) (E) (A1) (E) (E) (E)
                 (E) (A1) (E) (E) (A1) (E) (E) (A1) (A2) (E) (E)
                 (E) (E) (A2) (A1) (E) (E) (A2) (E) (E) (A1) (E)
                 (E) (A1) (E) (E)
 Beta  Orbitals:
       Occupied  (E) (E) (A1) (A1) (A1) (E) (E) (A1) (E) (E) (A1)
                 (E) (E) (E) (E) (A2)
       Virtual   (A1) (A1) (E) (E) (A1) (A1) (E) (E) (E) (E) (A1)
                 (E) (E) (A1) (A2) (E) (E) (E) (E) (A1) (E) (E)
                 (A1) (E) (E) (A1) (E) (E) (A1) (A2) (E) (E) (A2)
                 (E) (E) (A1) (E) (E) (E) (E) (A1) (A1) (E) (E)
                 (A2) (E) (E) (A1) (E) (E) (E) (E) (A1) (A1) (E)
                 (E) (E) (E) (A2) (A1) (E) (E) (E) (E) (A1) (E)
                 (E) (A2) (E) (E) (A2) (A1) (E) (E) (A1) (E) (E)
                 (E) (E) (A1) (E) (E) (A1) (E) (E) (A1) (A2) (E)
                 (E) (E) (E) (A2) (A1) (E) (E) (A2) (E) (E) (A1)
                 (E) (E) (A1) (E) (E)
 The electronic state is 2-A1.
 Alpha  occ. eigenvalues --  -24.75040 -24.75040 -24.75039 -10.44618  -1.35477
 Alpha  occ. eigenvalues --   -1.27148  -1.27148  -0.73198  -0.63266  -0.63266
 Alpha  occ. eigenvalues --   -0.59786  -0.50949  -0.50949  -0.47819  -0.47819
 Alpha  occ. eigenvalues --   -0.45254  -0.28578
 Alpha virt. eigenvalues --    0.08459   0.10406   0.10406   0.13338   0.20794
 Alpha virt. eigenvalues --    0.23154   0.23154   0.39177   0.39177   0.40978
 Alpha virt. eigenvalues --    0.43668   0.43668   0.52681   0.56010   0.60146
 Alpha virt. eigenvalues --    0.60146   0.81522   0.81522   0.83072   0.97584
 Alpha virt. eigenvalues --    0.97584   1.01343   1.09873   1.09873   1.15887
 Alpha virt. eigenvalues --    1.55110   1.55110   1.75742   1.77753   1.79095
 Alpha virt. eigenvalues --    1.79095   1.99647   2.02775   2.02775   2.10785
 Alpha virt. eigenvalues --    2.10785   2.11146   2.25314   2.25314   2.31879
 Alpha virt. eigenvalues --    2.39281   2.42936   2.42936   2.80271   2.82952
 Alpha virt. eigenvalues --    2.82952   2.90346   3.08958   3.08958   3.31190
 Alpha virt. eigenvalues --    3.31190   3.51394   3.53479   3.59128   3.59128
 Alpha virt. eigenvalues --    3.72702   3.72702   3.77124   3.90460   4.01310
 Alpha virt. eigenvalues --    4.01310   4.05101   4.05101   4.26971   4.32817
 Alpha virt. eigenvalues --    4.32817   4.33289   4.34138   4.34138   4.36856
 Alpha virt. eigenvalues --    4.37090   4.46424   4.46424   4.69036   4.77886
 Alpha virt. eigenvalues --    4.77886   5.13136   5.13136   5.17873   5.29194
 Alpha virt. eigenvalues --    5.29194   5.48383   5.59822   5.59822   5.89469
 Alpha virt. eigenvalues --    6.02271   6.09111   6.09111   7.47362   7.47362
 Alpha virt. eigenvalues --    7.49503   7.53211   7.60030   7.60030   7.85522
 Alpha virt. eigenvalues --    7.92526   7.92526   8.00106   8.08495   8.08495
 Alpha virt. eigenvalues --    8.15040   8.23184   8.23184
  Beta  occ. eigenvalues --  -24.74661 -24.74661 -24.74660 -10.42943  -1.34543
  Beta  occ. eigenvalues --   -1.26324  -1.26324  -0.71629  -0.62389  -0.62389
  Beta  occ. eigenvalues --   -0.56187  -0.50013  -0.50013  -0.46910  -0.46910
  Beta  occ. eigenvalues --   -0.44947
  Beta virt. eigenvalues --   -0.11301   0.09289   0.11388   0.11388   0.15364
  Beta virt. eigenvalues --    0.22014   0.25200   0.25200   0.39550   0.39550
  Beta virt. eigenvalues --    0.41208   0.43889   0.43889   0.53277   0.56027
  Beta virt. eigenvalues --    0.60337   0.60337   0.81662   0.81662   0.83607
  Beta virt. eigenvalues --    0.99876   0.99876   1.04645   1.10923   1.10923
  Beta virt. eigenvalues --    1.22768   1.55834   1.55834   1.76994   1.78037
  Beta virt. eigenvalues --    1.79347   1.79347   1.99651   2.03384   2.03384
  Beta virt. eigenvalues --    2.12528   2.13075   2.13075   2.25891   2.25891
  Beta virt. eigenvalues --    2.32984   2.40269   2.43824   2.43824   2.80476
  Beta virt. eigenvalues --    2.84096   2.84096   2.91604   3.10967   3.10967
  Beta virt. eigenvalues --    3.31583   3.31583   3.54625   3.56355   3.61021
  Beta virt. eigenvalues --    3.61021   3.73536   3.73536   3.77461   3.93822
  Beta virt. eigenvalues --    4.04140   4.04140   4.08373   4.08373   4.28312
  Beta virt. eigenvalues --    4.33183   4.33183   4.33592   4.34701   4.34701
  Beta virt. eigenvalues --    4.37208   4.37993   4.46828   4.46828   4.69740
  Beta virt. eigenvalues --    4.80307   4.80307   5.13981   5.13981   5.19036
  Beta virt. eigenvalues --    5.30459   5.30459   5.50291   5.62054   5.62054
  Beta virt. eigenvalues --    5.90424   6.03451   6.09820   6.09820   7.48175
  Beta virt. eigenvalues --    7.48175   7.50354   7.54234   7.60960   7.60960
  Beta virt. eigenvalues --    7.85956   7.93606   7.93606   8.01118   8.09214
  Beta virt. eigenvalues --    8.09214   8.15756   8.23694   8.23694
          Condensed to atoms (all electrons):
               1          2          3          4
     1  C    4.739938   0.211842   0.211842   0.211842
     2  F    0.211842   9.095485  -0.049575  -0.049575
     3  F    0.211842  -0.049575   9.095485  -0.049575
     4  F    0.211842  -0.049575  -0.049575   9.095485
          Atomic-Atomic Spin Densities.
               1          2          3          4
     1  C    1.274695  -0.140774  -0.140774  -0.140774
     2  F   -0.140774   0.164803   0.012590   0.012590
     3  F   -0.140774   0.012590   0.164803   0.012590
     4  F   -0.140774   0.012590   0.012590   0.164803
 Mulliken charges and spin densities:
               1          2
     1  C    0.624534   0.852374
     2  F   -0.208178   0.049209
     3  F   -0.208178   0.049209
     4  F   -0.208178   0.049209
 Sum of Mulliken charges =  -0.00000   1.00000
 Mulliken charges and spin densities with hydrogens summed into heavy atoms:
               1          2
     1  C    0.624534   0.852374
     2  F   -0.208178   0.049209
     3  F   -0.208178   0.049209
     4  F   -0.208178   0.049209
 Electronic spatial extent (au):  <R**2>=            202.0130
 Charge=             -0.0000 electrons
 Dipole moment (field-independent basis, Debye):
    X=             -0.0000    Y=              0.0000    Z=              0.2980  Tot=              0.2980
 Quadrupole moment (field-independent basis, Debye-Ang):
   XX=            -21.1870   YY=            -21.1870   ZZ=            -19.7118
   XY=              0.0000   XZ=             -0.0000   YZ=             -0.0000
 Traceless Quadrupole moment (field-independent basis, Debye-Ang):
   XX=             -0.4917   YY=             -0.4917   ZZ=              0.9835
   XY=              0.0000   XZ=             -0.0000   YZ=             -0.0000
 Octapole moment (field-independent basis, Debye-Ang**2):
  XXX=              0.0000  YYY=             -0.9459  ZZZ=             -2.7939  XYY=             -0.0000
  XXY=              0.9459  XXZ=             -0.6349  XZZ=              0.0000  YZZ=              0.0000
  YYZ=             -0.6349  XYZ=              0.0000
 Hexadecapole moment (field-independent basis, Debye-Ang**3):
 XXXX=            -84.6048 YYYY=            -84.6048 ZZZZ=            -19.8495 XXXY=              0.0000
 XXXZ=             -0.0000 YYYX=              0.0000 YYYZ=             -0.3158 ZZZX=             -0.0000
 ZZZY=             -0.0000 XXYY=            -28.2016 XXZZ=            -17.0305 YYZZ=            -17.0305
 XXYZ=              0.3158 YYXZ=             -0.0000 ZZXY=              0.0000
 N-N= 1.238055549422D+02 E-N=-1.051230206419D+03  KE= 3.368762687110D+02
 Symmetry A'   KE= 2.283745176278D+02
 Symmetry A"   KE= 1.085017510832D+02
 Symmetry A'   SP= 1.000000000000D+00
 Symmetry A"   SP=-3.433833875203D-15
                          Isotropic Fermi Contact Couplings
        Atom                 a.u.       MegaHertz       Gauss      10(-4) cm-1
     1  C(13)              0.69768     784.33050     279.86863     261.62449
     2  F(19)              0.10476     440.75361     157.27185     147.01958
     3  F(19)              0.10476     440.75361     157.27185     147.01958
     4  F(19)              0.10476     440.75361     157.27185     147.01958
 --------------------------------------------------------
       Center         ----  Spin Dipole Couplings  ----
                      3XX-RR        3YY-RR        3ZZ-RR
 --------------------------------------------------------
     1   Atom       -0.509068     -0.509068      1.018136
     2   Atom       -0.390119     -0.323991      0.714109
     3   Atom       -0.340523     -0.373587      0.714109
     4   Atom       -0.340523     -0.373587      0.714109
 --------------------------------------------------------
                        XY            XZ            YZ
 --------------------------------------------------------
     1   Atom        0.000000     -0.000000      0.000000
     2   Atom        0.000000     -0.000000     -0.312754
     3   Atom       -0.028634     -0.270853      0.156377
     4   Atom        0.028634      0.270853      0.156377
 --------------------------------------------------------


 ---------------------------------------------------------------------------------
              Anisotropic Spin Dipole Couplings in Principal Axis System
 ---------------------------------------------------------------------------------

       Atom             a.u.   MegaHertz   Gauss  10(-4) cm-1        Axes

              Baa    -0.5091   -68.312   -24.375   -22.786 -0.5402  0.8415 -0.0000
     1 C(13)  Bbb    -0.5091   -68.312   -24.375   -22.786  0.8415  0.5402  0.0000
              Bcc     1.0181   136.624    48.751    45.573 -0.0000  0.0000  1.0000
 
              Baa    -0.4109  -206.382   -73.642   -68.841 -0.0000  0.9635  0.2678
     2 F(19)  Bbb    -0.3901  -195.928   -69.912   -65.354  1.0000  0.0000  0.0000
              Bcc     0.8011   402.309   143.554   134.196 -0.0000 -0.2678  0.9635
 
              Baa    -0.4109  -206.382   -73.642   -68.841  0.8344 -0.4817  0.2678
     3 F(19)  Bbb    -0.3901  -195.928   -69.912   -65.354  0.5000  0.8660 -0.0000
              Bcc     0.8011   402.309   143.554   134.196 -0.2320  0.1339  0.9635
 
              Baa    -0.4109  -206.382   -73.642   -68.841  0.8344  0.4817 -0.2678
     4 F(19)  Bbb    -0.3901  -195.928   -69.912   -65.354 -0.5000  0.8660  0.0000
              Bcc     0.8011   402.309   143.554   134.196  0.2320  0.1339  0.9635
 

 ---------------------------------------------------------------------------------

 Calling FoFJK, ICntrl=      2127 FMM=F ISym2X=1 I1Cent= 0 IOpClX= 1 NMat=1 NMatS=1 NMatT=0.
 ***** Axes restored to original set *****
 -------------------------------------------------------------------
 Center     Atomic                   Forces (Hartrees/Bohr)
 Number     Number              X              Y              Z
 -------------------------------------------------------------------
      1        6          -0.000000000    0.000000000   -0.000005889
      2        9           0.000000000    0.000003628    0.000001963
      3        9           0.000003142   -0.000001814    0.000001963
      4        9          -0.000003142   -0.000001814    0.000001963
 -------------------------------------------------------------------
 Cartesian Forces:  Max     0.000005889 RMS     0.000002673

 GradGradGradGradGradGradGradGradGradGradGradGradGradGradGradGradGradGrad
 Berny optimization.
 FormGI is forming the generalized inverse of G from B-inverse, IUseBI=4.
 Internal  Forces:  Max     0.000005857 RMS     0.000003487
 Search for a local minimum.
 Step number   1 out of a maximum of   20
 All quantities printed in internal units (Hartrees-Bohrs-Radians)
 Mixed Optimization -- En-DIIS/RFO-DIIS
 Second derivative matrix not updated -- first step.
 The second derivative matrix:
                          R1        R2        R3        A1        A2
           R1           0.61637
           R2           0.00000   0.61637
           R3           0.00000   0.00000   0.61637
           A1           0.00000   0.00000   0.00000   0.25000
           A2           0.00000   0.00000   0.00000   0.00000   0.25000
           A3           0.00000   0.00000   0.00000   0.00000   0.00000
           D1           0.00000   0.00000   0.00000   0.00000   0.00000
                          A3        D1
           A3           0.25000
           D1           0.00000   0.02470
 ITU=  0
     Eigenvalues ---    0.08326   0.25000   0.25000   0.61637   0.61637
     Eigenvalues ---    0.61637
 RFO step:  Lambda= 0.00000000D+00 EMin= 8.32630923D-02
 Linear search not attempted -- first point.
 Iteration  1 RMS(Cart)=  0.00002679 RMS(Int)=  0.00000000
 Iteration  2 RMS(Cart)=  0.00000000 RMS(Int)=  0.00000000
 ClnCor:  largest displacement from symmetrization is 2.45D-06 for atom     4.
 Variable       Old X    -DE/DX   Delta X   Delta X   Delta X     New X
                                 (Linear)    (Quad)   (Total)
    R1        2.49668   0.00000   0.00000   0.00000   0.00000   2.49668
    R2        2.49668   0.00000   0.00000   0.00000   0.00000   2.49668
    R3        2.49668   0.00000   0.00000   0.00000   0.00000   2.49668
    A1        1.94379   0.00000   0.00000   0.00002   0.00003   1.94381
    A2        1.94379   0.00000   0.00000   0.00003   0.00003   1.94381
    A3        1.94379   0.00000   0.00000   0.00003   0.00003   1.94381
    D1        2.18135   0.00001   0.00000   0.00007   0.00007   2.18142
         Item               Value     Threshold  Converged?
 Maximum Force            0.000006     0.000450     YES
 RMS     Force            0.000003     0.000300     YES
 Maximum Displacement     0.000048     0.001800     YES
 RMS     Displacement     0.000026     0.001200     YES
 Predicted change in Energy=-3.247889D-10
 Optimization completed.
    -- Stationary point found.
                           ----------------------------
                           !   Optimized Parameters   !
                           ! (Angstroms and Degrees)  !
 --------------------------                            --------------------------
 ! Name  Definition              Value          Derivative Info.                !
 --------------------------------------------------------------------------------
 ! R1    R(1,2)                  1.3212         -DE/DX =    0.0                 !
 ! R2    R(1,3)                  1.3212         -DE/DX =    0.0                 !
 ! R3    R(1,4)                  1.3212         -DE/DX =    0.0                 !
 ! A1    A(2,1,3)              111.3708         -DE/DX =    0.0                 !
 ! A2    A(2,1,4)              111.3708         -DE/DX =    0.0                 !
 ! A3    A(3,1,4)              111.3708         -DE/DX =    0.0                 !
 ! D1    D(2,1,4,3)            124.9823         -DE/DX =    0.0                 !
 --------------------------------------------------------------------------------
 GradGradGradGradGradGradGradGradGradGradGradGradGradGradGradGradGradGrad

                          Input orientation:                          
 ---------------------------------------------------------------------
 Center     Atomic      Atomic             Coordinates (Angstroms)
 Number     Number       Type             X           Y           Z
 ---------------------------------------------------------------------
      1          6           0        0.000000   -0.000000    0.325007
      2          9           0        0.000000    1.260054   -0.072224
      3          9           0        1.091239   -0.630027   -0.072224
      4          9           0       -1.091239   -0.630027   -0.072224
 ---------------------------------------------------------------------
                    Distance matrix (angstroms):
                    1          2          3          4
     1  C    0.000000
     2  F    1.321185   0.000000
     3  F    1.321185   2.182478   0.000000
     4  F    1.321185   2.182478   2.182478   0.000000
 Stoichiometry    CF3(2)
 Framework group  C3V[C3(C),3SGV(F)]
 Deg. of freedom     2
 Full point group                 C3V     NOp   6
 Largest Abelian subgroup         CS      NOp   2
 Largest concise Abelian subgroup CS      NOp   2
                         Standard orientation:                         
 ---------------------------------------------------------------------
 Center     Atomic      Atomic             Coordinates (Angstroms)
 Number     Number       Type             X           Y           Z
 ---------------------------------------------------------------------
      1          6           0        0.000000    0.000000    0.325007
      2          9           0        0.000000    1.260054   -0.072224
      3          9           0        1.091239   -0.630027   -0.072224
      4          9           0       -1.091239   -0.630027   -0.072224
 ---------------------------------------------------------------------
 Rotational constants (GHZ):          10.7961924          10.7961924           5.5847087
 1\1\GINC-GAMBA\FOpt\UB3LYP\Gen\C1F3(2)\IRIKURA\29-Sep-2023\0\\# b3lyp/
 gen opt freq CPHF(Grid=OneStep)\\CF3, B3LYP/pcseg-2\\0,2\C,0.,0.,0.325
 007\F,0.0000001129,1.260054,-0.072224\F,1.0912387177,-0.6300270978,-0.
 072224\F,-1.0912388306,-0.6300269022,-0.072224\\Version=ES64L-G16RevB.
 01\State=2-A1\HF=-337.7128457\S2=0.751686\S2-1=0.\S2A=0.750002\RMSD=5.
 050e-09\RMSF=2.673e-06\Dipole=0.,0.,0.1172475\Quadrupole=-0.3656011,-0
 .3656011,0.7312023,0.,0.,0.\PG=C03V [C3(C1),3SGV(F1)]\\@


 ADAM SMITH SAID, "THE REAL PRICE OF ANYTHING IS THE TOIL AND TROUBLE
 OF ACQUIRING IT."  BUT IN ALL UNDERTAKINGS WITH NATURE WE SHOULD FIRST
 READ CAREFULLY THE SMALL PRINT IN THE CONTRACT. THIS MIGHT DISCLOSE
 THAT THE REAL PRICE IS TO BE PAID BY THOSE WHO INHERIT THE DEPLETION
 AND DESPOILATION THAT FOLLOWS.
                               -- E. R. HARRISON IN "COSMOLOGY" (1980)
 Job cpu time:       0 days  0 hours  0 minutes 26.3 seconds.
 Elapsed time:       0 days  0 hours  0 minutes  6.8 seconds.
 File lengths (MBytes):  RWF=     16 Int=      0 D2E=      0 Chk=      2 Scr=      1
 Normal termination of Gaussian 16 at Fri Sep 29 19:00:08 2023.
 Link1:  Proceeding to internal job step number  2.
 ------------------------------------------------------------------
 #N Geom=AllCheck Guess=TCheck SCRF=Check GenChk UB3LYP/ChkBas Freq
 ------------------------------------------------------------------
 1/10=4,29=7,30=1,38=1,40=1/1,3;
 2/12=2,40=1/2;
 3/5=7,6=2,11=2,14=-4,25=1,30=1,67=1,70=2,71=2,74=-5,82=7,116=2,140=1/1,2,3;
 4/5=101/1;
 5/5=2,38=6,98=1/2;
 8/6=4,10=90,11=11/1;
 11/6=1,8=1,9=11,15=111,16=1/1,2,10;
 10/6=1,60=-420/2;
 6/7=2,8=2,9=2,10=2,28=1/1;
 7/8=1,10=1,25=1/1,2,3,16;
 1/10=4,30=1/3;
 99//99;
 Structure from the checkpoint file:  "cf3.chk"
 ------------------
 CF3, B3LYP/pcseg-2
 ------------------
 Charge =  0 Multiplicity = 2
 Redundant internal coordinates found in file.  (old form).
 C,0,0.,0.,0.325007
 F,0,0.0000001129,1.260054,-0.072224
 F,0,1.0912387177,-0.6300270978,-0.072224
 F,0,-1.0912388306,-0.6300269022,-0.072224
 Recover connectivity data from disk.

 GradGradGradGradGradGradGradGradGradGradGradGradGradGradGradGradGradGrad
 Berny optimization.
 Initialization pass.
                           ----------------------------
                           !    Initial Parameters    !
                           ! (Angstroms and Degrees)  !
 --------------------------                            --------------------------
 ! Name  Definition              Value          Derivative Info.                !
 --------------------------------------------------------------------------------
 ! R1    R(1,2)                  1.3212         calculate D2E/DX2 analytically  !
 ! R2    R(1,3)                  1.3212         calculate D2E/DX2 analytically  !
 ! R3    R(1,4)                  1.3212         calculate D2E/DX2 analytically  !
 ! A1    A(2,1,3)              111.3708         calculate D2E/DX2 analytically  !
 ! A2    A(2,1,4)              111.3708         calculate D2E/DX2 analytically  !
 ! A3    A(3,1,4)              111.3708         calculate D2E/DX2 analytically  !
 ! D1    D(2,1,4,3)            124.9823         calculate D2E/DX2 analytically  !
 --------------------------------------------------------------------------------
 Trust Radius=3.00D-01 FncErr=1.00D-07 GrdErr=1.00D-07 EigMax=2.50D+02 EigMin=1.00D-04
 Number of steps in this run=      2 maximum allowed number of steps=      2.
 GradGradGradGradGradGradGradGradGradGradGradGradGradGradGradGradGradGrad

                          Input orientation:                          
 ---------------------------------------------------------------------
 Center     Atomic      Atomic             Coordinates (Angstroms)
 Number     Number       Type             X           Y           Z
 ---------------------------------------------------------------------
      1          6           0       -0.000000   -0.000000    0.325007
      2          9           0        0.000000    1.260054   -0.072224
      3          9           0        1.091239   -0.630027   -0.072224
      4          9           0       -1.091239   -0.630027   -0.072224
 ---------------------------------------------------------------------
                    Distance matrix (angstroms):
                    1          2          3          4
     1  C    0.000000
     2  F    1.321185   0.000000
     3  F    1.321185   2.182478   0.000000
     4  F    1.321185   2.182478   2.182478   0.000000
 Stoichiometry    CF3(2)
 Framework group  C3V[C3(C),3SGV(F)]
 Deg. of freedom     2
 Full point group                 C3V     NOp   6
 Largest Abelian subgroup         CS      NOp   2
 Largest concise Abelian subgroup CS      NOp   2
                         Standard orientation:                         
 ---------------------------------------------------------------------
 Center     Atomic      Atomic             Coordinates (Angstroms)
 Number     Number       Type             X           Y           Z
 ---------------------------------------------------------------------
      1          6           0        0.000000    0.000000    0.325007
      2          9           0        0.000000    1.260054   -0.072224
      3          9           0        1.091239   -0.630027   -0.072224
      4          9           0       -1.091239   -0.630027   -0.072224
 ---------------------------------------------------------------------
 Rotational constants (GHZ):          10.7961924          10.7961924           5.5847087
 Basis read from chk: "cf3.chk" (5D, 7F)
 There are    83 symmetry adapted cartesian basis functions of A'  symmetry.
 There are    57 symmetry adapted cartesian basis functions of A"  symmetry.
 There are    70 symmetry adapted basis functions of A'  symmetry.
 There are    50 symmetry adapted basis functions of A"  symmetry.
   120 basis functions,   204 primitive gaussians,   140 cartesian basis functions
    17 alpha electrons       16 beta electrons
       nuclear repulsion energy       123.8055549422 Hartrees.
 NAtoms=    4 NActive=    4 NUniq=    2 SFac= 4.00D+00 NAtFMM=   60 NAOKFM=F Big=F
 Integral buffers will be    131072 words long.
 Raffenetti 2 integral format.
 Two-electron integral symmetry is turned on.
 One-electron integrals computed using PRISM.
 NBasis=   120 RedAO= T EigKep=  2.89D-03  NBF=    70    50
 NBsUse=   120 1.00D-06 EigRej= -1.00D+00 NBFU=    70    50
 Initial guess from the checkpoint file:  "cf3.chk"
 B after Tr=     0.000000    0.000000    0.000000
         Rot=    1.000000    0.000000   -0.000000   -0.000000 Ang=   0.00 deg.
 Initial guess orbital symmetries:
 Alpha Orbitals:
       Occupied  (E) (E) (A1) (A1) (A1) (E) (E) (A1) (E) (E) (A1)
                 (E) (E) (E) (E) (A2) (A1)
       Virtual   (A1) (E) (E) (A1) (A1) (E) (E) (E) (E) (A1) (E)
                 (E) (A1) (A2) (E) (E) (E) (E) (A1) (E) (E) (A1)
                 (E) (E) (A1) (E) (E) (A1) (A2) (E) (E) (A2) (E)
                 (E) (E) (E) (A1) (E) (E) (A1) (A1) (E) (E) (A2)
                 (E) (E) (A1) (E) (E) (E) (E) (A1) (A1) (E) (E)
                 (E) (E) (A2) (A1) (E) (E) (E) (E) (A1) (E) (E)
                 (A2) (E) (E) (A1) (A2) (E) (E) (A1) (E) (E) (E)
                 (E) (A1) (E) (E) (A1) (E) (E) (A1) (A2) (E) (E)
                 (E) (E) (A2) (A1) (E) (E) (A2) (E) (E) (A1) (E)
                 (E) (A1) (E) (E)
 Beta  Orbitals:
       Occupied  (E) (E) (A1) (A1) (A1) (E) (E) (A1) (E) (E) (A1)
                 (E) (E) (E) (E) (A2)
       Virtual   (A1) (A1) (E) (E) (A1) (A1) (E) (E) (E) (E) (A1)
                 (E) (E) (A1) (A2) (E) (E) (E) (E) (A1) (E) (E)
                 (A1) (E) (E) (A1) (E) (E) (A1) (A2) (E) (E) (A2)
                 (E) (E) (A1) (E) (E) (E) (E) (A1) (A1) (E) (E)
                 (A2) (E) (E) (A1) (E) (E) (E) (E) (A1) (A1) (E)
                 (E) (E) (E) (A2) (A1) (E) (E) (E) (E) (A1) (E)
                 (E) (A2) (E) (E) (A2) (A1) (E) (E) (A1) (E) (E)
                 (E) (E) (A1) (E) (E) (A1) (E) (E) (A1) (A2) (E)
                 (E) (E) (E) (A2) (A1) (E) (E) (A2) (E) (E) (A1)
                 (E) (E) (A1) (E) (E)
 Initial guess <Sx>= 0.0000 <Sy>= 0.0000 <Sz>= 0.5000 <S**2>= 0.7517 S= 0.5008
 Keep R1 and R2 ints in memory in symmetry-blocked form, NReq=39609237.
 Requested convergence on RMS density matrix=1.00D-08 within 128 cycles.
 Requested convergence on MAX density matrix=1.00D-06.
 Requested convergence on             energy=1.00D-06.
 No special actions if energy rises.
 SCF Done:  E(UB3LYP) =  -337.712845730     A.U. after    1 cycles
            NFock=  1  Conv=0.78D-09     -V/T= 2.0025
 <Sx>= 0.0000 <Sy>= 0.0000 <Sz>= 0.5000 <S**2>= 0.7517 S= 0.5008
 <L.S>=  0.00000000000    
 Annihilation of the first spin contaminant:
 S**2 before annihilation     0.7517,   after     0.7500
 DoSCS=F DFT=T ScalE2(SS,OS)=  1.000000  1.000000
 Range of M.O.s used for correlation:     1   120
 NBasis=   120 NAE=    17 NBE=    16 NFC=     0 NFV=     0
 NROrb=    120 NOA=    17 NOB=    16 NVA=   103 NVB=   104
 Symmetrizing basis deriv contribution to polar:
 IMax=3 JMax=2 DiffMx= 0.00D+00
 G2DrvN: will do     5 centers at a time, making    1 passes.
 Calling FoFCou, ICntrl=  3107 FMM=F I1Cent=   0 AccDes= 0.00D+00.
 End of G2Drv F.D. properties file   721 does not exist.
 End of G2Drv F.D. properties file   722 does not exist.
 End of G2Drv F.D. properties file   788 does not exist.
          IDoAtm=1111
          Differentiating once with respect to electric field.
                with respect to dipole field.
          Differentiating once with respect to nuclear coordinates.
 Keep R1 and R2 ints in memory in symmetry-blocked form, NReq=39612065.
          There are     9 degrees of freedom in the 1st order CPHF.  IDoFFX=4 NUNeed=     9.
      9 vectors produced by pass  0 Test12= 3.79D-14 1.11D-08 XBig12= 1.61D+01 1.75D+00.
 AX will form     9 AO Fock derivatives at one time.
      9 vectors produced by pass  1 Test12= 3.79D-14 1.11D-08 XBig12= 4.05D+00 7.02D-01.
      9 vectors produced by pass  2 Test12= 3.79D-14 1.11D-08 XBig12= 1.17D-01 1.32D-01.
      9 vectors produced by pass  3 Test12= 3.79D-14 1.11D-08 XBig12= 7.53D-03 2.47D-02.
      9 vectors produced by pass  4 Test12= 3.79D-14 1.11D-08 XBig12= 1.58D-04 3.80D-03.
      9 vectors produced by pass  5 Test12= 3.79D-14 1.11D-08 XBig12= 1.69D-06 3.01D-04.
      9 vectors produced by pass  6 Test12= 3.79D-14 1.11D-08 XBig12= 3.78D-08 5.24D-05.
      7 vectors produced by pass  7 Test12= 3.79D-14 1.11D-08 XBig12= 6.48D-10 6.64D-06.
      3 vectors produced by pass  8 Test12= 3.79D-14 1.11D-08 XBig12= 4.59D-12 5.25D-07.
      1 vectors produced by pass  9 Test12= 3.79D-14 1.11D-08 XBig12= 3.62D-14 5.70D-08.
 InvSVY:  IOpt=1 It=  1 EMax= 8.88D-16
 Solved reduced A of dimension    74 with     9 vectors.
 Isotropic polarizability for W=    0.000000       15.63 Bohr**3.
 End of Minotr F.D. properties file   721 does not exist.
 End of Minotr F.D. properties file   722 does not exist.
 End of Minotr F.D. properties file   788 does not exist.

 **********************************************************************

            Population analysis using the SCF Density.

 **********************************************************************

 Orbital symmetries:
 Alpha Orbitals:
       Occupied  (E) (E) (A1) (A1) (A1) (E) (E) (A1) (E) (E) (A1)
                 (E) (E) (E) (E) (A2) (A1)
       Virtual   (A1) (E) (E) (A1) (A1) (E) (E) (E) (E) (A1) (E)
                 (E) (A1) (A2) (E) (E) (E) (E) (A1) (E) (E) (A1)
                 (E) (E) (A1) (E) (E) (A1) (A2) (E) (E) (A2) (E)
                 (E) (E) (E) (A1) (E) (E) (A1) (A1) (E) (E) (A2)
                 (E) (E) (A1) (E) (E) (E) (E) (A1) (A1) (E) (E)
                 (E) (E) (A2) (A1) (E) (E) (E) (E) (A1) (E) (E)
                 (A2) (E) (E) (A1) (A2) (E) (E) (A1) (E) (E) (E)
                 (E) (A1) (E) (E) (A1) (E) (E) (A1) (A2) (E) (E)
                 (E) (E) (A2) (A1) (E) (E) (A2) (E) (E) (A1) (E)
                 (E) (A1) (E) (E)
 Beta  Orbitals:
       Occupied  (E) (E) (A1) (A1) (A1) (E) (E) (A1) (E) (E) (A1)
                 (E) (E) (E) (E) (A2)
       Virtual   (A1) (A1) (E) (E) (A1) (A1) (E) (E) (E) (E) (A1)
                 (E) (E) (A1) (A2) (E) (E) (E) (E) (A1) (E) (E)
                 (A1) (E) (E) (A1) (E) (E) (A1) (A2) (E) (E) (A2)
                 (E) (E) (A1) (E) (E) (E) (E) (A1) (A1) (E) (E)
                 (A2) (E) (E) (A1) (E) (E) (E) (E) (A1) (A1) (E)
                 (E) (E) (E) (A2) (A1) (E) (E) (E) (E) (A1) (E)
                 (E) (A2) (E) (E) (A2) (A1) (E) (E) (A1) (E) (E)
                 (E) (E) (A1) (E) (E) (A1) (E) (E) (A1) (A2) (E)
                 (E) (E) (E) (A2) (A1) (E) (E) (A2) (E) (E) (A1)
                 (E) (E) (A1) (E) (E)
 The electronic state is 2-A1.
 Alpha  occ. eigenvalues --  -24.75040 -24.75040 -24.75039 -10.44618  -1.35477
 Alpha  occ. eigenvalues --   -1.27148  -1.27148  -0.73198  -0.63266  -0.63266
 Alpha  occ. eigenvalues --   -0.59786  -0.50949  -0.50949  -0.47819  -0.47819
 Alpha  occ. eigenvalues --   -0.45254  -0.28578
 Alpha virt. eigenvalues --    0.08459   0.10406   0.10406   0.13338   0.20794
 Alpha virt. eigenvalues --    0.23154   0.23154   0.39177   0.39177   0.40978
 Alpha virt. eigenvalues --    0.43668   0.43668   0.52681   0.56010   0.60146
 Alpha virt. eigenvalues --    0.60146   0.81522   0.81522   0.83072   0.97584
 Alpha virt. eigenvalues --    0.97584   1.01343   1.09873   1.09873   1.15887
 Alpha virt. eigenvalues --    1.55110   1.55110   1.75742   1.77753   1.79095
 Alpha virt. eigenvalues --    1.79095   1.99647   2.02775   2.02775   2.10785
 Alpha virt. eigenvalues --    2.10785   2.11146   2.25314   2.25314   2.31879
 Alpha virt. eigenvalues --    2.39281   2.42936   2.42936   2.80271   2.82952
 Alpha virt. eigenvalues --    2.82952   2.90346   3.08958   3.08958   3.31190
 Alpha virt. eigenvalues --    3.31190   3.51394   3.53479   3.59128   3.59128
 Alpha virt. eigenvalues --    3.72702   3.72702   3.77124   3.90460   4.01310
 Alpha virt. eigenvalues --    4.01310   4.05101   4.05101   4.26971   4.32817
 Alpha virt. eigenvalues --    4.32817   4.33288   4.34138   4.34138   4.36856
 Alpha virt. eigenvalues --    4.37090   4.46424   4.46424   4.69036   4.77886
 Alpha virt. eigenvalues --    4.77886   5.13136   5.13136   5.17873   5.29194
 Alpha virt. eigenvalues --    5.29194   5.48383   5.59822   5.59822   5.89469
 Alpha virt. eigenvalues --    6.02271   6.09111   6.09111   7.47362   7.47362
 Alpha virt. eigenvalues --    7.49503   7.53211   7.60030   7.60030   7.85522
 Alpha virt. eigenvalues --    7.92526   7.92526   8.00106   8.08495   8.08495
 Alpha virt. eigenvalues --    8.15040   8.23184   8.23184
  Beta  occ. eigenvalues --  -24.74661 -24.74661 -24.74660 -10.42943  -1.34543
  Beta  occ. eigenvalues --   -1.26324  -1.26324  -0.71629  -0.62389  -0.62389
  Beta  occ. eigenvalues --   -0.56187  -0.50013  -0.50013  -0.46910  -0.46910
  Beta  occ. eigenvalues --   -0.44947
  Beta virt. eigenvalues --   -0.11301   0.09289   0.11388   0.11388   0.15364
  Beta virt. eigenvalues --    0.22014   0.25200   0.25200   0.39550   0.39550
  Beta virt. eigenvalues --    0.41208   0.43889   0.43889   0.53277   0.56027
  Beta virt. eigenvalues --    0.60337   0.60337   0.81662   0.81662   0.83607
  Beta virt. eigenvalues --    0.99876   0.99876   1.04645   1.10923   1.10923
  Beta virt. eigenvalues --    1.22768   1.55834   1.55834   1.76994   1.78037
  Beta virt. eigenvalues --    1.79347   1.79347   1.99651   2.03384   2.03384
  Beta virt. eigenvalues --    2.12528   2.13075   2.13075   2.25891   2.25891
  Beta virt. eigenvalues --    2.32984   2.40269   2.43824   2.43824   2.80476
  Beta virt. eigenvalues --    2.84096   2.84096   2.91604   3.10967   3.10967
  Beta virt. eigenvalues --    3.31583   3.31583   3.54625   3.56355   3.61021
  Beta virt. eigenvalues --    3.61021   3.73536   3.73536   3.77461   3.93822
  Beta virt. eigenvalues --    4.04140   4.04140   4.08373   4.08373   4.28312
  Beta virt. eigenvalues --    4.33183   4.33183   4.33592   4.34701   4.34701
  Beta virt. eigenvalues --    4.37208   4.37993   4.46828   4.46828   4.69740
  Beta virt. eigenvalues --    4.80307   4.80307   5.13981   5.13981   5.19036
  Beta virt. eigenvalues --    5.30459   5.30459   5.50291   5.62054   5.62054
  Beta virt. eigenvalues --    5.90424   6.03451   6.09820   6.09820   7.48175
  Beta virt. eigenvalues --    7.48175   7.50354   7.54234   7.60960   7.60960
  Beta virt. eigenvalues --    7.85956   7.93606   7.93606   8.01118   8.09214
  Beta virt. eigenvalues --    8.09214   8.15756   8.23694   8.23694
          Condensed to atoms (all electrons):
               1          2          3          4
     1  C    4.739938   0.211842   0.211842   0.211842
     2  F    0.211842   9.095485  -0.049575  -0.049575
     3  F    0.211842  -0.049575   9.095485  -0.049575
     4  F    0.211842  -0.049575  -0.049575   9.095485
          Atomic-Atomic Spin Densities.
               1          2          3          4
     1  C    1.274695  -0.140774  -0.140774  -0.140774
     2  F   -0.140774   0.164803   0.012590   0.012590
     3  F   -0.140774   0.012590   0.164803   0.012590
     4  F   -0.140774   0.012590   0.012590   0.164803
 Mulliken charges and spin densities:
               1          2
     1  C    0.624534   0.852374
     2  F   -0.208178   0.049209
     3  F   -0.208178   0.049209
     4  F   -0.208178   0.049209
 Sum of Mulliken charges =  -0.00000   1.00000
 Mulliken charges and spin densities with hydrogens summed into heavy atoms:
               1          2
     1  C    0.624534   0.852374
     2  F   -0.208178   0.049209
     3  F   -0.208178   0.049209
     4  F   -0.208178   0.049209
 APT charges:
               1
     1  C    1.493463
     2  F   -0.497824
     3  F   -0.497822
     4  F   -0.497822
 Sum of APT charges =  -0.00000
 APT charges with hydrogens summed into heavy atoms:
               1
     1  C    1.493463
     2  F   -0.497824
     3  F   -0.497822
     4  F   -0.497822
 Electronic spatial extent (au):  <R**2>=            202.0130
 Charge=             -0.0000 electrons
 Dipole moment (field-independent basis, Debye):
    X=              0.0000    Y=             -0.0000    Z=              0.2980  Tot=              0.2980
 Quadrupole moment (field-independent basis, Debye-Ang):
   XX=            -21.1870   YY=            -21.1870   ZZ=            -19.7118
   XY=             -0.0000   XZ=              0.0000   YZ=             -0.0000
 Traceless Quadrupole moment (field-independent basis, Debye-Ang):
   XX=             -0.4917   YY=             -0.4917   ZZ=              0.9835
   XY=             -0.0000   XZ=              0.0000   YZ=             -0.0000
 Octapole moment (field-independent basis, Debye-Ang**2):
  XXX=              0.0000  YYY=             -0.9459  ZZZ=             -2.7939  XYY=              0.0000
  XXY=              0.9459  XXZ=             -0.6349  XZZ=              0.0000  YZZ=             -0.0000
  YYZ=             -0.6349  XYZ=              0.0000
 Hexadecapole moment (field-independent basis, Debye-Ang**3):
 XXXX=            -84.6048 YYYY=            -84.6048 ZZZZ=            -19.8495 XXXY=             -0.0000
 XXXZ=              0.0000 YYYX=              0.0000 YYYZ=             -0.3158 ZZZX=             -0.0000
 ZZZY=              0.0000 XXYY=            -28.2016 XXZZ=            -17.0305 YYZZ=            -17.0305
 XXYZ=              0.3158 YYXZ=             -0.0000 ZZXY=              0.0000
 N-N= 1.238055549422D+02 E-N=-1.051230209271D+03  KE= 3.368762701669D+02
 Symmetry A'   KE= 2.283745184356D+02
 Symmetry A"   KE= 1.085017517313D+02
 Symmetry A'   SP= 1.000000000000D+00
 Symmetry A"   SP= 5.925377477903D-15
  Exact polarizability:  16.994  -0.000  16.994  -0.000  -0.000  12.888
 Approx polarizability:  21.735  -0.000  21.735   0.000   0.000  15.504
                          Isotropic Fermi Contact Couplings
        Atom                 a.u.       MegaHertz       Gauss      10(-4) cm-1
     1  C(13)              0.69768     784.33061     279.86867     261.62453
     2  F(19)              0.10476     440.75374     157.27190     147.01962
     3  F(19)              0.10476     440.75374     157.27190     147.01962
     4  F(19)              0.10476     440.75374     157.27190     147.01962
 --------------------------------------------------------
       Center         ----  Spin Dipole Couplings  ----
                      3XX-RR        3YY-RR        3ZZ-RR
 --------------------------------------------------------
     1   Atom       -0.509068     -0.509068      1.018136
     2   Atom       -0.390119     -0.323991      0.714110
     3   Atom       -0.340523     -0.373587      0.714110
     4   Atom       -0.340523     -0.373587      0.714110
 --------------------------------------------------------
                        XY            XZ            YZ
 --------------------------------------------------------
     1   Atom        0.000000     -0.000000      0.000000
     2   Atom       -0.000000      0.000000     -0.312754
     3   Atom       -0.028634     -0.270853      0.156377
     4   Atom        0.028634      0.270853      0.156377
 --------------------------------------------------------


 ---------------------------------------------------------------------------------
              Anisotropic Spin Dipole Couplings in Principal Axis System
 ---------------------------------------------------------------------------------

       Atom             a.u.   MegaHertz   Gauss  10(-4) cm-1        Axes

              Baa    -0.5091   -68.312   -24.375   -22.786 -0.2403  0.9707 -0.0000
     1 C(13)  Bbb    -0.5091   -68.312   -24.375   -22.786  0.9707  0.2403  0.0000
              Bcc     1.0181   136.624    48.751    45.573 -0.0000  0.0000  1.0000
 
              Baa    -0.4109  -206.382   -73.642   -68.842  0.0000  0.9635  0.2678
     2 F(19)  Bbb    -0.3901  -195.928   -69.912   -65.354  1.0000 -0.0000 -0.0000
              Bcc     0.8011   402.309   143.554   134.196  0.0000 -0.2678  0.9635
 
              Baa    -0.4109  -206.382   -73.642   -68.842  0.8344 -0.4817  0.2678
     3 F(19)  Bbb    -0.3901  -195.928   -69.912   -65.354  0.5000  0.8660  0.0000
              Bcc     0.8011   402.309   143.554   134.196 -0.2320  0.1339  0.9635
 
              Baa    -0.4109  -206.382   -73.642   -68.842  0.8344  0.4817 -0.2678
     4 F(19)  Bbb    -0.3901  -195.928   -69.912   -65.354 -0.5000  0.8660 -0.0000
              Bcc     0.8011   402.309   143.554   134.196  0.2320  0.1339  0.9635
 

 ---------------------------------------------------------------------------------

 Calling FoFJK, ICntrl=    100127 FMM=F ISym2X=1 I1Cent= 0 IOpClX= 1 NMat=1 NMatS=1 NMatT=0.
 Full mass-weighted force constant matrix:
 Low frequencies ---   -4.2088   -4.2026   -4.1308    0.0019    0.0195    0.0246
 Low frequencies ---  503.9324  503.9328  696.3426
 Diagonal vibrational polarizability:
        6.7363170       6.7364819       1.6578332
 Harmonic frequencies (cm**-1), IR intensities (KM/Mole), Raman scattering
 activities (A**4/AMU), depolarization ratios for plane and unpolarized
 incident light, reduced masses (AMU), force constants (mDyne/A),
 and normal coordinates:
                      1                      2                      3
                      E                      E                     A1
 Frequencies --    503.9324               503.9328               696.3426
 Red. masses --     18.2868                18.2868                16.3194
 Frc consts  --      2.7361                 2.7361                 4.6623
 IR Inten    --      1.3207                 1.3207                12.9591
  Atom  AN      X      Y      Z        X      Y      Z        X      Y      Z
     1   6    -0.00   0.32   0.00    -0.32  -0.00  -0.00    -0.00  -0.00   0.62
     2   9     0.00   0.48   0.04     0.61  -0.00  -0.00     0.00  -0.43  -0.13
     3   9    -0.47  -0.34  -0.02    -0.20   0.47  -0.04    -0.38   0.22  -0.13
     4   9     0.47  -0.34  -0.02    -0.20  -0.47   0.04     0.38   0.22  -0.13
                      4                      5                      6
                     A1                      E                      E
 Frequencies --   1077.0702              1235.4204              1235.4219
 Red. masses --     14.4189                13.3158                13.3158
 Frc consts  --      9.8553                11.9742                11.9742
 IR Inten    --     40.4615               374.1113               374.1213
  Atom  AN      X      Y      Z        X      Y      Z        X      Y      Z
     1   6    -0.00   0.00   0.81     0.90   0.00  -0.00    -0.00   0.90  -0.00
     2   9    -0.00   0.29  -0.17    -0.05  -0.00   0.00     0.00  -0.33   0.12
     3   9     0.25  -0.15  -0.17    -0.26   0.12   0.10     0.12  -0.12  -0.06
     4   9    -0.25  -0.15  -0.17    -0.26  -0.12  -0.10    -0.12  -0.12  -0.06

 -------------------
 - Thermochemistry -
 -------------------
 Temperature   298.150 Kelvin.  Pressure   1.00000 Atm.
 Atom     1 has atomic number  6 and mass  12.00000
 Atom     2 has atomic number  9 and mass  18.99840
 Atom     3 has atomic number  9 and mass  18.99840
 Atom     4 has atomic number  9 and mass  18.99840
 Molecular mass:    68.99521 amu.
 Principal axes and moments of inertia in atomic units:
                           1         2         3
     Eigenvalues --   167.16460 167.16460 323.15762
           X           -0.36508   0.93098   0.00000
           Y            0.93098   0.36508   0.00000
           Z            0.00000   0.00000   1.00000
 This molecule is an oblate symmetric top.
 Rotational symmetry number  3.
 Rotational temperatures (Kelvin)      0.51814     0.51814     0.26802
 Rotational constants (GHZ):          10.79619    10.79619     5.58471
 Zero-point vibrational energy      31414.7 (Joules/Mol)
                                    7.50828 (Kcal/Mol)
 Warning -- explicit consideration of   2 degrees of freedom as
           vibrations may cause significant error
 Vibrational temperatures:    725.05   725.05  1001.88  1549.66  1777.49
          (Kelvin)           1777.50
 
 Zero-point correction=                           0.011965 (Hartree/Particle)
 Thermal correction to Energy=                    0.015411
 Thermal correction to Enthalpy=                  0.016355
 Thermal correction to Gibbs Free Energy=        -0.013707
 Sum of electronic and zero-point Energies=           -337.700881
 Sum of electronic and thermal Energies=              -337.697435
 Sum of electronic and thermal Enthalpies=            -337.696491
 Sum of electronic and thermal Free Energies=         -337.726552
 
                     E (Thermal)             CV                S
                      KCal/Mol        Cal/Mol-Kelvin    Cal/Mol-Kelvin
 Total                    9.670              9.946             63.270
 Electronic               0.000              0.000              1.377
 Translational            0.889              2.981             38.612
 Rotational               0.889              2.981             21.533
 Vibrational              7.893              3.985              1.747
 Vibration     1          0.859              1.241              0.648
 Vibration     2          0.859              1.241              0.648
                       Q            Log10(Q)             Ln(Q)
 Total Bot       0.201636D+07          6.304568         14.516804
 Total V=0       0.642951D+12         11.808178         27.189334
 Vib (Bot)       0.394712D-05         -5.403720        -12.442526
 Vib (Bot)    1  0.325001D+00         -0.488116         -1.123928
 Vib (Bot)    2  0.325000D+00         -0.488116         -1.123929
 Vib (V=0)       0.125861D+01          0.099890          0.230004
 Vib (V=0)    1  0.109634D+01          0.039947          0.091980
 Vib (V=0)    2  0.109634D+01          0.039947          0.091980
 Electronic      0.200000D+01          0.301030          0.693147
 Translational   0.225259D+08          7.352682         16.930177
 Rotational      0.113390D+05          4.054576          9.336006
 ***** Axes restored to original set *****
 -------------------------------------------------------------------
 Center     Atomic                   Forces (Hartrees/Bohr)
 Number     Number              X              Y              Z
 -------------------------------------------------------------------
      1        6          -0.000000000    0.000000000   -0.000005863
      2        9           0.000000000    0.000003636    0.000001954
      3        9           0.000003149   -0.000001818    0.000001954
      4        9          -0.000003149   -0.000001818    0.000001954
 -------------------------------------------------------------------
 Cartesian Forces:  Max     0.000005863 RMS     0.000002669
 FormGI is forming the generalized inverse of G from B-inverse, IUseBI=4.

 GradGradGradGradGradGradGradGradGradGradGradGradGradGradGradGradGradGrad
 Berny optimization.
 Internal  Forces:  Max     0.000005845 RMS     0.000003486
 Search for a local minimum.
 Step number   1 out of a maximum of    2
 All quantities printed in internal units (Hartrees-Bohrs-Radians)
 Second derivative matrix not updated -- analytic derivatives used.
 The second derivative matrix:
                          R1        R2        R3        A1        A2
           R1           0.40647
           R2           0.06332   0.40646
           R3           0.06332   0.06332   0.40646
           A1           0.01678   0.01678  -0.02959   0.12910
           A2           0.03139  -0.02589   0.03765  -0.09243   0.26822
           A3          -0.02589   0.03139   0.03765  -0.09243  -0.02636
           D1           0.02613   0.02613   0.01780   0.03029   0.06059
                          A3        D1
           A3           0.26822
           D1           0.06059   0.13076
 ITU=  0
     Eigenvalues ---    0.15165   0.25665   0.29118   0.38108   0.39057
     Eigenvalues ---    0.54456
 Angle between quadratic step and forces=  30.04 degrees.
 Linear search not attempted -- first point.
 Iteration  1 RMS(Cart)=  0.00001180 RMS(Int)=  0.00000000
 Iteration  2 RMS(Cart)=  0.00000000 RMS(Int)=  0.00000000
 ClnCor:  largest displacement from symmetrization is 1.45D-10 for atom     3.
 Variable       Old X    -DE/DX   Delta X   Delta X   Delta X     New X
                                 (Linear)    (Quad)   (Total)
    R1        2.49668   0.00000   0.00000   0.00000   0.00000   2.49668
    R2        2.49668   0.00000   0.00000   0.00000   0.00000   2.49668
    R3        2.49668   0.00000   0.00000   0.00000   0.00000   2.49668
    A1        1.94379   0.00000   0.00000   0.00001   0.00001   1.94380
    A2        1.94379   0.00000   0.00000   0.00001   0.00001   1.94380
    A3        1.94379   0.00000   0.00000   0.00001   0.00001   1.94380
    D1        2.18135   0.00001   0.00000   0.00003   0.00003   2.18138
         Item               Value     Threshold  Converged?
 Maximum Force            0.000006     0.000450     YES
 RMS     Force            0.000003     0.000300     YES
 Maximum Displacement     0.000020     0.001800     YES
 RMS     Displacement     0.000012     0.001200     YES
 Predicted change in Energy=-1.442664D-10
 Optimization completed.
    -- Stationary point found.
                           ----------------------------
                           !   Optimized Parameters   !
                           ! (Angstroms and Degrees)  !
 --------------------------                            --------------------------
 ! Name  Definition              Value          Derivative Info.                !
 --------------------------------------------------------------------------------
 ! R1    R(1,2)                  1.3212         -DE/DX =    0.0                 !
 ! R2    R(1,3)                  1.3212         -DE/DX =    0.0                 !
 ! R3    R(1,4)                  1.3212         -DE/DX =    0.0                 !
 ! A1    A(2,1,3)              111.3708         -DE/DX =    0.0                 !
 ! A2    A(2,1,4)              111.3708         -DE/DX =    0.0                 !
 ! A3    A(3,1,4)              111.3708         -DE/DX =    0.0                 !
 ! D1    D(2,1,4,3)            124.9823         -DE/DX =    0.0                 !
 --------------------------------------------------------------------------------
 GradGradGradGradGradGradGradGradGradGradGradGradGradGradGradGradGradGrad


 ----------------------------------------------------------------------

 Electric dipole moment (input orientation):
 (Debye = 10**-18 statcoulomb cm , SI units = C m)
                  (au)            (Debye)         (10**-30 SI)
   Tot        0.117248D+00      0.298014D+00      0.994068D+00
   x          0.000000D+00      0.000000D+00      0.000000D+00
   y          0.000000D+00      0.000000D+00      0.000000D+00
   z          0.117248D+00      0.298014D+00      0.994068D+00

 Dipole polarizability, Alpha (input orientation).
 (esu units = cm**3 , SI units = C**2 m**2 J**-1)
 Alpha(0;0):
               (au)            (10**-24 esu)      (10**-40 SI)
   iso        0.156254D+02      0.231545D+01      0.257628D+01
   aniso      0.410666D+01      0.608544D+00      0.677096D+00
   xx         0.169942D+02      0.251829D+01      0.280197D+01
   yx         0.000000D+00      0.000000D+00      0.000000D+00
   yy         0.169944D+02      0.251831D+01      0.280199D+01
   zx         0.000000D+00      0.000000D+00      0.000000D+00
   zy        -0.416333D-04     -0.616943D-05     -0.686441D-05
   zz         0.128877D+02      0.190975D+01      0.212489D+01

 ----------------------------------------------------------------------

 Dipole orientation:
     6         -0.00000000          0.00000000          0.61417422
     9          0.00000021          2.38115696         -0.13648358
     9          2.06214231         -1.19057867         -0.13648358
[...]
      2          9           0        0.000000    1.260054   -0.072224
      3          9           0        1.091239   -0.630027   -0.072224
      4          9           0       -1.091239   -0.630027   -0.072224
 ---------------------------------------------------------------------
 Rotational constants (GHZ):          10.7961924          10.7961924           5.5847087
 General basis read from cards:  (5D, 7F)
 There are   146 symmetry adapted cartesian basis functions of A'  symmetry.
 There are   102 symmetry adapted cartesian basis functions of A"  symmetry.
 There are   123 symmetry adapted basis functions of A'  symmetry.
 There are    89 symmetry adapted basis functions of A"  symmetry.
   212 basis functions,   312 primitive gaussians,   248 cartesian basis functions
    17 alpha electrons       16 beta electrons
       nuclear repulsion energy       123.8055549422 Hartrees.
 NAtoms=    4 NActive=    4 NUniq=    2 SFac= 4.00D+00 NAtFMM=   60 NAOKFM=F Big=F
 Integral buffers will be    131072 words long.
 Raffenetti 2 integral format.
 Two-electron integral symmetry is turned on.
 One-electron integrals computed using PRISM.
 NBasis=   212 RedAO= T EigKep=  2.74D-04  NBF=   123    89
 NBsUse=   212 1.00D-06 EigRej= -1.00D+00 NBFU=   123    89
 Initial guess from the checkpoint file:  "cf3.chk"
 B after Tr=    -0.000000    0.000000   -0.000000
         Rot=    1.000000    0.000000   -0.000000   -0.000000 Ang=   0.00 deg.
 BiOrM2:  NumA=      17 NumB=      16.
 Eigenvalues of SAB:
  1.00000000  1.00000000  1.00000000  0.99999972  0.99999858
  0.99999807  0.99999807  0.99999682  0.99999682  0.99999582
  0.99996017  0.99995785  0.99995785  0.99991322  0.99991322
  0.99947225  0.05139400
 BiOrM2:  NumA=       1 NumB=     196.
 Eigenvalues of SAB:
  1.00000000  0.02347034 -0.06424065  0.04324372  0.01977440
 -0.05533819  0.02856478  0.01107822 -0.03283216  0.04396695
  0.01384934 -0.02985509  0.04415493 -0.00384809 -0.01988049
  0.06526388  0.05430181  0.02003133 -0.09793155 -0.09062113
  0.09511899  0.07887546  0.02882652 -0.14319643 -0.13310121
  0.06219998  0.06296358  0.01610244 -0.11337497 -0.10047910
 -0.00190584  0.03554335  0.00867459 -0.00025507  0.00568865
 -0.00534680 -0.05293783  0.00029389  0.04530092  0.00618034
 -0.00162724  0.00377608 -0.00249031 -0.07842069  0.00000000
  0.00000000  0.00000000  0.00000000  0.00000000  0.00000000
 -0.00000000  0.00000000  0.00000000 -0.00000000  0.00000000
  0.00000000 -0.00000000  0.00000000  0.00000000  0.00000000
  0.00000000  0.00000000 -0.00000000  0.00000000  0.00000000
 -0.00000000  0.00000000  0.00000000  0.00000000  0.00000000
  0.00000000  0.00000000  0.00000000  0.00000000  0.00000000
  0.00000000  0.00000000  0.00000000  0.00000000 -0.00000000
  0.00000000  0.00000000 -0.00000000  0.00000000 -0.00000000
  0.00000000  0.00000000 -0.00000000  0.24176705  0.00000000
  0.00000000 -0.00000000  0.00000000  0.00000000 -0.00000000
  0.10304808  0.00000000  0.00000000  0.00000000  0.00000000
  0.00000000  0.00000000  0.00000000  0.09274583  0.00000000
  0.00000000  0.12320443  0.00000000  0.00000000  0.10558098
  0.00000000  0.00000000  0.05998898  0.00000000  0.00000000
  0.03921830  0.00000000  0.00000000  0.00915454  0.00000000
  0.00000000  0.00000000 -0.08492215  0.00000000  0.00000000
  0.11200593  0.00000000 -0.12424987  0.00000000  0.00000000
  0.16238768  0.00000000 -0.10303400  0.00000000  0.00000000
  0.11085189  0.00000000 -0.01070145  0.00000000  0.00000000
  0.03802444  0.03529638  0.00000000  0.00000000 -0.02264865
  0.00000000  0.00000000  0.05173458  0.03725426  0.00000000
  0.00000000 -0.00000000  0.00000000  0.00000000  0.00000000
 -0.00000000 -0.04637292 -0.08032025 -0.00000000 -0.06160221
 -0.10669816 -0.00000000 -0.05279049 -0.09143581 -0.00000000
 -0.02999449 -0.05195198 -0.00000000 -0.01960915 -0.03396404
 -0.00000000 -0.00457727 -0.00792806 -0.00000000  0.00000000
  0.04246107  0.07354474 -0.09699998 -0.05600297  0.00000000
  0.06212493  0.10760354 -0.14063186 -0.08119384  0.00000000
  0.05151700  0.08923006 -0.09600055 -0.05542594 -0.00000000
  0.00535073  0.00926773 -0.03293013 -0.01901222  0.03529638
 -0.00000000
 BiOrM2:  NumA=     195 NumB=     195.
 Eigenvalues of SAB:
  1.00000000  1.00000000  1.00000000  1.00000000  1.00000000
  1.00000000  1.00000000  1.00000000  1.00000000  1.00000000
  1.00000000  1.00000000  1.00000000  1.00000000  1.00000000
  1.00000000  1.00000000  1.00000000  1.00000000  1.00000000
  1.00000000  1.00000000  1.00000000  1.00000000  1.00000000
  1.00000000  1.00000000  1.00000000  1.00000000  1.00000000
  1.00000000  1.00000000  1.00000000  1.00000000  1.00000000
  1.00000000  1.00000000  1.00000000  1.00000000  1.00000000
  1.00000000  1.00000000  1.00000000  1.00000000  1.00000000
  1.00000000  1.00000000  1.00000000  1.00000000  1.00000000
  1.00000000  1.00000000  1.00000000  1.00000000  1.00000000
  1.00000000  1.00000000  1.00000000  1.00000000  1.00000000
  1.00000000  1.00000000  1.00000000  1.00000000  1.00000000
  1.00000000  1.00000000  1.00000000  1.00000000  1.00000000
  1.00000000  1.00000000  1.00000000  1.00000000  1.00000000
  1.00000000  1.00000000  1.00000000  1.00000000  1.00000000
  1.00000000  1.00000000  1.00000000  1.00000000  1.00000000
  1.00000000  1.00000000  1.00000000  1.00000000  1.00000000
  1.00000000  1.00000000  1.00000000  1.00000000  1.00000000
  1.00000000  1.00000000  1.00000000  1.00000000  1.00000000
  1.00000000  1.00000000  1.00000000  1.00000000  1.00000000
  1.00000000  1.00000000  1.00000000  1.00000000  1.00000000
  1.00000000  1.00000000  1.00000000  1.00000000  1.00000000
  1.00000000  1.00000000  1.00000000  1.00000000  1.00000000
  1.00000000  1.00000000  1.00000000  1.00000000  1.00000000
  1.00000000  1.00000000  1.00000000  1.00000000  1.00000000
  1.00000000  1.00000000  1.00000000  1.00000000  1.00000000
  1.00000000  1.00000000  1.00000000  1.00000000  1.00000000
  1.00000000  1.00000000  1.00000000  1.00000000  1.00000000
  1.00000000  1.00000000  1.00000000  1.00000000  1.00000000
  1.00000000  1.00000000  1.00000000  1.00000000  1.00000000
  1.00000000  1.00000000  1.00000000  1.00000000  1.00000000
  1.00000000  1.00000000  1.00000000  1.00000000  1.00000000
  1.00000000  1.00000000  1.00000000  1.00000000  1.00000000
  1.00000000  1.00000000  1.00000000  1.00000000  1.00000000
  1.00000000  1.00000000  1.00000000  1.00000000  1.00000000
  1.00000000  1.00000000  0.99999972  0.99999858  0.99999807
  0.99999807  0.99999682  0.99999682  0.99999582  0.99996017
  0.99995785  0.99995785  0.99991322  0.99991322  0.99947225
 Initial guess orbital symmetries:
       Occupied  (E) (E) (A1) (A1) (A2) (E) (E) (E) (E) (A1) (A1)
                 (E) (E) (E) (E) (A1) (A1)
       Virtual   (?A) (?A) (?A) (?A) (?A) (?A) (?A) (?A) (?A) (?A)
                 (?A) (?A) (?A) (?A) (?A) (?A) (?A) (?A) (?A) (?A)
                 (?A) (?A) (?A) (?A) (?A) (?A) (?A) (?A) (?A) (?A)
                 (?A) (?A) (?A) (?A) (?A) (?A) (?A) (?A) (?A) (?A)
                 (?A) (?A) (?A) (?A) (?A) (?A) (?A) (?A) (?A) (?A)
                 (?A) (?A) (?A) (?A) (?A) (?A) (?A) (?A) (?A) (?A)
                 (?A) (?A) (?A) (?A) (?A) (?A) (?A) (?A) (?A) (?A)
                 (?A) (?A) (?A) (?A) (?A) (?A) (?A) (?A) (?A) (?A)
                 (?A) (?A) (?A) (?A) (?A) (?A) (?A) (?A) (?A) (?A)
                 (?A) (?A) (?A) (?A) (?A) (?A) (?A) (?A) (?A) (?A)
                 (?A) (?A) (?A) (?A) (?A) (?A) (?A) (?A) (?A) (?A)
                 (?A) (?A) (?A) (?A) (?A) (?A) (?A) (?A) (?A) (?A)
                 (?A) (?A) (?A) (?A) (?A) (?A) (?A) (?A) (?A) (?A)
                 (?A) (?A) (?A) (?A) (?A) (?A) (?A) (?A) (?A) (?A)
                 (?A) (?A) (?A) (?A) (?A) (?A) (?A) (?A) (?A) (?A)
                 (?A) (?A) (?A) (?A) (?A) (?A) (?A) (?A) (?A) (?A)
                 (?A) (?A) (?A) (?A) (?A) (?A) (?A) (?A) (?A) (?A)
                 (?A) (?A) (?A) (?A) (?A) (?A) (?A) (?A) (?A) (E)
                 (E) (A1) (A1) (A2) (E) (E) (E) (E) (A1) (A1) (E)
                 (E) (E) (E) (A1)
 Keep R1 and R2 ints in memory in symmetry-blocked form, NReq=382758593.
 Requested convergence on RMS density matrix=1.00D-08 within 128 cycles.
 Requested convergence on MAX density matrix=1.00D-06.
 Requested convergence on             energy=1.00D-06.
 No special actions if energy rises.
 An orbital has undefined symmetry, so N**3 symmetry is turned off.
 SCF Done:  E(ROHF) =  -336.288933733     A.U. after   13 cycles
            NFock= 13  Conv=0.23D-08     -V/T= 2.0008
 <Sx>= 0.0000 <Sy>= 0.0000 <Sz>= 0.5000 <S**2>= 0.7500 S= 0.5000
 <L.S>=  0.00000000000    
 Annihilation of the first spin contaminant:
 S**2 before annihilation     0.7500,   after     0.7500

 **********************************************************************

            Population analysis using the SCF Density.

 **********************************************************************

 Orbital symmetries:
       Occupied  (E) (E) (A1) (A1) (A1) (E) (E) (A1) (E) (E) (A1)
                 (E) (E) (E) (E) (A2) (A1)
       Virtual   (A1) (A1) (E) (E) (E) (E) (E) (E) (A1) (A1) (E)
                 (E) (A2) (A1) (E) (E) (E) (E) (A1) (A1) (E) (E)
                 (A1) (E) (E) (E) (E) (A1) (A1) (E) (E) (A1) (A2)
                 (E) (E) (E) (E) (E) (E) (A1) (A2) (A1) (E) (E)
                 (E) (E) (A1) (E) (E) (A1) (E) (E) (A2) (E) (E)
                 (A1) (A1) (E) (E) (E) (E) (A1) (A2) (E) (E) (E)
                 (E) (A1) (A1) (E) (E) (E) (E) (A2) (E) (E) (A2)
                 (E) (E) (A1) (A2) (E) (E) (A1) (E) (E) (A1) (E)
                 (E) (E) (E) (A2) (A1) (E) (E) (A1) (A1) (E) (E)
                 (E) (E) (E) (E) (A2) (A1) (E) (E) (E) (E) (A1)
                 (A1) (E) (E) (E) (E) (A1) (A2) (E) (E) (A1) (A1)
                 (E) (E) (E) (E) (A2) (A1) (E) (E) (E) (E) (A1)
                 (E) (E) (E) (E) (E) (E) (A2) (A1) (E) (E) (A2)
                 (E) (E) (A1) (E) (E) (E) (E) (A2) (A1) (E) (E)
                 (A1) (A1) (E) (E) (A2) (E) (E) (E) (E) (A1) (E)
                 (E) (A1) (A2) (E) (E) (A1) (E) (E) (E) (E) (A2)
                 (A1) (E) (E) (A1) (E) (E) (A1) (A1) (E) (E) (A2)
                 (E) (E) (E) (E) (A1) (A1) (E) (E)
 The electronic state is 2-A1.
 Alpha  occ. eigenvalues --  -26.36471 -26.36471 -26.36468 -11.50871  -1.74963
 Alpha  occ. eigenvalues --   -1.66127  -1.66127  -0.96686  -0.84512  -0.84512
 Alpha  occ. eigenvalues --   -0.79376  -0.72407  -0.72407  -0.69201  -0.69201
 Alpha  occ. eigenvalues --   -0.67561  -0.12463
 Alpha virt. eigenvalues --    0.06545   0.07019   0.07103   0.07103   0.17068
 Alpha virt. eigenvalues --    0.17068   0.20041   0.20041   0.20303   0.24055
 Alpha virt. eigenvalues --    0.24569   0.24569   0.26004   0.28829   0.35665
 Alpha virt. eigenvalues --    0.35665   0.40693   0.40693   0.43498   0.44644
 Alpha virt. eigenvalues --    0.53409   0.53409   0.59543   0.79619   0.79619
 Alpha virt. eigenvalues --    0.81186   0.81186   0.85895   0.89927   0.91286
 Alpha virt. eigenvalues --    0.91286   0.92495   0.93759   0.97531   0.97531
 Alpha virt. eigenvalues --    1.10248   1.10248   1.24875   1.24875   1.28695
 Alpha virt. eigenvalues --    1.37768   1.38068   1.41157   1.41157   1.48183
 Alpha virt. eigenvalues --    1.48183   1.58525   1.70907   1.70907   1.73292
 Alpha virt. eigenvalues --    1.83517   1.83517   1.87714   1.95628   1.95628
 Alpha virt. eigenvalues --    2.01927   2.08901   2.12290   2.12290   2.14014
 Alpha virt. eigenvalues --    2.14014   2.15815   2.18807   2.44498   2.44498
 Alpha virt. eigenvalues --    2.52607   2.52607   2.57018   2.66493   2.74314
 Alpha virt. eigenvalues --    2.74314   3.32374   3.32374   3.38919   3.44089
 Alpha virt. eigenvalues --    3.44089   3.49567   3.49795   3.49795   3.50416
 Alpha virt. eigenvalues --    3.60952   3.61982   3.61982   3.64948   3.72487
 Alpha virt. eigenvalues --    3.72487   3.86722   3.93788   3.93788   4.07603
 Alpha virt. eigenvalues --    4.07603   4.08716   4.10568   4.11962   4.11962
 Alpha virt. eigenvalues --    4.34685   4.38920   4.47196   4.47196   4.48090
 Alpha virt. eigenvalues --    4.48090   4.52156   4.52156   4.67240   4.70729
 Alpha virt. eigenvalues --    4.71106   4.71106   4.84444   4.84444   4.93061
 Alpha virt. eigenvalues --    4.95378   5.07474   5.07474   5.08028   5.08028
 Alpha virt. eigenvalues --    5.17879   5.21260   5.25414   5.25414   5.32153
 Alpha virt. eigenvalues --    5.66879   5.68307   5.68307   5.90860   5.90860
 Alpha virt. eigenvalues --    5.98852   6.84399   7.46994   7.46994   8.16150
 Alpha virt. eigenvalues --    8.16150   8.28863   9.07345   9.07345  11.28464
 Alpha virt. eigenvalues --   11.28464  11.30097  11.30097  11.30108  11.32756
 Alpha virt. eigenvalues --   11.33998  11.33998  11.44684  11.49491  11.49491
 Alpha virt. eigenvalues --   11.53486  11.56104  11.56104  11.60195  11.60195
 Alpha virt. eigenvalues --   11.65803  11.68731  11.82518  11.82518  11.84362
 Alpha virt. eigenvalues --   12.18565  12.21490  12.21490  12.23571  12.58328
 Alpha virt. eigenvalues --   12.58328  13.08865  13.08865  13.25690  13.54826
 Alpha virt. eigenvalues --   13.54826  13.59496  13.60473  13.62939  13.62939
 Alpha virt. eigenvalues --   13.80969  13.85739  13.85739  13.92843  13.92843
 Alpha virt. eigenvalues --   14.03929  14.32518  14.65030  14.65030  20.56768
 Alpha virt. eigenvalues --   21.96535  21.96535  23.46432  46.94830  46.95992
 Alpha virt. eigenvalues --   46.95992  47.00122  47.22612  47.22612  47.77806
 Alpha virt. eigenvalues --   47.77806  47.94377  54.45471  54.77775  54.77775
          Condensed to atoms (all electrons):
               1          2          3          4
     1  C    4.483334   0.210023   0.210023   0.210023
     2  F    0.210023   9.112609  -0.013549  -0.013549
     3  F    0.210023  -0.013549   9.112609  -0.013549
     4  F    0.210023  -0.013549  -0.013549   9.112609
          Atomic-Atomic Spin Densities.
               1          2          3          4
     1  C    1.273930  -0.111148  -0.111148  -0.111148
     2  F   -0.111148   0.110283   0.010352   0.010352
     3  F   -0.111148   0.010352   0.110283   0.010352
     4  F   -0.111148   0.010352   0.010352   0.110283
 Mulliken charges and spin densities:
               1          2
     1  C    0.886598   0.940485
     2  F   -0.295533   0.019838
     3  F   -0.295533   0.019838
     4  F   -0.295533   0.019838
 Sum of Mulliken charges =  -0.00000   1.00000
 Mulliken charges and spin densities with hydrogens summed into heavy atoms:
               1          2
     1  C    0.886598   0.940485
     2  F   -0.295533   0.019838
     3  F   -0.295533   0.019838
     4  F   -0.295533   0.019838
 Electronic spatial extent (au):  <R**2>=            201.5581
 Charge=             -0.0000 electrons
 Dipole moment (field-independent basis, Debye):
    X=              0.0000    Y=             -0.0000    Z=              0.6429  Tot=              0.6429
 Quadrupole moment (field-independent basis, Debye-Ang):
   XX=            -21.1756   YY=            -21.1756   ZZ=            -19.1226
   XY=             -0.0000   XZ=             -0.0000   YZ=              0.0000
 Traceless Quadrupole moment (field-independent basis, Debye-Ang):
   XX=             -0.6843   YY=             -0.6843   ZZ=              1.3687
   XY=             -0.0000   XZ=             -0.0000   YZ=              0.0000
 Octapole moment (field-independent basis, Debye-Ang**2):
  XXX=              0.0000  YYY=             -1.2470  ZZZ=             -2.2933  XYY=             -0.0000
  XXY=              1.2470  XXZ=             -0.4617  XZZ=              0.0000  YZZ=             -0.0000
  YYZ=             -0.4617  XYZ=              0.0000
 Hexadecapole moment (field-independent basis, Debye-Ang**3):
 XXXX=            -82.5853 YYYY=            -82.5853 ZZZZ=            -18.1132 XXXY=              0.0000
 XXXZ=             -0.0000 YYYX=             -0.0000 YYYZ=             -0.3223 ZZZX=             -0.0000
 ZZZY=              0.0000 XXYY=            -27.5284 XXZZ=            -16.3399 YYZZ=            -16.3399
 XXYZ=              0.3223 YYXZ=             -0.0000 ZZXY=              0.0000
 N-N= 1.238055549422D+02 E-N=-1.050347997354D+03  KE= 3.360196126733D+02
 Symmetry A'   KE= 2.281384430031D+02
 Symmetry A"   KE= 1.078811696702D+02
 Symmetry A'   SP= 1.000000000000D+00
 Symmetry A"   SP=-8.232449698890D-15
                          Isotropic Fermi Contact Couplings
        Atom                 a.u.       MegaHertz       Gauss      10(-4) cm-1
     1  C(13)              0.67930     763.66655     272.49521     254.73174
     2  F(19)              0.05405     227.43228      81.15349      75.86324
     3  F(19)              0.05405     227.43228      81.15349      75.86324
     4  F(19)              0.05405     227.43228      81.15349      75.86324
 --------------------------------------------------------
       Center         ----  Spin Dipole Couplings  ----
                      3XX-RR        3YY-RR        3ZZ-RR
 --------------------------------------------------------
     1   Atom       -0.540167     -0.540167      1.080335
     2   Atom       -0.232669     -0.101604      0.334274
     3   Atom       -0.134371     -0.199903      0.334274
     4   Atom       -0.134371     -0.199903      0.334274
 --------------------------------------------------------
                        XY            XZ            YZ
 --------------------------------------------------------
     1   Atom        0.000000      0.000000     -0.000000
     2   Atom       -0.000000     -0.000000     -0.225187
     3   Atom       -0.056753     -0.195018      0.112594
     4   Atom        0.056753      0.195018      0.112594
 --------------------------------------------------------


 ---------------------------------------------------------------------------------
              Anisotropic Spin Dipole Couplings in Principal Axis System
 ---------------------------------------------------------------------------------

       Atom             a.u.   MegaHertz   Gauss  10(-4) cm-1        Axes

              Baa    -0.5402   -72.485   -25.865   -24.178  0.9738 -0.2276 -0.0000
     1 C(13)  Bbb    -0.5402   -72.485   -25.865   -24.178  0.2276  0.9738  0.0000
              Bcc     1.0803   144.971    51.729    48.357  0.0000 -0.0000  1.0000
 
              Baa    -0.2327  -116.852   -41.696   -38.978  1.0000  0.0000  0.0000
     2 F(19)  Bbb    -0.1970   -98.961   -35.312   -33.010 -0.0000  0.9207  0.3902
              Bcc     0.4297   215.813    77.008    71.988  0.0000 -0.3902  0.9207
 
              Baa    -0.2327  -116.852   -41.696   -38.978  0.5000  0.8660 -0.0000
     3 F(19)  Bbb    -0.1970   -98.961   -35.312   -33.010  0.7974 -0.4604  0.3902
              Bcc     0.4297   215.813    77.008    71.988 -0.3379  0.1951  0.9207
 
              Baa    -0.2327  -116.852   -41.696   -38.978 -0.5000  0.8660 -0.0000
     4 F(19)  Bbb    -0.1970   -98.961   -35.312   -33.010  0.7974  0.4604 -0.3902
              Bcc     0.4297   215.813    77.008    71.988  0.3379  0.1951  0.9207
 

 ---------------------------------------------------------------------------------

 1\1\GINC-GAMBA\SP\ROHF\Gen\C1F3(2)\IRIKURA\29-Sep-2023\0\\# rohf/gen g
 eom=check guess=check\\CF3, ROHF/cc-pVTZ-F12\\0,2\C,0,0.,0.,0.325007\F
 ,0,0.0000001129,1.260054,-0.072224\F,0,1.0912387177,-0.6300270978,-0.0
 72224\F,0,-1.0912388306,-0.6300269022,-0.072224\\Version=ES64L-G16RevB
 .01\State=2-A1\HF=-336.2889337\RMSD=2.285e-09\Dipole=0.,0.,0.252944\Qu
 adrupole=-0.5087827,-0.5087827,1.0175654,0.,0.,0.\PG=C03V [C3(C1),3SGV
 (F1)]\\@


 IN-LAWS ARE LIKE SEEDS. YOU DON'T NEED THEM
 BUT THEY COME WITH THE TOMATO.
 Job cpu time:       0 days  0 hours  0 minutes 46.2 seconds.
 Elapsed time:       0 days  0 hours  0 minutes 14.2 seconds.
 File lengths (MBytes):  RWF=     23 Int=      0 D2E=      0 Chk=      5 Scr=      1
 Normal termination of Gaussian 16 at Fri Sep 29 19:01:16 2023.
