 Entering Gaussian System, Link 0=g16
 AtFile(1): pcseg2.gbs
            -H     0
            S   4   1.00
                  0.754732D+02           0.427821D-02
                  0.113575D+02           0.328672D-01
                  0.260081D+01           0.159578D+00
                  0.735503D+00           0.500000D+00
            S   1   1.00
                  0.231761D+00           1.0000000
            S   1   1.00
                  0.741675D-01           1.0000000
            P   1   1.00
                  0.160000D+01           1.0000000
            P   1   1.00
                  0.450000D+00           1.0000000
            D   1   1.00
                  0.125000D+01           1.0000000
            ****
            -C     0
            S   7   1.00
                  0.731999D+04           0.695369D-03
                  0.109818D+04           0.537138D-02
                  0.250014D+03           0.274734D-01
                  0.707586D+02           0.105078D+00
                  0.228595D+02           0.291262D+00
                  0.803936D+01           0.500000D+00
                  0.289309D+01           0.362224D+00
            S   2   1.00
                  0.521640D+01          -0.957844D-01
                  0.556124D+00           0.500000D+00
            S   1   1.00
                  0.228813D+00           1.0000000
            S   1   1.00
                  0.936338D-01           1.0000000
            P   4   1.00
                  0.339855D+02           0.818395D-02
                  0.772957D+01           0.586921D-01
                  0.224954D+01           0.222514D+00
                  0.767681D+00           0.500000D+00
            P   1   1.00
                  0.263283D+00           1.0000000
            P   1   1.00
                  0.848744D-01           1.0000000
            D   1   1.00
                  0.140000D+01           1.0000000
            D   1   1.00
                  0.450000D+00           1.0000000
            F   1   1.00
                  0.950000D+00           1.0000000
            ****
            -O     0
            S   7   1.00
                  0.135887D+05           0.665492D-03
                  0.203847D+04           0.514222D-02
                  0.464041D+03           0.263472D-01
                  0.131339D+03           0.101500D+00
                  0.425340D+02           0.285877D+00
                  0.150429D+02           0.500000D+00
                  0.546616D+01           0.368211D+00
            S   2   1.00
                  0.100915D+02          -0.100084D+00
                  0.110429D+01           0.500000D+00
            S   1   1.00
                  0.448082D+00           1.0000000
            S   1   1.00
                  0.175325D+00           1.0000000
            P   4   1.00
                  0.608220D+02           0.908253D-02
                  0.140332D+02           0.645878D-01
                  0.418244D+01           0.241502D+00
                  0.142490D+01           0.500000D+00
            P   1   1.00
                  0.478741D+00           1.0000000
            P   1   1.00
                  0.146257D+00           1.0000000
            D   1   1.00
                  0.220000D+01           1.0000000
            D   1   1.00
                  0.650000D+00           1.0000000
            F   1   1.00
                  0.110000D+01           1.0000000
            ****
            -N     0
            S   7   1.00
                  0.101643D+05           0.682757D-03
                  0.152481D+04           0.527488D-02
                  0.347119D+03           0.270037D-01
                  0.982389D+02           0.103673D+00
                  0.317799D+02           0.289575D+00
                  0.112240D+02           0.500000D+00
                  0.406611D+01           0.364621D+00
            S   2   1.00
                  0.747898D+01          -0.975681D-01
                  0.805040D+00           0.500000D+00
            S   1   1.00
                  0.324626D+00           1.0000000
            S   1   1.00
                  0.128132D+00           1.0000000
            P   4   1.00
                  0.482704D+02           0.829547D-02
                  0.110815D+02           0.596223D-01
                  0.326643D+01           0.227889D+00
                  0.111680D+01           0.500000D+00
            P   1   1.00
                  0.382049D+00           1.0000000
            P   1   1.00
                  0.121222D+00           1.0000000
            D   1   1.00
                  0.180000D+01           1.0000000
            D   1   1.00
                  0.550000D+00           1.0000000
            F   1   1.00
                  0.102000D+01           1.0000000
            ****
            -F     0
            S   7   1.00
                  0.174507D+05           0.655972D-03
                  0.261768D+04           0.506944D-02
                  0.595857D+03           0.259899D-01
                  0.168651D+03           0.100353D+00
                  0.546654D+02           0.284095D+00
                  0.193717D+02           0.500000D+00
                  0.706202D+01           0.370721D+00
            S   2   1.00
                  0.131197D+02          -0.101997D+00
                  0.145046D+01           0.500000D+00
            S   1   1.00
                  0.588255D+00           1.0000000
            S   1   1.00
                  0.227960D+00           1.0000000
            P   4   1.00
                  0.779407D+02           0.931135D-02
                  0.180425D+02           0.663964D-01
                  0.542342D+01           0.246386D+00
                  0.184876D+01           0.500000D+00
            P   1   1.00
                  0.617455D+00           1.0000000
            P   1   1.00
                  0.185496D+00           1.0000000
            D   1   1.00
                  0.280000D+01           1.0000000
            D   1   1.00
                  0.800000D+00           1.0000000
            F   1   1.00
                  0.120000D+01           1.0000000
            ****
            -Cl     0
            S   8   1.00
                  0.154272D+06           0.222473D-03
                  0.231232D+05           0.172590D-02
                  0.526257D+04           0.899286D-02
                  0.148995D+04           0.367724D-01
                  0.485417D+03           0.121446D+00
                  0.174634D+03           0.304148D+00
                  0.672393D+02           0.500000D+00
                  0.265780D+02           0.360252D+00
            S   3   1.00
                  0.131826D+03          -0.531330D-01
                  0.400703D+02          -0.233346D+00
                  0.789448D+01           0.500000D+00
            S   2   1.00
                  0.427711D+01           0.500000D+00
                  0.196233D+01           0.370517D+00
            S   1   1.00
                  0.520793D+00           1.0000000
            S   1   1.00
                  0.181633D+00           1.0000000
            P   7   1.00
                  0.124440D+04           0.988206D-03
                  0.295109D+03           0.829674D-02
                  0.947224D+02           0.430906D-01
                  0.352588D+02           0.148443D+00
                  0.144211D+02           0.344744D+00
                  0.610371D+01           0.500000D+00
                  0.258886D+01           0.348278D+00
            P   2   1.00
                  0.109447D+02          -0.196768D-01
                  0.104413D+01           0.500000D+00
            P   1   1.00
                  0.376184D+00           1.0000000
            P   1   1.00
                  0.120613D+00           1.0000000
            D   1   1.00
                  0.231000D+01           1.0000000
            D   1   1.00
                  0.520000D+00           1.0000000
            F   1   1.00
                  0.720000D+00           1.0000000
            ****
            -S     0
            S   8   1.00
                  0.134700D+06           0.226231D-03
                  0.201904D+05           0.175488D-02
                  0.459528D+04           0.914190D-02
                  0.130109D+04           0.373551D-01
                  0.423902D+03           0.123121D+00
                  0.152485D+03           0.306801D+00
                  0.586925D+02           0.500000D+00
                  0.231461D+02           0.354358D+00
            S   3   1.00
                  0.116327D+03          -0.491772D-01
                  0.352841D+02          -0.215962D+00
                  0.677831D+01           0.500000D+00
            S   2   1.00
                  0.360404D+01           0.500000D+00
                  0.164871D+01           0.366278D+00
            S   1   1.00
                  0.421821D+00           1.0000000
            S   1   1.00
                  0.147554D+00           1.0000000
            P   7   1.00
                  0.104863D+04           0.105273D-02
                  0.248717D+03           0.879338D-02
                  0.797887D+02           0.453358D-01
                  0.296023D+02           0.154476D+00
                  0.120627D+02           0.352366D+00
                  0.507628D+01           0.500000D+00
                  0.213375D+01           0.346429D+00
            P   2   1.00
                  0.928958D+01          -0.185932D-01
                  0.837819D+00           0.500000D+00
            P   1   1.00
                  0.301495D+00           1.0000000
            P   1   1.00
                  0.974740D-01           1.0000000
            D   1   1.00
                  0.210000D+01           1.0000000
            D   1   1.00
                  0.480000D+00           1.0000000
            F   1   1.00
                  0.660000D+00           1.0000000
            ****
            -Br     0
            S    10   1.00
                  0.233625D+07           0.532336D-04
                  0.349961D+06           0.413715D-03
                  0.796444D+05           0.217123D-02
                  0.225555D+05           0.910109D-02
                  0.735546D+04           0.323789D-01
                  0.265352D+04           0.988755D-01
                  0.103517D+04           0.248138D+00
                  0.422205D+03           0.474328D+00
                  0.180035D+03           0.500000D+00
                  0.793308D+02           0.187769D+00
            S    4   1.00
                  0.620834D+03          -0.226511D-01
                  0.190829D+03          -0.109497D+00
                  0.312505D+02           0.500000D+00
                  0.135270D+02           0.492812D+00
            S    2   1.00
                  0.216097D+02          -0.165418D+00
                  0.372566D+01           0.500000D+00
            S    1   1.00
                  0.169770D+01           1.0000000
            S    1   1.00
                  0.489332D+00           1.0000000
            S    1   1.00
                  0.175712D+00           1.0000000
            P    8   1.00
                  0.960829D+04           0.478974D-03
                  0.227618D+04           0.417853D-02
                  0.736723D+03           0.229315D-01
                  0.281579D+03           0.892653D-01
                  0.118395D+03           0.255288D+00
                  0.527481D+02           0.479074D+00
                  0.245098D+02           0.500000D+00
                  0.112009D+02           0.200944D+00
            P    4   1.00
                  0.587849D+02          -0.189674D-01
                  0.918962D+01           0.264104D+00
                  0.413895D+01           0.500000D+00
                  0.184225D+01           0.319316D+00
            P    1   1.00
                  0.713862D+00           1.0000000
            P    1   1.00
                  0.274232D+00           1.0000000
            P    1   1.00
                  0.944411D-01           1.0000000
            D    7   1.00
                  0.398470D+03           0.204066D-02
                  0.118967D+03           0.175171D-01
                  0.450197D+02           0.829708D-01
                  0.190320D+02           0.236284D+00
                  0.855686D+01           0.428468D+00
                  0.382950D+01           0.500000D+00
                  0.166291D+01           0.349360D+00
            D    1   1.00
                  0.672953D+00           1.0000000
            D    1   1.00
                  0.252000D+00           1.0000000
            F    1   1.00
                  0.530000D+00           1.0000000
            ****
            -Si     0
            S    8   1.00
                  0.996133D+05           0.235546D-03
                  0.149311D+05           0.182707D-02
                  0.339820D+04           0.951425D-02
                  0.962140D+03           0.388172D-01
                  0.313430D+03           0.127328D+00
                  0.112683D+03           0.313522D+00
                  0.433372D+02           0.500000D+00
                  0.170029D+02           0.340347D+00
            S    3   1.00
                  0.884208D+02          -0.404451D-01
                  0.266756D+02          -0.178059D+00
                  0.479640D+01           0.500000D+00
            S    2   1.00
                  0.239385D+01           0.500000D+00
                  0.108333D+01           0.338016D+00
            S    1   1.00
                  0.252420D+00           1.0000000
            S    1   1.00
                  0.891210D-01           1.0000000
            P    7   1.00
                  0.709901D+03           0.123028D-02
                  0.168426D+03           0.101366D-01
                  0.539946D+02           0.511840D-01
                  0.198646D+02           0.169967D+00
                  0.801369D+01           0.370717D+00
                  0.331870D+01           0.500000D+00
                  0.136112D+01           0.344128D+00
            P    2   1.00
                  0.622158D+01          -0.166609D-01
                  0.503049D+00           0.500000D+00
            P    1   1.00
                  0.179848D+00           1.0000000
            P    1   1.00
                  0.591912D-01           1.0000000
            D    1   1.00
                  0.168000D+01           1.0000000
            D    1   1.00
                  0.380000D+00           1.0000000
            F    1   1.00
                  0.540000D+00           1.0000000
            ****
            -P     0
            S    8   1.00
                  0.116416D+06           0.230715D-03
                  0.174500D+05           0.178960D-02
                  0.397149D+04           0.932116D-02
                  0.112447D+04           0.380591D-01
                  0.366347D+03           0.125148D+00
                  0.131757D+03           0.310022D+00
                  0.506988D+02           0.500000D+00
                  0.199436D+02           0.347528D+00
            S    3   1.00
                  0.101878D+03          -0.446755D-01
                  0.308249D+02          -0.196376D+00
                  0.573688D+01           0.500000D+00
            S    2   1.00
                  0.296868D+01           0.500000D+00
                  0.135315D+01           0.355098D+00
            S    1   1.00
                  0.332196D+00           1.0000000
            S    1   1.00
                  0.116229D+00           1.0000000
            P    7   1.00
                  0.873928D+03           0.112375D-02
                  0.207298D+03           0.933330D-02
                  0.664628D+02           0.477213D-01
                  0.245665D+02           0.160733D+00
                  0.996820D+01           0.359760D+00
                  0.416536D+01           0.500000D+00
                  0.173022D+01           0.346593D+00
            P    2   1.00
                  0.772530D+01          -0.175718D-01
                  0.657252D+00           0.500000D+00
            P    1   1.00
                  0.239903D+00           1.0000000
            P    1   1.00
                  0.800988D-01           1.0000000
            D    1   1.00
                  0.189000D+01           1.0000000
            D    1   1.00
                  0.430000D+00           1.0000000
            F    1   1.00
                  0.600000D+00           1.0000000
            ****
            
 Initial command:
 /usr/local/apps/g16_b01_avx/g16/l1.exe "/wrk/irikura/Gau-22318.inp" -scrdir="/wrk/irikura/"
 Entering Link 1 = /usr/local/apps/g16_b01_avx/g16/l1.exe PID=     22320.
  
 Copyright (c) 1988-2017, Gaussian, Inc.  All Rights Reserved.
  
 This is part of the Gaussian(R) 16 program.  It is based on
 the Gaussian(R) 09 system (copyright 2009, Gaussian, Inc.),
 the Gaussian(R) 03 system (copyright 2003, Gaussian, Inc.),
 the Gaussian(R) 98 system (copyright 1998, Gaussian, Inc.),
 the Gaussian(R) 94 system (copyright 1995, Gaussian, Inc.),
 the Gaussian 92(TM) system (copyright 1992, Gaussian, Inc.),
 the Gaussian 90(TM) system (copyright 1990, Gaussian, Inc.),
 the Gaussian 88(TM) system (copyright 1988, Gaussian, Inc.),
 the Gaussian 86(TM) system (copyright 1986, Carnegie Mellon
 University), and the Gaussian 82(TM) system (copyright 1983,
 Carnegie Mellon University). Gaussian is a federally registered
 trademark of Gaussian, Inc.
  
 This software contains proprietary and confidential information,
 including trade secrets, belonging to Gaussian, Inc.
  
 This software is provided under written license and may be
 used, copied, transmitted, or stored only in accord with that
 written license.
  
 The following legend is applicable only to US Government
 contracts under FAR:
  
                    RESTRICTED RIGHTS LEGEND
  
 Use, reproduction and disclosure by the US Government is
 subject to restrictions as set forth in subparagraphs (a)
 and (c) of the Commercial Computer Software - Restricted
 Rights clause in FAR 52.227-19.
  
 Gaussian, Inc.
 340 Quinnipiac St., Bldg. 40, Wallingford CT 06492
  
  
 ---------------------------------------------------------------
 Warning -- This program may not be used in any manner that
 competes with the business of Gaussian, Inc. or will provide
 assistance to any competitor of Gaussian, Inc.  The licensee
 of this program is prohibited from giving any competitor of
 Gaussian, Inc. access to this program.  By using this program,
 the user acknowledges that Gaussian, Inc. is engaged in the
 business of creating and licensing software in the field of
 computational chemistry and represents and warrants to the
 licensee that it is not a competitor of Gaussian, Inc. and that
 it will not use this program in any manner prohibited above.
 ---------------------------------------------------------------
  

 Cite this work as:
 Gaussian 16, Revision B.01,
 M. J. Frisch, G. W. Trucks, H. B. Schlegel, G. E. Scuseria, 
 M. A. Robb, J. R. Cheeseman, G. Scalmani, V. Barone, 
 G. A. Petersson, H. Nakatsuji, X. Li, M. Caricato, A. V. Marenich, 
 J. Bloino, B. G. Janesko, R. Gomperts, B. Mennucci, H. P. Hratchian, 
 J. V. Ortiz, A. F. Izmaylov, J. L. Sonnenberg, D. Williams-Young, 
 F. Ding, F. Lipparini, F. Egidi, J. Goings, B. Peng, A. Petrone, 
 T. Henderson, D. Ranasinghe, V. G. Zakrzewski, J. Gao, N. Rega, 
 G. Zheng, W. Liang, M. Hada, M. Ehara, K. Toyota, R. Fukuda, 
 J. Hasegawa, M. Ishida, T. Nakajima, Y. Honda, O. Kitao, H. Nakai, 
 T. Vreven, K. Throssell, J. A. Montgomery, Jr., J. E. Peralta, 
 F. Ogliaro, M. J. Bearpark, J. J. Heyd, E. N. Brothers, K. N. Kudin, 
 V. N. Staroverov, T. A. Keith, R. Kobayashi, J. Normand, 
 K. Raghavachari, A. P. Rendell, J. C. Burant, S. S. Iyengar, 
 J. Tomasi, M. Cossi, J. M. Millam, M. Klene, C. Adamo, R. Cammi, 
 J. W. Ochterski, R. L. Martin, K. Morokuma, O. Farkas, 
 J. B. Foresman, and D. J. Fox, Gaussian, Inc., Wallingford CT, 2016.
 
 ******************************************
 Gaussian 16:  ES64L-G16RevB.01 20-Dec-2017
                16-Jun-2022 
 ******************************************
 %mem=1000mw
 %nprocs=12
 Will use up to   12 processors via shared memory.
 --------------------
 # b3lyp/gen opt freq
 --------------------
 1/18=20,19=15,26=3,38=1/1,3;
 2/9=110,12=2,17=6,18=5,40=1/2;
 3/5=7,11=2,25=1,30=1,71=1,74=-5/1,2,3;
 4//1;
 5/5=2,38=5/2;
 6/7=2,8=2,9=2,10=2,28=1/1;
 7//1,2,3,16;
 1/18=20,19=15,26=3/3(2);
 2/9=110/2;
 99//99;
 2/9=110/2;
 3/5=7,6=1,11=2,25=1,30=1,71=1,74=-5,82=7/1,2,3;
 4/5=5,16=3,69=1/1;
 5/5=2,38=5/2;
 7//1,2,3,16;
 1/18=20,19=15,26=3/3(-5);
 2/9=110/2;
 6/7=2,8=2,9=2,10=2,19=2,28=1/1;
 99/9=1/99;
 -------------------------------------
 trichlorofluoromethane, B3LYP/pcseg-2
 -------------------------------------
 Symbolic Z-matrix:
 Charge =  0 Multiplicity = 1
 C                     0.        0.        0.24993 
 F                     0.        0.        1.58709 
 Cl                    0.        1.69793  -0.30948 
 Cl                    1.47045  -0.84896  -0.30948 
 Cl                   -1.47045  -0.84896  -0.30948 
 

 GradGradGradGradGradGradGradGradGradGradGradGradGradGradGradGradGradGrad
 Berny optimization.
 Initialization pass.
                           ----------------------------
                           !    Initial Parameters    !
                           ! (Angstroms and Degrees)  !
 --------------------------                            --------------------------
 ! Name  Definition              Value          Derivative Info.                !
 --------------------------------------------------------------------------------
 ! R1    R(1,2)                  1.3372         estimate D2E/DX2                !
 ! R2    R(1,3)                  1.7877         estimate D2E/DX2                !
 ! R3    R(1,4)                  1.7877         estimate D2E/DX2                !
 ! R4    R(1,5)                  1.7877         estimate D2E/DX2                !
 ! A1    A(2,1,3)              108.2354         estimate D2E/DX2                !
 ! A2    A(2,1,4)              108.2354         estimate D2E/DX2                !
 ! A3    A(2,1,5)              108.2354         estimate D2E/DX2                !
 ! A4    A(3,1,4)              110.6783         estimate D2E/DX2                !
 ! A5    A(3,1,5)              110.6783         estimate D2E/DX2                !
 ! A6    A(4,1,5)              110.6783         estimate D2E/DX2                !
 ! D1    D(2,1,4,3)           -118.4575         estimate D2E/DX2                !
 ! D2    D(2,1,5,3)            118.4575         estimate D2E/DX2                !
 ! D3    D(2,1,5,4)           -118.4575         estimate D2E/DX2                !
 ! D4    D(3,1,5,4)            123.085          estimate D2E/DX2                !
 --------------------------------------------------------------------------------
 Trust Radius=3.00D-01 FncErr=1.00D-07 GrdErr=1.00D-06 EigMax=2.50D+02 EigMin=1.00D-04
 Number of steps in this run=     24 maximum allowed number of steps=    100.
 GradGradGradGradGradGradGradGradGradGradGradGradGradGradGradGradGradGrad

                          Input orientation:                          
 ---------------------------------------------------------------------
 Center     Atomic      Atomic             Coordinates (Angstroms)
 Number     Number       Type             X           Y           Z
 ---------------------------------------------------------------------
      1          6           0        0.000000    0.000000    0.249933
      2          9           0        0.000000    0.000000    1.587090
      3         17           0        0.000000    1.697927   -0.309479
      4         17           0        1.470448   -0.848964   -0.309479
      5         17           0       -1.470448   -0.848964   -0.309479
 ---------------------------------------------------------------------
                    Distance matrix (angstroms):
                    1          2          3          4          5
     1  C    0.000000
     2  F    1.337157   0.000000
     3  Cl   1.787707   2.545571   0.000000
     4  Cl   1.787708   2.545571   2.940896   0.000000
     5  Cl   1.787708   2.545571   2.940896   2.940896   0.000000
 Stoichiometry    CCl3F
 Framework group  C3V[C3(CF),3SGV(Cl)]
 Deg. of freedom     3
 Full point group                 C3V     NOp   6
 Largest Abelian subgroup         CS      NOp   2
 Largest concise Abelian subgroup CS      NOp   2
                         Standard orientation:                         
 ---------------------------------------------------------------------
 Center     Atomic      Atomic             Coordinates (Angstroms)
 Number     Number       Type             X           Y           Z
 ---------------------------------------------------------------------
      1          6           0       -0.000000    0.000000    0.249933
      2          9           0       -0.000000    0.000000    1.587090
      3         17           0       -0.000000    1.697927   -0.309479
      4         17           0        1.470448   -0.848964   -0.309479
      5         17           0       -1.470448   -0.848964   -0.309479
 ---------------------------------------------------------------------
 Rotational constants (GHZ):           2.4080738           2.4080738           1.6709998
 General basis read from cards:  (5D, 7F)
 There are   114 symmetry adapted cartesian basis functions of A'  symmetry.
 There are    73 symmetry adapted cartesian basis functions of A"  symmetry.
 There are    97 symmetry adapted basis functions of A'  symmetry.
 There are    65 symmetry adapted basis functions of A"  symmetry.
   162 basis functions,   312 primitive gaussians,   187 cartesian basis functions
    33 alpha electrons       33 beta electrons
       nuclear repulsion energy       363.3724369548 Hartrees.
 NAtoms=    5 NActive=    5 NUniq=    3 SFac= 2.78D+00 NAtFMM=   60 NAOKFM=F Big=F
 Integral buffers will be    131072 words long.
 Raffenetti 2 integral format.
 Two-electron integral symmetry is turned on.
 One-electron integrals computed using PRISM.
 NBasis=   162 RedAO= T EigKep=  4.18D-03  NBF=    97    65
 NBsUse=   162 1.00D-06 EigRej= -1.00D+00 NBFU=    97    65
 ExpMin= 8.49D-02 ExpMax= 1.54D+05 ExpMxC= 1.49D+03 IAcc=3 IRadAn=         5 AccDes= 0.00D+00
 Harris functional with IExCor=  402 and IRadAn=       5 diagonalized for initial guess.
 HarFok:  IExCor=  402 AccDes= 0.00D+00 IRadAn=         5 IDoV= 1 UseB2=F ITyADJ=14
 ICtDFT=  3500011 ScaDFX=  1.000000  1.000000  1.000000  1.000000
 FoFCou: FMM=F IPFlag=           0 FMFlag=      100000 FMFlg1=           0
         NFxFlg=           0 DoJE=T BraDBF=F KetDBF=T FulRan=T
         wScrn=  0.000000 ICntrl=       500 IOpCl=  0 I1Cent=   200000004 NGrid=           0
         NMat0=    1 NMatS0=      1 NMatT0=    0 NMatD0=    1 NMtDS0=    0 NMtDT0=    0
 Petite list used in FoFCou.
 Initial guess orbital symmetries:
       Occupied  (A1) (E) (E) (A1) (A1) (A1) (E) (E) (A1) (E) (E)
                 (A1) (E) (E) (E) (E) (A2) (A1) (A1) (E) (E) (A1)
                 (E) (E) (A1) (E) (E) (A1) (E) (E) (E) (E) (A2)
       Virtual   (A1) (E) (E) (A1) (A1) (E) (E) (A1) (E) (E) (E)
                 (E) (A1) (E) (E) (A2) (A1) (E) (E) (A1) (A1) (E)
                 (E) (A2) (E) (E) (E) (E) (A2) (E) (E) (A1) (E)
                 (E) (A1) (A1) (E) (E) (A1) (E) (E) (E) (E) (A1)
                 (E) (E) (A1) (A1) (E) (E) (E) (E) (A2) (E) (E)
                 (A1) (E) (E) (A2) (E) (E) (E) (E) (A2) (A1) (E)
                 (E) (E) (E) (E) (E) (A2) (A1) (A1) (A1) (E) (E)
                 (A1) (E) (E) (E) (E) (A1) (E) (E) (A2) (A1) (E)
                 (E) (E) (E) (A1) (A2) (E) (E) (E) (E) (A1) (A1)
                 (E) (E) (E) (E) (A1) (A2) (A1) (E) (E) (A1) (A2)
                 (E) (E) (E) (E) (E) (E) (A1) (A1) (E) (E) (A1)
                 (E) (E) (E) (E) (A1) (E) (E) (A1)
 The electronic state of the initial guess is 1-A1.
 Keep R1 ints in memory in symmetry-blocked form, NReq=130870253.
 Requested convergence on RMS density matrix=1.00D-08 within 128 cycles.
 Requested convergence on MAX density matrix=1.00D-06.
 Requested convergence on             energy=1.00D-06.
 No special actions if energy rises.
 Integral accuracy reduced to 1.0D-05 until final iterations.
 Initial convergence to 1.0D-05 achieved.  Increase integral accuracy.
 SCF Done:  E(RB3LYP) =  -1518.69516101     A.U. after   12 cycles
            NFock= 12  Conv=0.50D-08     -V/T= 2.0011

 **********************************************************************

            Population analysis using the SCF Density.

 **********************************************************************

 Orbital symmetries:
       Occupied  (E) (E) (A1) (A1) (A1) (E) (E) (A1) (E) (E) (A1)
                 (E) (E) (A1) (A2) (E) (E) (A1) (A1) (E) (E) (A1)
                 (A1) (E) (E) (E) (E) (A1) (E) (E) (E) (E) (A2)
       Virtual   (A1) (E) (E) (A1) (A1) (E) (E) (A1) (E) (E) (E)
                 (E) (A1) (E) (E) (A2) (A1) (E) (E) (A1) (A1) (E)
                 (E) (A2) (E) (E) (E) (E) (A2) (E) (E) (A1) (E)
                 (E) (A1) (A1) (E) (E) (A1) (E) (E) (E) (E) (A1)
                 (E) (E) (A1) (A1) (E) (E) (E) (E) (A2) (E) (E)
                 (A1) (E) (E) (E) (E) (A2) (A2) (E) (E) (A1) (E)
                 (E) (E) (E) (E) (E) (A2) (A1) (A1) (A1) (E) (E)
                 (A1) (E) (E) (E) (E) (A1) (E) (E) (A2) (A1) (E)
                 (E) (E) (E) (A1) (E) (E) (A2) (E) (E) (A1) (E)
                 (E) (A1) (E) (E) (A1) (A2) (A1) (E) (E) (A1) (A2)
                 (E) (E) (E) (E) (E) (E) (A1) (A1) (E) (E) (A1)
                 (E) (E) (E) (E) (A1) (E) (E) (A1)
 The electronic state is 1-A1.
 Alpha  occ. eigenvalues -- -101.55133-101.55133-101.55133 -24.74567 -10.45228
 Alpha  occ. eigenvalues --   -9.49663  -9.49663  -9.49663  -7.25894  -7.25894
 Alpha  occ. eigenvalues --   -7.25894  -7.24896  -7.24896  -7.24896  -7.24887
 Alpha  occ. eigenvalues --   -7.24887  -7.24887  -1.29797  -0.94755  -0.86503
 Alpha  occ. eigenvalues --   -0.86503  -0.68046  -0.56806  -0.55664  -0.55664
 Alpha  occ. eigenvalues --   -0.44201  -0.44201  -0.38176  -0.37153  -0.37153
 Alpha  occ. eigenvalues --   -0.34341  -0.34341  -0.32984
 Alpha virt. eigenvalues --   -0.06654  -0.00909  -0.00909   0.06430   0.10966
 Alpha virt. eigenvalues --    0.15190   0.15190   0.21182   0.25908   0.25908
 Alpha virt. eigenvalues --    0.31069   0.31069   0.31381   0.33042   0.33042
 Alpha virt. eigenvalues --    0.33569   0.33998   0.39204   0.39204   0.40993
 Alpha virt. eigenvalues --    0.49831   0.51650   0.51650   0.53493   0.54139
 Alpha virt. eigenvalues --    0.54139   0.58456   0.58456   0.63037   0.64427
 Alpha virt. eigenvalues --    0.64427   0.69902   0.72995   0.72995   0.76432
 Alpha virt. eigenvalues --    0.90124   0.97214   0.97214   1.05298   1.09872
 Alpha virt. eigenvalues --    1.09872   1.16669   1.16669   1.17648   1.65007
 Alpha virt. eigenvalues --    1.65007   1.65568   1.83015   1.87245   1.87245
 Alpha virt. eigenvalues --    1.97998   1.97998   1.98081   2.05711   2.05711
 Alpha virt. eigenvalues --    2.07982   2.08380   2.08380   2.08815   2.08815
 Alpha virt. eigenvalues --    2.08893   2.09217   2.09698   2.09698   2.12022
 Alpha virt. eigenvalues --    2.12355   2.12355   2.17704   2.17704   2.18577
 Alpha virt. eigenvalues --    2.18577   2.19279   2.19937   2.24113   2.37901
 Alpha virt. eigenvalues --    2.41103   2.41103   2.42312   2.54920   2.54920
 Alpha virt. eigenvalues --    2.62713   2.62713   2.63288   2.94533   2.94533
 Alpha virt. eigenvalues --    3.31345   3.33167   3.33861   3.33861   3.45644
 Alpha virt. eigenvalues --    3.45644   3.48005   3.48367   3.48367   3.48782
 Alpha virt. eigenvalues --    3.52667   3.52667   3.58107   3.75227   3.75227
 Alpha virt. eigenvalues --    3.75252   3.92680   3.92680   4.00940   4.04381
 Alpha virt. eigenvalues --    4.25480   4.26500   4.26500   4.34130   4.35865
 Alpha virt. eigenvalues --    4.45196   4.45196   4.79034   4.79034   4.88921
 Alpha virt. eigenvalues --    4.88921   5.22072   5.42121   5.46320   5.46320
 Alpha virt. eigenvalues --    5.80056   7.51056   7.51056   8.00138   8.00138
 Alpha virt. eigenvalues --    8.10595  32.75519  32.75519  32.80841
          Condensed to atoms (all electrons):
               1          2          3          4          5
     1  C    4.311731   0.270882   0.362634   0.362634   0.362634
     2  F    0.270882   9.116338  -0.063247  -0.063247  -0.063247
     3  Cl   0.362634  -0.063247  16.906188  -0.080788  -0.080788
     4  Cl   0.362634  -0.063247  -0.080788  16.906188  -0.080788
     5  Cl   0.362634  -0.063247  -0.080788  -0.080788  16.906188
 Mulliken charges:
               1
     1  C    0.329483
     2  F   -0.197481
     3  Cl  -0.044001
     4  Cl  -0.044001
     5  Cl  -0.044001
 Sum of Mulliken charges =  -0.00000
 Mulliken charges with hydrogens summed into heavy atoms:
               1
     1  C    0.329483
     2  F   -0.197481
     3  Cl  -0.044001
     4  Cl  -0.044001
     5  Cl  -0.044001
 Electronic spatial extent (au):  <R**2>=            731.7914
 Charge=             -0.0000 electrons
 Dipole moment (field-independent basis, Debye):
    X=              0.0000    Y=             -0.0000    Z=             -0.3662  Tot=              0.3662
 Quadrupole moment (field-independent basis, Debye-Ang):
   XX=            -47.2802   YY=            -47.2802   ZZ=            -49.3556
   XY=             -0.0000   XZ=              0.0000   YZ=              0.0000
 Traceless Quadrupole moment (field-independent basis, Debye-Ang):
   XX=              0.6918   YY=              0.6918   ZZ=             -1.3836
   XY=             -0.0000   XZ=              0.0000   YZ=              0.0000
 Octapole moment (field-independent basis, Debye-Ang**2):
  XXX=              0.0000  YYY=              4.4235  ZZZ=              6.3545  XYY=              0.0000
  XXY=             -4.4235  XXZ=              0.4290  XZZ=              0.0000  YZZ=              0.0000
  YYZ=              0.4290  XYZ=             -0.0000
 Hexadecapole moment (field-independent basis, Debye-Ang**3):
 XXXX=           -356.9678 YYYY=           -356.9678 ZZZZ=           -151.3095 XXXY=              0.0000
 XXXZ=             -0.0000 YYYX=              0.0000 YYYZ=             -4.7317 ZZZX=             -0.0000
 ZZZY=             -0.0000 XXYY=           -118.9893 XXZZ=            -86.5425 YYZZ=            -86.5425
 XXYZ=              4.7317 YYXZ=             -0.0000 ZZXY=              0.0000
 N-N= 3.633724369548D+02 E-N=-4.337532553360D+03  KE= 1.517059703391D+03
 Symmetry A'   KE= 1.002402533291D+03
 Symmetry A"   KE= 5.146571700996D+02
 Calling FoFJK, ICntrl=      2127 FMM=F ISym2X=1 I1Cent= 0 IOpClX= 0 NMat=1 NMatS=1 NMatT=0.
 ***** Axes restored to original set *****
 -------------------------------------------------------------------
 Center     Atomic                   Forces (Hartrees/Bohr)
 Number     Number              X              Y              Z
 -------------------------------------------------------------------
      1        6           0.000000000   -0.000000000   -0.002126309
      2        9          -0.000000000   -0.000000000    0.000956250
      3       17          -0.000000000   -0.003437676    0.000390020
      4       17          -0.002977115    0.001718838    0.000390020
      5       17           0.002977115    0.001718838    0.000390020
 -------------------------------------------------------------------
 Cartesian Forces:  Max     0.003437676 RMS     0.001660217

 GradGradGradGradGradGradGradGradGradGradGradGradGradGradGradGradGradGrad
 Berny optimization.
 FormGI is forming the generalized inverse of G from B-inverse, IUseBI=4.
 Internal  Forces:  Max     0.003387078 RMS     0.001663396
 Search for a local minimum.
 Step number   1 out of a maximum of   24
 All quantities printed in internal units (Hartrees-Bohrs-Radians)
 Mixed Optimization -- RFO/linear search
 Second derivative matrix not updated -- first step.
 The second derivative matrix:
                          R1        R2        R3        R4        A1
           R1           0.57847
           R2           0.00000   0.27109
           R3           0.00000   0.00000   0.27109
           R4           0.00000   0.00000   0.00000   0.27109
           A1           0.00000   0.00000   0.00000   0.00000   0.25000
           A2           0.00000   0.00000   0.00000   0.00000   0.00000
           A3           0.00000   0.00000   0.00000   0.00000   0.00000
           A4           0.00000   0.00000   0.00000   0.00000   0.00000
           A5           0.00000   0.00000   0.00000   0.00000   0.00000
           A6           0.00000   0.00000   0.00000   0.00000   0.00000
           D1           0.00000   0.00000   0.00000   0.00000   0.00000
           D2           0.00000   0.00000   0.00000   0.00000   0.00000
           D3           0.00000   0.00000   0.00000   0.00000   0.00000
           D4           0.00000   0.00000   0.00000   0.00000   0.00000
                          A2        A3        A4        A5        A6
           A2           0.25000
           A3           0.00000   0.25000
           A4           0.00000   0.00000   0.25000
           A5           0.00000   0.00000   0.00000   0.25000
           A6           0.00000   0.00000   0.00000   0.00000   0.25000
           D1           0.00000   0.00000   0.00000   0.00000   0.00000
           D2           0.00000   0.00000   0.00000   0.00000   0.00000
           D3           0.00000   0.00000   0.00000   0.00000   0.00000
           D4           0.00000   0.00000   0.00000   0.00000   0.00000
                          D1        D2        D3        D4
           D1           0.00230
           D2           0.00000   0.00230
           D3           0.00000   0.00000   0.00230
           D4           0.00000   0.00000   0.00000   0.00230
 ITU=  0
     Eigenvalues ---    0.07653   0.08690   0.13807   0.25000   0.25000
     Eigenvalues ---    0.27109   0.27109   0.27109   0.57847
 RFO step:  Lambda=-1.63456718D-04 EMin= 7.65348737D-02
 Linear search not attempted -- first point.
 Iteration  1 RMS(Cart)=  0.00871525 RMS(Int)=  0.00002912
 Iteration  2 RMS(Cart)=  0.00002039 RMS(Int)=  0.00001930
 Iteration  3 RMS(Cart)=  0.00000000 RMS(Int)=  0.00001930
 ClnCor:  largest displacement from symmetrization is 7.70D-05 for atom     5.
 Variable       Old X    -DE/DX   Delta X   Delta X   Delta X     New X
                                 (Linear)    (Quad)   (Total)
    R1        2.52686   0.00096   0.00000   0.00165   0.00165   2.52851
    R2        3.37828  -0.00339   0.00000  -0.01249  -0.01249   3.36579
    R3        3.37828  -0.00339   0.00000  -0.01249  -0.01249   3.36579
    R4        3.37828  -0.00339   0.00000  -0.01249  -0.01249   3.36579
    A1        1.88906   0.00025   0.00000   0.00486   0.00489   1.89396
    A2        1.88906   0.00040   0.00000   0.00490   0.00489   1.89396
    A3        1.88906   0.00078   0.00000   0.00493   0.00489   1.89396
    A4        1.93170  -0.00007   0.00000  -0.00462  -0.00469   1.92701
    A5        1.93170  -0.00061   0.00000  -0.00469  -0.00469   1.92701
    A6        1.93170  -0.00068   0.00000  -0.00469  -0.00469   1.92701
    D1       -2.06747  -0.00050   0.00000  -0.00621  -0.00620  -2.07367
    D2        2.06747   0.00043   0.00000   0.00619   0.00620   2.07367
    D3       -2.06747  -0.00056   0.00000  -0.00623  -0.00620  -2.07367
    D4        2.14824  -0.00099   0.00000  -0.01242  -0.01239   2.13585
         Item               Value     Threshold  Converged?
 Maximum Force            0.003387     0.000450     NO 
 RMS     Force            0.001663     0.000300     NO 
 Maximum Displacement     0.017057     0.001800     NO 
 RMS     Displacement     0.008714     0.001200     NO 
 Predicted change in Energy=-8.165445D-05
 GradGradGradGradGradGradGradGradGradGradGradGradGradGradGradGradGradGrad

                          Input orientation:                          
 ---------------------------------------------------------------------
 Center     Atomic      Atomic             Coordinates (Angstroms)
 Number     Number       Type             X           Y           Z
 ---------------------------------------------------------------------
      1          6           0       -0.000000   -0.000000    0.253491
      2          9           0       -0.000000   -0.000000    1.591522
      3         17           0        0.000000    1.688901   -0.312125
      4         17           0        1.462631   -0.844451   -0.312125
      5         17           0       -1.462631   -0.844451   -0.312125
 ---------------------------------------------------------------------
                    Distance matrix (angstroms):
                    1          2          3          4          5
     1  C    0.000000
     2  F    1.338032   0.000000
     3  Cl   1.781097   2.544849   0.000000
     4  Cl   1.781097   2.544849   2.925263   0.000000
     5  Cl   1.781097   2.544849   2.925263   2.925263   0.000000
 Stoichiometry    CCl3F
 Framework group  C3V[C3(CF),3SGV(Cl)]
 Deg. of freedom     3
 Full point group                 C3V     NOp   6
 Largest Abelian subgroup         CS      NOp   2
 Largest concise Abelian subgroup CS      NOp   2
                         Standard orientation:                         
 ---------------------------------------------------------------------
 Center     Atomic      Atomic             Coordinates (Angstroms)
 Number     Number       Type             X           Y           Z
 ---------------------------------------------------------------------
      1          6           0        0.000000    0.000000    0.254608
      2          9           0        0.000000    0.000000    1.592639
      3         17           0       -0.000000    1.688901   -0.311008
      4         17           0        1.462631   -0.844451   -0.311008
      5         17           0       -1.462631   -0.844451   -0.311008
 ---------------------------------------------------------------------
 Rotational constants (GHZ):           2.4212312           2.4212312           1.6889084
 Basis read from rwf:  (5D, 7F)
 There are   114 symmetry adapted cartesian basis functions of A'  symmetry.
 There are    73 symmetry adapted cartesian basis functions of A"  symmetry.
 There are    97 symmetry adapted basis functions of A'  symmetry.
 There are    65 symmetry adapted basis functions of A"  symmetry.
   162 basis functions,   312 primitive gaussians,   187 cartesian basis functions
    33 alpha electrons       33 beta electrons
       nuclear repulsion energy       364.5554403504 Hartrees.
 NAtoms=    5 NActive=    5 NUniq=    3 SFac= 2.78D+00 NAtFMM=   60 NAOKFM=F Big=F
 Integral buffers will be    131072 words long.
 Raffenetti 2 integral format.
 Two-electron integral symmetry is turned on.
 One-electron integrals computed using PRISM.
 NBasis=   162 RedAO= T EigKep=  4.17D-03  NBF=    97    65
 NBsUse=   162 1.00D-06 EigRej= -1.00D+00 NBFU=    97    65
 Initial guess from the checkpoint file:  "/wrk/irikura/Gau-22320.chk"
 B after Tr=     0.000000    0.000000    0.000000
         Rot=    1.000000    0.000000    0.000000    0.000000 Ang=   0.00 deg.
 Initial guess orbital symmetries:
       Occupied  (E) (E) (A1) (A1) (A1) (E) (E) (A1) (E) (E) (A1)
                 (E) (E) (A1) (A2) (E) (E) (A1) (A1) (E) (E) (A1)
                 (A1) (E) (E) (E) (E) (A1) (E) (E) (E) (E) (A2)
       Virtual   (A1) (E) (E) (A1) (A1) (E) (E) (A1) (E) (E) (E)
                 (E) (A1) (E) (E) (A2) (A1) (E) (E) (A1) (A1) (E)
                 (E) (A2) (E) (E) (E) (E) (A2) (E) (E) (A1) (E)
                 (E) (A1) (A1) (E) (E) (A1) (E) (E) (E) (E) (A1)
                 (E) (E) (A1) (A1) (E) (E) (E) (E) (A2) (E) (E)
                 (A1) (E) (E) (E) (E) (A2) (A2) (E) (E) (A1) (E)
                 (E) (E) (E) (E) (E) (A2) (A1) (A1) (A1) (E) (E)
                 (A1) (E) (E) (E) (E) (A1) (E) (E) (A2) (A1) (E)
                 (E) (E) (E) (A1) (E) (E) (A2) (E) (E) (A1) (E)
                 (E) (A1) (E) (E) (A1) (A2) (A1) (E) (E) (A1) (A2)
                 (E) (E) (E) (E) (E) (E) (A1) (A1) (E) (E) (A1)
                 (E) (E) (E) (E) (A1) (E) (E) (A1)
 Keep R1 ints in memory in symmetry-blocked form, NReq=130870253.
 Requested convergence on RMS density matrix=1.00D-08 within 128 cycles.
 Requested convergence on MAX density matrix=1.00D-06.
 Requested convergence on             energy=1.00D-06.
 No special actions if energy rises.
 SCF Done:  E(RB3LYP) =  -1518.69523983     A.U. after    8 cycles
            NFock=  8  Conv=0.64D-08     -V/T= 2.0011
 Calling FoFJK, ICntrl=      2127 FMM=F ISym2X=1 I1Cent= 0 IOpClX= 0 NMat=1 NMatS=1 NMatT=0.
 ***** Axes restored to original set *****
 -------------------------------------------------------------------
 Center     Atomic                   Forces (Hartrees/Bohr)
 Number     Number              X              Y              Z
 -------------------------------------------------------------------
      1        6           0.000000000   -0.000000000   -0.002109775
      2        9          -0.000000000    0.000000000    0.000833744
      3       17          -0.000000000   -0.000126122    0.000425344
      4       17          -0.000109225    0.000063061    0.000425344
      5       17           0.000109225    0.000063061    0.000425344
 -------------------------------------------------------------------
 Cartesian Forces:  Max     0.002109775 RMS     0.000618425

 GradGradGradGradGradGradGradGradGradGradGradGradGradGradGradGradGradGrad
 Berny optimization.
 Using GEDIIS/GDIIS optimizer.
 FormGI is forming the generalized inverse of G from B-inverse, IUseBI=4.
 Internal  Forces:  Max     0.000833744 RMS     0.000357925
 Search for a local minimum.
 Step number   2 out of a maximum of   24
 All quantities printed in internal units (Hartrees-Bohrs-Radians)
 Mixed Optimization -- En-DIIS/RFO-DIIS
 Update second derivatives using D2CorX and points    1    2
 DE= -7.88D-05 DEPred=-8.17D-05 R= 9.65D-01
 TightC=F SS=  1.41D+00  RLast= 2.96D-02 DXNew= 5.0454D-01 8.8867D-02
 Trust test= 9.65D-01 RLast= 2.96D-02 DXMaxT set to 3.00D-01
 The second derivative matrix:
                          R1        R2        R3        R4        A1
           R1           0.57297
           R2           0.01754   0.25853
           R3           0.01754  -0.01256   0.25853
           R4           0.01754  -0.01256  -0.01256   0.25853
           A1          -0.00688   0.01833   0.01833   0.01833   0.24170
           A2          -0.00672   0.01429   0.01429   0.01429  -0.00781
           A3          -0.00630   0.00354   0.00354   0.00354  -0.00650
           A4           0.00677  -0.02215  -0.02215  -0.02215   0.00851
           A5           0.00619  -0.00735  -0.00735  -0.00735   0.00671
           A6           0.00611  -0.00521  -0.00521  -0.00521   0.00645
           D1          -0.00046   0.01370   0.01370   0.01370  -0.00160
           D2           0.00038  -0.01163  -0.01163  -0.01163   0.00134
           D3          -0.00053   0.01530   0.01530   0.01530  -0.00179
           D4          -0.00091   0.02693   0.02693   0.02693  -0.00313
                          A2        A3        A4        A5        A6
           A2           0.24297
           A3          -0.00497   0.24910
           A4           0.00836   0.00797   0.24167
           A5           0.00552   0.00236  -0.00778   0.24657
           A6           0.00511   0.00155  -0.00770  -0.00280   0.24791
           D1          -0.00258  -0.00519   0.00041   0.00401   0.00453
           D2           0.00218   0.00441  -0.00034  -0.00340  -0.00385
           D3          -0.00289  -0.00580   0.00047   0.00448   0.00506
           D4          -0.00507  -0.01021   0.00081   0.00789   0.00891
                          D1        D2        D3        D4
           D1           0.00570
           D2          -0.00290   0.00477
           D3           0.00379  -0.00323   0.00653
           D4           0.00669  -0.00570   0.00745   0.01545
 ITU=  1  0
 Use linear search instead of GDIIS.
     Eigenvalues ---    0.08111   0.09794   0.13745   0.22777   0.25000
     Eigenvalues ---    0.26239   0.27109   0.27109   0.57595
 RFO step:  Lambda=-9.88199416D-06 EMin= 8.11088576D-02
 Quartic linear search produced a step of -0.04053.
 Iteration  1 RMS(Cart)=  0.00193624 RMS(Int)=  0.00000507
 Iteration  2 RMS(Cart)=  0.00000448 RMS(Int)=  0.00000273
 Iteration  3 RMS(Cart)=  0.00000000 RMS(Int)=  0.00000273
 ClnCor:  largest displacement from symmetrization is 5.21D-05 for atom     5.
 Variable       Old X    -DE/DX   Delta X   Delta X   Delta X     New X
                                 (Linear)    (Quad)   (Total)
    R1        2.52851   0.00083  -0.00007   0.00155   0.00148   2.53000
    R2        3.36579  -0.00025   0.00051  -0.00216  -0.00165   3.36413
    R3        3.36579  -0.00025   0.00051  -0.00216  -0.00165   3.36413
    R4        3.36579  -0.00025   0.00051  -0.00216  -0.00165   3.36413
    A1        1.89396  -0.00013  -0.00020  -0.00188  -0.00208   1.89187
    A2        1.89396  -0.00021  -0.00020  -0.00189  -0.00208   1.89187
    A3        1.89396  -0.00040  -0.00020  -0.00191  -0.00208   1.89187
    A4        1.92701   0.00004   0.00019   0.00180   0.00200   1.92901
    A5        1.92701   0.00032   0.00019   0.00184   0.00200   1.92901
    A6        1.92701   0.00036   0.00019   0.00184   0.00200   1.92901
    D1       -2.07367   0.00026   0.00025   0.00238   0.00263  -2.07104
    D2        2.07367  -0.00022  -0.00025  -0.00237  -0.00263   2.07104
    D3       -2.07367   0.00029   0.00025   0.00239   0.00263  -2.07104
    D4        2.13585   0.00051   0.00050   0.00476   0.00527   2.14111
         Item               Value     Threshold  Converged?
 Maximum Force            0.000834     0.000450     NO 
 RMS     Force            0.000358     0.000300     NO 
 Maximum Displacement     0.004616     0.001800     NO 
 RMS     Displacement     0.001929     0.001200     NO 
 Predicted change in Energy=-5.108002D-06
 GradGradGradGradGradGradGradGradGradGradGradGradGradGradGradGradGradGrad

                          Input orientation:                          
 ---------------------------------------------------------------------
 Center     Atomic      Atomic             Coordinates (Angstroms)
 Number     Number       Type             X           Y           Z
 ---------------------------------------------------------------------
      1          6           0       -0.000000   -0.000000    0.251048
      2          9           0       -0.000000   -0.000000    1.589864
      3         17           0        0.000000    1.689246   -0.310769
      4         17           0        1.462930   -0.844623   -0.310769
      5         17           0       -1.462930   -0.844623   -0.310769
 ---------------------------------------------------------------------
                    Distance matrix (angstroms):
                    1          2          3          4          5
     1  C    0.000000
     2  F    1.338816   0.000000
     3  Cl   1.780222   2.542825   0.000000
     4  Cl   1.780222   2.542825   2.925860   0.000000
     5  Cl   1.780222   2.542825   2.925860   2.925860   0.000000
 Stoichiometry    CCl3F
 Framework group  C3V[C3(CF),3SGV(Cl)]
 Deg. of freedom     3
 Full point group                 C3V     NOp   6
 Largest Abelian subgroup         CS      NOp   2
 Largest concise Abelian subgroup CS      NOp   2
                         Standard orientation:                         
 ---------------------------------------------------------------------
 Center     Atomic      Atomic             Coordinates (Angstroms)
 Number     Number       Type             X           Y           Z
 ---------------------------------------------------------------------
      1          6           0        0.000000    0.000000    0.251566
      2          9           0        0.000000    0.000000    1.590382
      3         17           0        0.000000    1.689246   -0.310252
      4         17           0        1.462930   -0.844623   -0.310252
      5         17           0       -1.462930   -0.844623   -0.310252
 ---------------------------------------------------------------------
 Rotational constants (GHZ):           2.4228932           2.4228932           1.6882189
 Basis read from rwf:  (5D, 7F)
 There are   114 symmetry adapted cartesian basis functions of A'  symmetry.
 There are    73 symmetry adapted cartesian basis functions of A"  symmetry.
 There are    97 symmetry adapted basis functions of A'  symmetry.
 There are    65 symmetry adapted basis functions of A"  symmetry.
   162 basis functions,   312 primitive gaussians,   187 cartesian basis functions
    33 alpha electrons       33 beta electrons
       nuclear repulsion energy       364.6316010671 Hartrees.
 NAtoms=    5 NActive=    5 NUniq=    3 SFac= 2.78D+00 NAtFMM=   60 NAOKFM=F Big=F
 Integral buffers will be    131072 words long.
 Raffenetti 2 integral format.
 Two-electron integral symmetry is turned on.
 One-electron integrals computed using PRISM.
 NBasis=   162 RedAO= T EigKep=  4.18D-03  NBF=    97    65
 NBsUse=   162 1.00D-06 EigRej= -1.00D+00 NBFU=    97    65
 Initial guess from the checkpoint file:  "/wrk/irikura/Gau-22320.chk"
 B after Tr=     0.000000    0.000000   -0.000000
         Rot=    1.000000   -0.000000    0.000000    0.000000 Ang=   0.00 deg.
 Initial guess orbital symmetries:
       Occupied  (E) (E) (A1) (A1) (A1) (E) (E) (A1) (E) (E) (A1)
                 (E) (E) (A1) (A2) (E) (E) (A1) (A1) (E) (E) (A1)
                 (A1) (E) (E) (E) (E) (A1) (E) (E) (E) (E) (A2)
       Virtual   (A1) (E) (E) (A1) (A1) (E) (E) (A1) (E) (E) (E)
                 (E) (A1) (E) (E) (A2) (A1) (E) (E) (A1) (A1) (E)
                 (E) (A2) (E) (E) (E) (E) (A2) (E) (E) (A1) (E)
                 (E) (A1) (A1) (E) (E) (A1) (E) (E) (E) (E) (A1)
                 (E) (E) (A1) (A1) (E) (E) (E) (E) (A2) (E) (E)
                 (A1) (E) (E) (E) (E) (A2) (A2) (E) (E) (A1) (E)
                 (E) (E) (E) (E) (E) (A2) (A1) (A1) (A1) (E) (E)
                 (A1) (E) (E) (E) (E) (A1) (E) (E) (A2) (A1) (E)
                 (E) (E) (E) (A1) (E) (E) (A2) (E) (E) (A1) (A1)
                 (E) (E) (E) (E) (A1) (A2) (A1) (E) (E) (A1) (A2)
                 (E) (E) (E) (E) (E) (E) (A1) (A1) (E) (E) (A1)
                 (E) (E) (E) (E) (A1) (E) (E) (A1)
 Keep R1 ints in memory in symmetry-blocked form, NReq=130870253.
 Requested convergence on RMS density matrix=1.00D-08 within 128 cycles.
 Requested convergence on MAX density matrix=1.00D-06.
 Requested convergence on             energy=1.00D-06.
 No special actions if energy rises.
 SCF Done:  E(RB3LYP) =  -1518.69524592     A.U. after    8 cycles
            NFock=  8  Conv=0.31D-08     -V/T= 2.0011
 Calling FoFJK, ICntrl=      2127 FMM=F ISym2X=1 I1Cent= 0 IOpClX= 0 NMat=1 NMatS=1 NMatT=0.
 ***** Axes restored to original set *****
 -------------------------------------------------------------------
 Center     Atomic                   Forces (Hartrees/Bohr)
 Number     Number              X              Y              Z
 -------------------------------------------------------------------
      1        6           0.000000000   -0.000000000   -0.001001428
      2        9          -0.000000000    0.000000000    0.000910292
      3       17           0.000000000    0.000013074    0.000030378
      4       17           0.000011322   -0.000006537    0.000030378
      5       17          -0.000011322   -0.000006537    0.000030378
 -------------------------------------------------------------------
 Cartesian Forces:  Max     0.001001428 RMS     0.000349740

 GradGradGradGradGradGradGradGradGradGradGradGradGradGradGradGradGradGrad
 Berny optimization.
 Using GEDIIS/GDIIS optimizer.
 FormGI is forming the generalized inverse of G from B-inverse, IUseBI=4.
 Internal  Forces:  Max     0.000910292 RMS     0.000244374
 Search for a local minimum.
 Step number   3 out of a maximum of   24
 All quantities printed in internal units (Hartrees-Bohrs-Radians)
 Mixed Optimization -- En-DIIS/RFO-DIIS
 Swapping is turned off.
 Update second derivatives using D2CorX and points    1    2    3
 DE= -6.09D-06 DEPred=-5.11D-06 R= 1.19D+00
 TightC=F SS=  1.41D+00  RLast= 9.17D-03 DXNew= 5.0454D-01 2.7501D-02
 Trust test= 1.19D+00 RLast= 9.17D-03 DXMaxT set to 3.00D-01
 The second derivative matrix:
                          R1        R2        R3        R4        A1
           R1           0.50198
           R2           0.05604   0.26290
           R3           0.05604  -0.00820   0.26290
           R4           0.05604  -0.00820  -0.00820   0.26290
           A1           0.04044   0.00105   0.00105   0.00105   0.21295
           A2           0.04103   0.00008   0.00008   0.00008  -0.03575
           A3           0.04258  -0.00251  -0.00251  -0.00251  -0.03228
           A4          -0.03826  -0.00213  -0.00213  -0.00213   0.03706
           A5          -0.04039   0.00144   0.00144   0.00144   0.03229
           A6          -0.04070   0.00194   0.00194   0.00194   0.03159
           D1          -0.00248   0.00335   0.00335   0.00335  -0.00406
           D2           0.00216  -0.00291  -0.00291  -0.00291   0.00337
           D3          -0.00269   0.00380   0.00380   0.00380  -0.00456
           D4          -0.00486   0.00671   0.00671   0.00671  -0.00793
                          A2        A3        A4        A5        A6
           A2           0.21627
           A3          -0.02836   0.23205
           A4           0.03661   0.03540   0.21388
           A5           0.02922   0.02106  -0.03446   0.22677
           A6           0.02814   0.01898  -0.03421  -0.02160   0.23023
           D1          -0.00653  -0.01310   0.00113   0.01017   0.01148
           D2           0.00547   0.01104  -0.00090  -0.00856  -0.00967
           D3          -0.00730  -0.01459   0.00131   0.01134   0.01280
           D4          -0.01278  -0.02563   0.00220   0.01991   0.02248
                          D1        D2        D3        D4
           D1           0.01084
           D2          -0.00724   0.00844
           D3           0.00948  -0.00804   0.01283
           D4           0.01673  -0.01418   0.01857   0.03506
 ITU=  1  1  0
     Eigenvalues ---    0.07967   0.09045   0.13763   0.21270   0.25000
     Eigenvalues ---    0.26286   0.27109   0.27109   0.54401
 En-DIIS/RFO-DIIS/Sim-DIIS IScMMF=       -3 using points:     3    2
 RFO step:  Lambda=-2.24428505D-06.
 DidBck=F Rises=F RFO-DIIS coefs:    1.29557   -0.29557
 Iteration  1 RMS(Cart)=  0.00047966 RMS(Int)=  0.00000128
 Iteration  2 RMS(Cart)=  0.00000032 RMS(Int)=  0.00000125
 ClnCor:  largest displacement from symmetrization is 5.64D-06 for atom     5.
 Variable       Old X    -DE/DX   Delta X   Delta X   Delta X     New X
                                 (Linear)    (Quad)   (Total)
    R1        2.53000   0.00091   0.00044   0.00184   0.00228   2.53227
    R2        3.36413   0.00000  -0.00049  -0.00009  -0.00058   3.36356
    R3        3.36413   0.00000  -0.00049  -0.00009  -0.00058   3.36356
    R4        3.36413   0.00000  -0.00049  -0.00009  -0.00058   3.36356
    A1        1.89187  -0.00001  -0.00062   0.00009  -0.00053   1.89135
    A2        1.89187  -0.00002  -0.00062   0.00009  -0.00053   1.89135
    A3        1.89187  -0.00004  -0.00062   0.00009  -0.00053   1.89135
    A4        1.92901   0.00000   0.00059  -0.00008   0.00050   1.92952
    A5        1.92901   0.00003   0.00059  -0.00009   0.00050   1.92952
    A6        1.92901   0.00003   0.00059  -0.00009   0.00050   1.92952
    D1       -2.07104   0.00002   0.00078  -0.00011   0.00067  -2.07037
    D2        2.07104  -0.00002  -0.00078   0.00011  -0.00067   2.07037
    D3       -2.07104   0.00003   0.00078  -0.00011   0.00067  -2.07037
    D4        2.14111   0.00005   0.00156  -0.00023   0.00133   2.14244
         Item               Value     Threshold  Converged?
 Maximum Force            0.000910     0.000450     NO 
 RMS     Force            0.000244     0.000300     YES
 Maximum Displacement     0.001572     0.001800     YES
 RMS     Displacement     0.000480     0.001200     YES
 Predicted change in Energy=-1.122037D-06
 GradGradGradGradGradGradGradGradGradGradGradGradGradGradGradGradGradGrad

                          Input orientation:                          
 ---------------------------------------------------------------------
 Center     Atomic      Atomic             Coordinates (Angstroms)
 Number     Number       Type             X           Y           Z
 ---------------------------------------------------------------------
      1          6           0       -0.000000   -0.000000    0.250216
      2          9           0       -0.000000   -0.000000    1.590238
      3         17           0        0.000000    1.689252   -0.310615
      4         17           0        1.462936   -0.844627   -0.310615
      5         17           0       -1.462936   -0.844627   -0.310615
 ---------------------------------------------------------------------
                    Distance matrix (angstroms):
                    1          2          3          4          5
     1  C    0.000000
     2  F    1.340022   0.000000
     3  Cl   1.779918   2.542994   0.000000
     4  Cl   1.779918   2.542994   2.925871   0.000000
     5  Cl   1.779918   2.542994   2.925871   2.925871   0.000000
 Stoichiometry    CCl3F
 Framework group  C3V[C3(CF),3SGV(Cl)]
 Deg. of freedom     3
 Full point group                 C3V     NOp   6
 Largest Abelian subgroup         CS      NOp   2
 Largest concise Abelian subgroup CS      NOp   2
                         Standard orientation:                         
 ---------------------------------------------------------------------
 Center     Atomic      Atomic             Coordinates (Angstroms)
 Number     Number       Type             X           Y           Z
 ---------------------------------------------------------------------
      1          6           0        0.000000    0.000000    0.250640
      2          9           0        0.000000    0.000000    1.590662
      3         17           0        0.000000    1.689253   -0.310192
      4         17           0        1.462936   -0.844626   -0.310192
      5         17           0       -1.462936   -0.844626   -0.310192
 ---------------------------------------------------------------------
 Rotational constants (GHZ):           2.4227928           2.4227928           1.6882057
 Basis read from rwf:  (5D, 7F)
 There are   114 symmetry adapted cartesian basis functions of A'  symmetry.
 There are    73 symmetry adapted cartesian basis functions of A"  symmetry.
 There are    97 symmetry adapted basis functions of A'  symmetry.
 There are    65 symmetry adapted basis functions of A"  symmetry.
   162 basis functions,   312 primitive gaussians,   187 cartesian basis functions
    33 alpha electrons       33 beta electrons
       nuclear repulsion energy       364.6209787694 Hartrees.
 NAtoms=    5 NActive=    5 NUniq=    3 SFac= 2.78D+00 NAtFMM=   60 NAOKFM=F Big=F
 Integral buffers will be    131072 words long.
 Raffenetti 2 integral format.
 Two-electron integral symmetry is turned on.
 One-electron integrals computed using PRISM.
 NBasis=   162 RedAO= T EigKep=  4.19D-03  NBF=    97    65
 NBsUse=   162 1.00D-06 EigRej= -1.00D+00 NBFU=    97    65
 Initial guess from the checkpoint file:  "/wrk/irikura/Gau-22320.chk"
 B after Tr=    -0.000000    0.000000   -0.000000
         Rot=    1.000000   -0.000000    0.000000   -0.000000 Ang=   0.00 deg.
 Initial guess orbital symmetries:
       Occupied  (E) (E) (A1) (A1) (A1) (E) (E) (A1) (E) (E) (A1)
                 (E) (E) (A1) (A2) (E) (E) (A1) (A1) (E) (E) (A1)
                 (A1) (E) (E) (E) (E) (A1) (E) (E) (E) (E) (A2)
       Virtual   (A1) (E) (E) (A1) (A1) (E) (E) (A1) (E) (E) (E)
                 (E) (A1) (E) (E) (A2) (A1) (E) (E) (A1) (A1) (E)
                 (E) (A2) (E) (E) (E) (E) (A2) (E) (E) (A1) (E)
                 (E) (A1) (A1) (E) (E) (A1) (E) (E) (E) (E) (A1)
                 (E) (E) (A1) (A1) (E) (E) (E) (E) (A2) (E) (E)
                 (A1) (E) (E) (E) (E) (A2) (A2) (E) (E) (A1) (E)
                 (E) (E) (E) (E) (E) (A2) (A1) (A1) (A1) (E) (E)
                 (A1) (E) (E) (E) (E) (A1) (E) (E) (A2) (A1) (E)
                 (E) (E) (E) (A1) (E) (E) (A2) (E) (E) (A1) (A1)
                 (E) (E) (E) (E) (A1) (A2) (A1) (E) (E) (A1) (A2)
                 (E) (E) (E) (E) (E) (E) (A1) (A1) (E) (E) (A1)
                 (E) (E) (E) (E) (A1) (E) (E) (A1)
 Keep R1 ints in memory in symmetry-blocked form, NReq=130870253.
 Requested convergence on RMS density matrix=1.00D-08 within 128 cycles.
 Requested convergence on MAX density matrix=1.00D-06.
 Requested convergence on             energy=1.00D-06.
 No special actions if energy rises.
 SCF Done:  E(RB3LYP) =  -1518.69524728     A.U. after    7 cycles
            NFock=  7  Conv=0.67D-08     -V/T= 2.0011
 Calling FoFJK, ICntrl=      2127 FMM=F ISym2X=1 I1Cent= 0 IOpClX= 0 NMat=1 NMatS=1 NMatT=0.
 ***** Axes restored to original set *****
 -------------------------------------------------------------------
 Center     Atomic                   Forces (Hartrees/Bohr)
 Number     Number              X              Y              Z
 -------------------------------------------------------------------
      1        6           0.000000000   -0.000000000   -0.000196446
      2        9          -0.000000000    0.000000000    0.000254674
      3       17           0.000000000    0.000026838   -0.000019410
      4       17           0.000023242   -0.000013419   -0.000019410
      5       17          -0.000023242   -0.000013419   -0.000019410
 -------------------------------------------------------------------
 Cartesian Forces:  Max     0.000254674 RMS     0.000084357

 GradGradGradGradGradGradGradGradGradGradGradGradGradGradGradGradGradGrad
 Berny optimization.
 Using GEDIIS/GDIIS optimizer.
 FormGI is forming the generalized inverse of G from B-inverse, IUseBI=4.
 Internal  Forces:  Max     0.000254674 RMS     0.000069963
 Search for a local minimum.
 Step number   4 out of a maximum of   24
 All quantities printed in internal units (Hartrees-Bohrs-Radians)
 Mixed Optimization -- En-DIIS/RFO-DIIS
 Swapping is turned off.
 Update second derivatives using D2CorX and points    1    2    3    4
 DE= -1.36D-06 DEPred=-1.12D-06 R= 1.21D+00
 TightC=F SS=  1.41D+00  RLast= 3.30D-03 DXNew= 5.0454D-01 9.9021D-03
 Trust test= 1.21D+00 RLast= 3.30D-03 DXMaxT set to 3.00D-01
 The second derivative matrix:
                          R1        R2        R3        R4        A1
           R1           0.38601
           R2           0.04911   0.26563
           R3           0.04911  -0.00546   0.26563
           R4           0.04911  -0.00546  -0.00546   0.26563
           A1           0.02079   0.00494   0.00494   0.00494   0.21309
           A2           0.02449   0.00392   0.00392   0.00392  -0.03513
           A3           0.03429   0.00122   0.00122   0.00122  -0.03038
           A4          -0.01581  -0.00592  -0.00592  -0.00592   0.03746
           A5          -0.02931  -0.00219  -0.00219  -0.00219   0.03093
           A6          -0.03128  -0.00167  -0.00167  -0.00167   0.02998
           D1          -0.01291   0.00346   0.00346   0.00346  -0.00571
           D2           0.01091  -0.00299  -0.00299  -0.00299   0.00477
           D3          -0.01425   0.00392   0.00392   0.00392  -0.00639
           D4          -0.02516   0.00690   0.00690   0.00690  -0.01115
                          A2        A3        A4        A5        A6
           A2           0.21732
           A3          -0.02619   0.23494
           A4           0.03648   0.03388   0.21291
           A5           0.02754   0.01854  -0.03351   0.22888
           A6           0.02625   0.01632  -0.03299  -0.01932   0.23267
           D1          -0.00799  -0.01405   0.00293   0.01128   0.01250
           D2           0.00671   0.01186  -0.00242  -0.00951  -0.01054
           D3          -0.00892  -0.01566   0.00330   0.01258   0.01393
           D4          -0.01563  -0.02752   0.00572   0.02209   0.02446
                          D1        D2        D3        D4
           D1           0.01021
           D2          -0.00672   0.00801
           D3           0.00879  -0.00747   0.01207
           D4           0.01551  -0.01317   0.01723   0.03270
 ITU=  1  1  1  0
     Eigenvalues ---    0.08074   0.09405   0.13777   0.21183   0.25000
     Eigenvalues ---    0.26286   0.27109   0.27109   0.44174
 En-DIIS/RFO-DIIS/Sim-DIIS IScMMF=       -3 using points:     4    3    2
 RFO step:  Lambda=-1.71124444D-07.
 DidBck=F Rises=F RFO-DIIS coefs:    1.35126   -0.43120    0.07994
 Iteration  1 RMS(Cart)=  0.00015565 RMS(Int)=  0.00000034
 Iteration  2 RMS(Cart)=  0.00000000 RMS(Int)=  0.00000034
 ClnCor:  largest displacement from symmetrization is 3.55D-07 for atom     5.
 Variable       Old X    -DE/DX   Delta X   Delta X   Delta X     New X
                                 (Linear)    (Quad)   (Total)
    R1        2.53227   0.00025   0.00068   0.00002   0.00071   2.53298
    R2        3.36356   0.00003  -0.00007   0.00008   0.00001   3.36356
    R3        3.36356   0.00003  -0.00007   0.00008   0.00001   3.36356
    R4        3.36356   0.00003  -0.00007   0.00008   0.00001   3.36356
    A1        1.89135   0.00000  -0.00002  -0.00001  -0.00003   1.89132
    A2        1.89135   0.00001  -0.00002  -0.00001  -0.00003   1.89132
    A3        1.89135   0.00001  -0.00002  -0.00001  -0.00003   1.89132
    A4        1.92952  -0.00000   0.00002   0.00001   0.00003   1.92955
    A5        1.92952  -0.00001   0.00002   0.00001   0.00003   1.92955
    A6        1.92952  -0.00001   0.00002   0.00001   0.00003   1.92955
    D1       -2.07037  -0.00001   0.00002   0.00001   0.00003  -2.07034
    D2        2.07037   0.00001  -0.00002  -0.00001  -0.00003   2.07034
    D3       -2.07037  -0.00001   0.00002   0.00001   0.00003  -2.07034
    D4        2.14244  -0.00001   0.00005   0.00002   0.00007   2.14251
         Item               Value     Threshold  Converged?
 Maximum Force            0.000255     0.000450     YES
 RMS     Force            0.000070     0.000300     YES
 Maximum Displacement     0.000514     0.001800     YES
 RMS     Displacement     0.000156     0.001200     YES
 Predicted change in Energy=-8.511239D-08
 Optimization completed.
    -- Stationary point found.
                           ----------------------------
                           !   Optimized Parameters   !
                           ! (Angstroms and Degrees)  !
 --------------------------                            --------------------------
 ! Name  Definition              Value          Derivative Info.                !
 --------------------------------------------------------------------------------
 ! R1    R(1,2)                  1.34           -DE/DX =    0.0003              !
 ! R2    R(1,3)                  1.7799         -DE/DX =    0.0                 !
 ! R3    R(1,4)                  1.7799         -DE/DX =    0.0                 !
 ! R4    R(1,5)                  1.7799         -DE/DX =    0.0                 !
 ! A1    A(2,1,3)              108.3662         -DE/DX =    0.0                 !
 ! A2    A(2,1,4)              108.3662         -DE/DX =    0.0                 !
 ! A3    A(2,1,5)              108.3662         -DE/DX =    0.0                 !
 ! A4    A(3,1,4)              110.5533         -DE/DX =    0.0                 !
 ! A5    A(3,1,5)              110.5533         -DE/DX =    0.0                 !
 ! A6    A(4,1,5)              110.5533         -DE/DX =    0.0                 !
 ! D1    D(2,1,4,3)           -118.6235         -DE/DX =    0.0                 !
 ! D2    D(2,1,5,3)            118.6235         -DE/DX =    0.0                 !
 ! D3    D(2,1,5,4)           -118.6235         -DE/DX =    0.0                 !
 ! D4    D(3,1,5,4)            122.753          -DE/DX =    0.0                 !
 --------------------------------------------------------------------------------
 GradGradGradGradGradGradGradGradGradGradGradGradGradGradGradGradGradGrad

                          Input orientation:                          
 ---------------------------------------------------------------------
 Center     Atomic      Atomic             Coordinates (Angstroms)
 Number     Number       Type             X           Y           Z
 ---------------------------------------------------------------------
      1          6           0       -0.000000   -0.000000    0.250216
      2          9           0       -0.000000   -0.000000    1.590238
      3         17           0        0.000000    1.689252   -0.310615
      4         17           0        1.462936   -0.844627   -0.310615
      5         17           0       -1.462936   -0.844627   -0.310615
 ---------------------------------------------------------------------
                    Distance matrix (angstroms):
                    1          2          3          4          5
     1  C    0.000000
     2  F    1.340022   0.000000
     3  Cl   1.779918   2.542994   0.000000
     4  Cl   1.779918   2.542994   2.925871   0.000000
     5  Cl   1.779918   2.542994   2.925871   2.925871   0.000000
 Stoichiometry    CCl3F
 Framework group  C3V[C3(CF),3SGV(Cl)]
 Deg. of freedom     3
 Full point group                 C3V     NOp   6
 Largest Abelian subgroup         CS      NOp   2
 Largest concise Abelian subgroup CS      NOp   2
                         Standard orientation:                         
 ---------------------------------------------------------------------
 Center     Atomic      Atomic             Coordinates (Angstroms)
 Number     Number       Type             X           Y           Z
 ---------------------------------------------------------------------
      1          6           0        0.000000    0.000000    0.250640
      2          9           0        0.000000    0.000000    1.590662
      3         17           0        0.000000    1.689253   -0.310192
      4         17           0        1.462936   -0.844626   -0.310192
      5         17           0       -1.462936   -0.844626   -0.310192
 ---------------------------------------------------------------------
 Rotational constants (GHZ):           2.4227928           2.4227928           1.6882057

 **********************************************************************

            Population analysis using the SCF Density.

 **********************************************************************

 Orbital symmetries:
       Occupied  (E) (E) (A1) (A1) (A1) (E) (E) (A1) (E) (E) (A1)
                 (E) (E) (A1) (A2) (E) (E) (A1) (A1) (E) (E) (A1)
                 (A1) (E) (E) (E) (E) (A1) (E) (E) (E) (E) (A2)
       Virtual   (A1) (E) (E) (A1) (A1) (E) (E) (A1) (E) (E) (E)
                 (E) (A1) (E) (E) (A2) (A1) (E) (E) (A1) (A1) (E)
                 (E) (A2) (E) (E) (E) (E) (A2) (E) (E) (A1) (E)
                 (E) (A1) (A1) (E) (E) (A1) (E) (E) (E) (E) (A1)
                 (E) (E) (A1) (A1) (E) (E) (E) (E) (A2) (E) (E)
                 (A1) (E) (E) (E) (E) (A2) (A2) (E) (E) (A1) (E)
                 (E) (E) (E) (E) (E) (A2) (A1) (A1) (A1) (E) (E)
                 (A1) (E) (E) (E) (E) (A1) (E) (E) (A2) (A1) (E)
                 (E) (E) (E) (A1) (E) (E) (A2) (E) (E) (A1) (A1)
                 (E) (E) (E) (E) (A1) (A2) (A1) (E) (E) (A1) (A2)
                 (E) (E) (E) (E) (E) (E) (A1) (A1) (E) (E) (A1)
                 (E) (E) (E) (E) (A1) (E) (E) (A1)
 The electronic state is 1-A1.
 Alpha  occ. eigenvalues -- -101.55106-101.55106-101.55106 -24.74413 -10.45098
 Alpha  occ. eigenvalues --   -9.49655  -9.49655  -9.49654  -7.25882  -7.25882
 Alpha  occ. eigenvalues --   -7.25882  -7.24887  -7.24887  -7.24887  -7.24877
 Alpha  occ. eigenvalues --   -7.24877  -7.24877  -1.29581  -0.95063  -0.86600
 Alpha  occ. eigenvalues --   -0.86600  -0.67926  -0.56843  -0.55609  -0.55609
 Alpha  occ. eigenvalues --   -0.44254  -0.44254  -0.38250  -0.37203  -0.37203
 Alpha  occ. eigenvalues --   -0.34317  -0.34317  -0.32934
 Alpha virt. eigenvalues --   -0.06305  -0.00694  -0.00694   0.06348   0.10919
 Alpha virt. eigenvalues --    0.15220   0.15220   0.21076   0.25869   0.25869
 Alpha virt. eigenvalues --    0.31088   0.31088   0.31567   0.33061   0.33061
 Alpha virt. eigenvalues --    0.33534   0.33981   0.39167   0.39167   0.41123
 Alpha virt. eigenvalues --    0.49729   0.51587   0.51587   0.53495   0.54213
 Alpha virt. eigenvalues --    0.54213   0.58518   0.58518   0.63305   0.64711
 Alpha virt. eigenvalues --    0.64711   0.70277   0.72987   0.72987   0.76596
 Alpha virt. eigenvalues --    0.90250   0.97345   0.97345   1.05252   1.10074
 Alpha virt. eigenvalues --    1.10074   1.17219   1.17219   1.17985   1.65139
 Alpha virt. eigenvalues --    1.65139   1.65517   1.82675   1.87389   1.87389
 Alpha virt. eigenvalues --    1.98220   1.98220   1.98252   2.05983   2.05983
 Alpha virt. eigenvalues --    2.07887   2.08361   2.08361   2.08844   2.08844
 Alpha virt. eigenvalues --    2.08904   2.09361   2.09725   2.09725   2.11982
 Alpha virt. eigenvalues --    2.12634   2.12634   2.17815   2.17815   2.18638
 Alpha virt. eigenvalues --    2.18638   2.19466   2.20391   2.24443   2.38554
 Alpha virt. eigenvalues --    2.41433   2.41433   2.42804   2.55457   2.55457
 Alpha virt. eigenvalues --    2.62702   2.62702   2.64019   2.94753   2.94753
 Alpha virt. eigenvalues --    3.31710   3.33030   3.34342   3.34342   3.45662
 Alpha virt. eigenvalues --    3.45662   3.48182   3.48433   3.48433   3.48937
 Alpha virt. eigenvalues --    3.52915   3.52915   3.59200   3.75783   3.75822
 Alpha virt. eigenvalues --    3.75822   3.93507   3.93507   4.01538   4.05565
 Alpha virt. eigenvalues --    4.26230   4.28087   4.28087   4.34266   4.36063
 Alpha virt. eigenvalues --    4.45793   4.45793   4.79423   4.79423   4.87853
 Alpha virt. eigenvalues --    4.87853   5.22350   5.42112   5.46060   5.46060
 Alpha virt. eigenvalues --    5.80013   7.51164   7.51164   8.00122   8.00122
 Alpha virt. eigenvalues --    8.10554  32.79580  32.79580  32.82729
          Condensed to atoms (all electrons):
               1          2          3          4          5
     1  C    4.302894   0.270611   0.365339   0.365339   0.365339
     2  F    0.270611   9.120443  -0.063552  -0.063552  -0.063552
     3  Cl   0.365339  -0.063552  16.907206  -0.082816  -0.082816
     4  Cl   0.365339  -0.063552  -0.082816  16.907206  -0.082816
     5  Cl   0.365339  -0.063552  -0.082816  -0.082816  16.907206
 Mulliken charges:
               1
     1  C    0.330479
     2  F   -0.200398
     3  Cl  -0.043361
     4  Cl  -0.043361
     5  Cl  -0.043361
 Sum of Mulliken charges =  -0.00000
 Mulliken charges with hydrogens summed into heavy atoms:
               1
     1  C    0.330479
     2  F   -0.200398
     3  Cl  -0.043361
     4  Cl  -0.043361
     5  Cl  -0.043361
 Electronic spatial extent (au):  <R**2>=            726.8622
 Charge=             -0.0000 electrons
 Dipole moment (field-independent basis, Debye):
    X=             -0.0000    Y=             -0.0000    Z=             -0.3984  Tot=              0.3984
 Quadrupole moment (field-independent basis, Debye-Ang):
   XX=            -47.2566   YY=            -47.2566   ZZ=            -49.3617
   XY=              0.0000   XZ=              0.0000   YZ=             -0.0000
 Traceless Quadrupole moment (field-independent basis, Debye-Ang):
   XX=              0.7017   YY=              0.7017   ZZ=             -1.4034
   XY=              0.0000   XZ=              0.0000   YZ=             -0.0000
 Octapole moment (field-independent basis, Debye-Ang**2):
  XXX=              0.0000  YYY=              4.3766  ZZZ=              6.2271  XYY=             -0.0000
[...]
 Approx polarizability:  79.001   0.000  79.001   0.000  -0.000  57.529
 Calling FoFJK, ICntrl=    100127 FMM=F ISym2X=1 I1Cent= 0 IOpClX= 0 NMat=1 NMatS=1 NMatT=0.
 Full mass-weighted force constant matrix:
 Low frequencies ---   -7.1090   -7.0888   -5.3288   -0.0047    0.0269    0.1584
 Low frequencies ---  240.0157  240.0167  344.6675
 Diagonal vibrational polarizability:
       12.0369162      12.0362455       5.2960664
 Harmonic frequencies (cm**-1), IR intensities (KM/Mole), Raman scattering
 activities (A**4/AMU), depolarization ratios for plane and unpolarized
 incident light, reduced masses (AMU), force constants (mDyne/A),
 and normal coordinates:
                      1                      2                      3
                      E                      E                     A1
 Frequencies --    240.0157               240.0167               344.6675
 Red. masses --     30.0156                30.0155                25.9932
 Frc consts  --      1.0188                 1.0188                 1.8193
 IR Inten    --      0.0642                 0.0643                 0.2553
  Atom  AN      X      Y      Z        X      Y      Z        X      Y      Z
     1   6     0.00  -0.20  -0.00    -0.20  -0.00  -0.00     0.00  -0.00  -0.45
     2   9     0.00  -0.50   0.00    -0.50  -0.00  -0.00    -0.00  -0.00  -0.52
     3  17    -0.00  -0.33  -0.22     0.56  -0.00  -0.00    -0.00   0.39   0.15
     4  17     0.39   0.34   0.11    -0.11   0.39  -0.19     0.34  -0.20   0.15
     5  17    -0.39   0.34   0.11    -0.11  -0.39   0.19    -0.34  -0.20   0.15
                      4                      5                      6
                      E                      E                     A1
 Frequencies --    392.1015               392.1015               522.8660
 Red. masses --     25.4192                25.4190                22.1941
 Frc consts  --      2.3025                 2.3025                 3.5749
 IR Inten    --      0.4653                 0.4652                 2.8726
  Atom  AN      X      Y      Z        X      Y      Z        X      Y      Z
     1   6    -0.06  -0.00  -0.00     0.00  -0.06   0.00    -0.00   0.00   0.54
     2   9     0.77   0.00  -0.00    -0.00   0.77  -0.00    -0.00  -0.00   0.61
     3  17     0.13  -0.00   0.00    -0.00  -0.40   0.31     0.00   0.28  -0.17
     4  17    -0.26   0.23   0.27     0.23  -0.00  -0.15     0.24  -0.14  -0.17
     5  17    -0.26  -0.23  -0.27    -0.23  -0.00  -0.15    -0.24  -0.14  -0.17
                      7                      8                      9
                      E                      E                     A1
 Frequencies --    799.6667               799.6738              1075.6244
 Red. masses --     12.8170                12.8170                13.7279
 Frc consts  --      4.8290                 4.8290                 9.3579
 IR Inten    --    283.3733               283.3641               213.0458
  Atom  AN      X      Y      Z        X      Y      Z        X      Y      Z
     1   6     0.98   0.00   0.00    -0.00   0.98   0.00    -0.00  -0.00   0.87
     2   9    -0.14  -0.00  -0.00     0.00  -0.14  -0.00     0.00   0.00  -0.50
     3  17    -0.04  -0.00   0.00     0.00  -0.13   0.02     0.00  -0.00  -0.01
     4  17    -0.11   0.04   0.01     0.04  -0.06  -0.01    -0.00   0.00  -0.01
     5  17    -0.11  -0.04  -0.01    -0.04  -0.06  -0.01     0.00   0.00  -0.01

 -------------------
 - Thermochemistry -
 -------------------
 Temperature   298.150 Kelvin.  Pressure   1.00000 Atm.
 Atom     1 has atomic number  6 and mass  12.00000
 Atom     2 has atomic number  9 and mass  18.99840
 Atom     3 has atomic number 17 and mass  34.96885
 Atom     4 has atomic number 17 and mass  34.96885
 Atom     5 has atomic number 17 and mass  34.96885
 Molecular mass:   135.90496 amu.
 Principal axes and moments of inertia in atomic units:
                           1         2         3
     Eigenvalues --   744.90117 744.901171069.02920
           X           -0.37139   0.92848   0.00000
           Y            0.92848   0.37139   0.00000
           Z           -0.00000  -0.00000   1.00000
 This molecule is an oblate symmetric top.
 Rotational symmetry number  3.
 Warning -- assumption of classical behavior for rotation
           may cause significant error
 Rotational temperatures (Kelvin)      0.11628     0.11628     0.08102
 Rotational constants (GHZ):           2.42279     2.42279     1.68821
 Zero-point vibrational energy      28750.7 (Joules/Mol)
                                    6.87157 (Kcal/Mol)
 Warning -- explicit consideration of   6 degrees of freedom as
           vibrations may cause significant error
 Vibrational temperatures:    345.33   345.33   495.90   564.15   564.15
          (Kelvin)            752.29  1150.54  1150.55  1547.58
 
 Zero-point correction=                           0.010951 (Hartree/Particle)
 Thermal correction to Energy=                    0.016178
 Thermal correction to Enthalpy=                  0.017122
 Thermal correction to Gibbs Free Energy=        -0.018129
 Sum of electronic and zero-point Energies=          -1518.684297
 Sum of electronic and thermal Energies=             -1518.679069
 Sum of electronic and thermal Enthalpies=           -1518.678125
 Sum of electronic and thermal Free Energies=        -1518.713376
 
                     E (Thermal)             CV                S
                      KCal/Mol        Cal/Mol-Kelvin    Cal/Mol-Kelvin
 Total                   10.152             16.884             74.192
 Electronic               0.000              0.000              0.000
 Translational            0.889              2.981             40.632
 Rotational               0.889              2.981             25.691
 Vibrational              8.374             10.922              7.868
 Vibration     1          0.657              1.779              1.803
 Vibration     2          0.657              1.779              1.803
 Vibration     3          0.723              1.586              1.190
 Vibration     4          0.760              1.487              0.992
 Vibration     5          0.760              1.487              0.992
 Vibration     6          0.878              1.199              0.603
                       Q            Log10(Q)             Ln(Q)
 Total Bot       0.218051D+09          8.338559         19.200242
 Total V=0       0.237386D+14         13.375456         30.798125
 Vib (Bot)       0.381008D-04         -4.419066        -10.175275
 Vib (Bot)    1  0.816943D+00         -0.087808         -0.202186
 Vib (Bot)    2  0.816940D+00         -0.087810         -0.202190
 Vib (Bot)    3  0.537139D+00         -0.269913         -0.621498
 Vib (Bot)    4  0.457179D+00         -0.339914         -0.782681
 Vib (Bot)    5  0.457179D+00         -0.339914         -0.782681
 Vib (Bot)    6  0.307897D+00         -0.511594         -1.177989
 Vib (V=0)       0.414793D+01          0.617831          1.422609
 Vib (V=0)    1  0.145781D+01          0.163700          0.376934
 Vib (V=0)    2  0.145780D+01          0.163699          0.376932
 Vib (V=0)    3  0.123384D+01          0.091258          0.210130
 Vib (V=0)    4  0.117750D+01          0.070963          0.163397
 Vib (V=0)    5  0.117750D+01          0.070963          0.163397
 Vib (V=0)    6  0.108720D+01          0.036308          0.083603
 Electronic      0.100000D+01          0.000000          0.000000
 Translational   0.622740D+08          7.794307         17.947055
 Rotational      0.919005D+05          4.963318         11.428462
 ***** Axes restored to original set *****
 -------------------------------------------------------------------
 Center     Atomic                   Forces (Hartrees/Bohr)
 Number     Number              X              Y              Z
 -------------------------------------------------------------------
      1        6           0.000000000    0.000000000   -0.000196135
      2        9          -0.000000000    0.000000000    0.000254454
      3       17           0.000000000    0.000026846   -0.000019440
      4       17           0.000023250   -0.000013423   -0.000019440
      5       17          -0.000023250   -0.000013423   -0.000019440
 -------------------------------------------------------------------
 Cartesian Forces:  Max     0.000254454 RMS     0.000084266
 FormGI is forming the generalized inverse of G from B-inverse, IUseBI=4.

 GradGradGradGradGradGradGradGradGradGradGradGradGradGradGradGradGradGrad
 Berny optimization.
 Internal  Forces:  Max     0.000254454 RMS     0.000069910
 Search for a local minimum.
 Step number   1 out of a maximum of    2
 All quantities printed in internal units (Hartrees-Bohrs-Radians)
 Second derivative matrix not updated -- analytic derivatives used.
 The second derivative matrix:
                          R1        R2        R3        R4        A1
           R1           0.36353
           R2           0.03959   0.19047
           R3           0.03959   0.02759   0.19047
           R4           0.03959   0.02759   0.02759   0.19047
           A1           0.00720   0.00936  -0.00432  -0.00950   0.03786
           A2           0.01136  -0.00272   0.01531  -0.01962  -0.01229
           A3           0.02242  -0.01568  -0.01790   0.01970  -0.02594
           A4          -0.00221   0.00983   0.01133  -0.01979  -0.01207
           A5          -0.01743   0.01834  -0.01928   0.01173  -0.02057
           A6          -0.01963  -0.01951   0.01458   0.01709   0.03299
           D1          -0.01439  -0.01546  -0.01065   0.03503  -0.03156
           D2           0.01224   0.01254  -0.02739   0.00727   0.01829
           D3          -0.01602   0.02422  -0.01623   0.00193   0.01150
           D4          -0.02826   0.01168   0.01115  -0.00534  -0.00679
                          A2        A3        A4        A5        A6
           A2           0.07534
           A3          -0.04746   0.14753
           A4           0.00365   0.03293   0.07621
           A5           0.03169  -0.05986  -0.04421   0.13966
           A6          -0.05029  -0.04410  -0.05549  -0.04875   0.16305
           D1          -0.03301   0.04124  -0.03196   0.03152   0.02279
           D2          -0.02535   0.02330  -0.02042   0.01996  -0.01510
           D3          -0.03348  -0.00631   0.00786   0.02627  -0.00703
           D4          -0.00813  -0.02960   0.02828   0.00631   0.00807
                          D1        D2        D3        D4
           D1           0.07710
           D2           0.00507   0.04806
           D3           0.00179   0.02547   0.04867
           D4          -0.00327  -0.02259   0.02320   0.04579
 ITU=  0
     Eigenvalues ---    0.07663   0.08655   0.10535   0.17427   0.20618
     Eigenvalues ---    0.23310   0.25224   0.25768   0.40220
 Angle between quadratic step and forces=  16.97 degrees.
 Linear search not attempted -- first point.
 Iteration  1 RMS(Cart)=  0.00015859 RMS(Int)=  0.00000000
 Iteration  2 RMS(Cart)=  0.00000000 RMS(Int)=  0.00000000
 ClnCor:  largest displacement from symmetrization is 9.98D-09 for atom     5.
 Variable       Old X    -DE/DX   Delta X   Delta X   Delta X     New X
                                 (Linear)    (Quad)   (Total)
    R1        2.53227   0.00025   0.00000   0.00071   0.00071   2.53298
    R2        3.36356   0.00003   0.00000   0.00001   0.00001   3.36357
    R3        3.36356   0.00003   0.00000   0.00001   0.00001   3.36357
    R4        3.36356   0.00003   0.00000   0.00001   0.00001   3.36357
    A1        1.89135   0.00000   0.00000  -0.00002  -0.00002   1.89132
    A2        1.89135   0.00001   0.00000  -0.00002  -0.00002   1.89132
    A3        1.89135   0.00001   0.00000  -0.00002  -0.00002   1.89132
    A4        1.92952  -0.00000   0.00000   0.00002   0.00002   1.92954
    A5        1.92952  -0.00001   0.00000   0.00002   0.00002   1.92954
    A6        1.92952  -0.00001   0.00000   0.00002   0.00002   1.92954
    D1       -2.07037  -0.00001   0.00000   0.00003   0.00003  -2.07034
    D2        2.07037   0.00001   0.00000  -0.00003  -0.00003   2.07034
    D3       -2.07037  -0.00001   0.00000   0.00003   0.00003  -2.07034
    D4        2.14244  -0.00001   0.00000   0.00006   0.00006   2.14250
         Item               Value     Threshold  Converged?
 Maximum Force            0.000254     0.000450     YES
 RMS     Force            0.000070     0.000300     YES
 Maximum Displacement     0.000525     0.001800     YES
 RMS     Displacement     0.000159     0.001200     YES
 Predicted change in Energy=-8.960273D-08
 Optimization completed.
    -- Stationary point found.
                           ----------------------------
                           !   Optimized Parameters   !
                           ! (Angstroms and Degrees)  !
 --------------------------                            --------------------------
 ! Name  Definition              Value          Derivative Info.                !
 --------------------------------------------------------------------------------
 ! R1    R(1,2)                  1.34           -DE/DX =    0.0003              !
 ! R2    R(1,3)                  1.7799         -DE/DX =    0.0                 !
 ! R3    R(1,4)                  1.7799         -DE/DX =    0.0                 !
 ! R4    R(1,5)                  1.7799         -DE/DX =    0.0                 !
 ! A1    A(2,1,3)              108.3662         -DE/DX =    0.0                 !
 ! A2    A(2,1,4)              108.3662         -DE/DX =    0.0                 !
 ! A3    A(2,1,5)              108.3662         -DE/DX =    0.0                 !
 ! A4    A(3,1,4)              110.5533         -DE/DX =    0.0                 !
 ! A5    A(3,1,5)              110.5533         -DE/DX =    0.0                 !
 ! A6    A(4,1,5)              110.5533         -DE/DX =    0.0                 !
 ! D1    D(2,1,4,3)           -118.6235         -DE/DX =    0.0                 !
 ! D2    D(2,1,5,3)            118.6235         -DE/DX =    0.0                 !
 ! D3    D(2,1,5,4)           -118.6235         -DE/DX =    0.0                 !
 ! D4    D(3,1,5,4)            122.753          -DE/DX =    0.0                 !
 --------------------------------------------------------------------------------
 GradGradGradGradGradGradGradGradGradGradGradGradGradGradGradGradGradGrad


 ----------------------------------------------------------------------

 Electric dipole moment (input orientation):
 (Debye = 10**-18 statcoulomb cm , SI units = C m)
                  (au)            (Debye)         (10**-30 SI)
   Tot        0.156736D+00      0.398383D+00      0.132886D+01
   x          0.000000D+00      0.000000D+00      0.000000D+00
   y          0.000000D+00      0.000000D+00      0.000000D+00
   z         -0.156736D+00     -0.398383D+00     -0.132886D+01

 Dipole polarizability, Alpha (input orientation).
 (esu units = cm**3 , SI units = C**2 m**2 J**-1)
 Alpha(0;0):
               (au)            (10**-24 esu)      (10**-40 SI)
   iso        0.470731D+02      0.697551D+01      0.776130D+01
   aniso      0.162144D+02      0.240272D+01      0.267339D+01
   xx         0.524779D+02      0.777642D+01      0.865243D+01
   yx         0.000000D+00      0.000000D+00      0.000000D+00
   yy         0.524779D+02      0.777642D+01      0.865243D+01
   zx         0.000000D+00      0.000000D+00      0.000000D+00
   zy         0.421726D-03      0.624933D-04      0.695332D-04
   zz         0.362635D+02      0.537370D+01      0.597905D+01

 ----------------------------------------------------------------------

 Dipole orientation:
     6          0.00000000          0.00000049         -0.47284001
     9          0.00000000          0.00000049         -3.00511494
    17          0.00000005         -3.19222429          0.58697817
    17          2.76454772          1.59611292          0.58697817
    17         -2.76454778          1.59611283          0.58697817

 Electric dipole moment (dipole orientation):
 (Debye = 10**-18 statcoulomb cm , SI units = C m)
                  (au)            (Debye)         (10**-30 SI)
   Tot        0.156736D+00      0.398383D+00      0.132886D+01
   x          0.000000D+00      0.000000D+00      0.000000D+00
   y          0.000000D+00      0.000000D+00      0.000000D+00
   z          0.156736D+00      0.398383D+00      0.132886D+01

 Dipole polarizability, Alpha (dipole orientation).
 (esu units = cm**3 , SI units = C**2 m**2 J**-1)
 Alpha(0;0):
               (au)            (10**-24 esu)      (10**-40 SI)
   iso        0.470731D+02      0.697551D+01      0.776130D+01
   aniso      0.162144D+02      0.240272D+01      0.267339D+01
   xx         0.524779D+02      0.777642D+01      0.865243D+01
   yx         0.000000D+00      0.000000D+00      0.000000D+00
   yy         0.524779D+02      0.777642D+01      0.865243D+01
   zx         0.000000D+00      0.000000D+00      0.000000D+00
   zy         0.421726D-03      0.624933D-04      0.695332D-04
   zz         0.362635D+02      0.537370D+01      0.597905D+01

 ----------------------------------------------------------------------
 1\1\GINC-GAMBA\Freq\RB3LYP\Gen\C1Cl3F1\IRIKURA\16-Jun-2022\0\\#N Geom=
 AllCheck Guess=TCheck SCRF=Check GenChk RB3LYP/ChkBas Freq\\trichlorof
 luoromethane, B3LYP/pcseg-2\\0,1\C,0.,-0.0000002576,0.2502161591\F,0.,
 -0.0000002576,1.5902383442\Cl,0.0000000288,1.6892523445,-0.3106154712\
 Cl,1.4629356524,-0.8446265836,-0.3106154712\Cl,-1.4629356812,-0.844626
 5336,-0.3106154712\\Version=ES64L-G16RevB.01\State=1-A1\HF=-1518.69524
 73\RMSD=2.593e-09\RMSF=8.427e-05\ZeroPoint=0.0109505\Thermal=0.016178\
 Dipole=0.,0.,-0.1567361\DipoleDeriv=1.7541363,0.,0.,0.,1.7541094,0.000
 0594,0.,-0.000004,1.3721671,-0.3617777,0.,0.,0.,-0.3617507,-0.0000252,
 0.,-0.000017,-1.0856585,-0.1492331,0.,0.,0.,-0.7789847,0.1533681,0.,0.
 1496122,-0.0955033,-0.6215548,0.2726864,0.1328266,0.2727035,-0.306679,
 -0.0766926,0.1295624,-0.0748008,-0.095503,-0.6215548,-0.2726864,-0.132
 8266,-0.2727035,-0.306679,-0.0766926,-0.1295624,-0.0748008,-0.095503\P
 olar=52.4778846,0.,52.477888,0.,0.0004217,36.2635103\Quadrupole=0.5217
 128,0.5217128,-1.0434255,0.,0.,0.\PG=C03V [C3(C1F1),3SGV(Cl1)]\NImag=0
 \\0.25909573,0.,0.25910058,0.,-0.00000496,0.37094465,-0.05946471,0.,0.
 ,0.06874536,0.,-0.05946334,-0.00000098,0.,0.06874577,0.,0.00000110,-0.
 26848550,0.,0.00000111,0.36352756,-0.03395899,0.,0.,0.00859284,0.,0.,0
 .03607915,0.,-0.09914000,0.01598117,0.,-0.01478085,0.03119267,0.,0.173
 17796,0.,0.01271188,-0.03415459,0.,0.03846944,-0.03167978,0.,-0.048768
 30,0.05359336,-0.08284038,0.02822415,0.01383807,-0.00893708,0.01012091
 ,0.02701431,-0.00535618,0.01809716,0.00022401,0.13890325,0.02822382,-0
 .05025143,-0.00798910,0.01012091,0.00274932,-0.01559689,0.02394438,-0.
 02962888,-0.00120649,-0.05936553,0.07035385,0.01100728,-0.00635497,-0.
 03415343,0.03331551,-0.01923475,-0.03168046,-0.00093285,0.00079724,0.0
 0612051,-0.04223458,0.02438415,0.05359336,-0.08284038,-0.02822414,-0.0
 1383807,-0.00893708,-0.01012091,-0.02701431,-0.00535618,-0.01809716,-0
 .00022401,-0.04176522,-0.00292361,-0.00115686,0.13890326,-0.02822382,-
 0.05025143,-0.00798910,-0.01012091,0.00274932,-0.01559689,-0.02394438,
 -0.02962888,-0.00120649,0.00292361,0.00678017,0.00040925,0.05936553,0.
 07035385,-0.01100728,-0.00635497,-0.03415343,-0.03331551,-0.01923475,-
 0.03168046,0.00093285,0.00079724,0.00612051,0.00115686,0.00040925,0.00
 612051,0.04223458,0.02438415,0.05359336\\0.,0.,0.00019613,0.,0.,-0.000
 25445,0.,-0.00002685,0.00001944,-0.00002325,0.00001342,0.00001944,0.00
 002325,0.00001342,0.00001944\\\@


 DEPRESSION IS WAITING FOR YOUR SHIP TO COME IN,
 AND FINDING OUT IT'S THE TITANIC.
 Job cpu time:       0 days  0 hours  4 minutes 10.2 seconds.
 Elapsed time:       0 days  0 hours  0 minutes 20.9 seconds.
 File lengths (MBytes):  RWF=     20 Int=      0 D2E=      0 Chk=      3 Scr=      1
 Normal termination of Gaussian 16 at Thu Jun 16 12:02:40 2022.
