 Entering Gaussian System, Link 0=g16
 AtFile(1): pcseg2.gbs
            -H     0
            S   4   1.00
                  0.754732D+02           0.427821D-02
                  0.113575D+02           0.328672D-01
                  0.260081D+01           0.159578D+00
                  0.735503D+00           0.500000D+00
            S   1   1.00
                  0.231761D+00           1.0000000
            S   1   1.00
                  0.741675D-01           1.0000000
            P   1   1.00
                  0.160000D+01           1.0000000
            P   1   1.00
                  0.450000D+00           1.0000000
            D   1   1.00
                  0.125000D+01           1.0000000
            ****
            -C     0
            S   7   1.00
                  0.731999D+04           0.695369D-03
                  0.109818D+04           0.537138D-02
                  0.250014D+03           0.274734D-01
                  0.707586D+02           0.105078D+00
                  0.228595D+02           0.291262D+00
                  0.803936D+01           0.500000D+00
                  0.289309D+01           0.362224D+00
            S   2   1.00
                  0.521640D+01          -0.957844D-01
                  0.556124D+00           0.500000D+00
            S   1   1.00
                  0.228813D+00           1.0000000
            S   1   1.00
                  0.936338D-01           1.0000000
            P   4   1.00
                  0.339855D+02           0.818395D-02
                  0.772957D+01           0.586921D-01
                  0.224954D+01           0.222514D+00
                  0.767681D+00           0.500000D+00
            P   1   1.00
                  0.263283D+00           1.0000000
            P   1   1.00
                  0.848744D-01           1.0000000
            D   1   1.00
                  0.140000D+01           1.0000000
            D   1   1.00
                  0.450000D+00           1.0000000
            F   1   1.00
                  0.950000D+00           1.0000000
            ****
            -O     0
            S   7   1.00
                  0.135887D+05           0.665492D-03
                  0.203847D+04           0.514222D-02
                  0.464041D+03           0.263472D-01
                  0.131339D+03           0.101500D+00
                  0.425340D+02           0.285877D+00
                  0.150429D+02           0.500000D+00
                  0.546616D+01           0.368211D+00
            S   2   1.00
                  0.100915D+02          -0.100084D+00
                  0.110429D+01           0.500000D+00
            S   1   1.00
                  0.448082D+00           1.0000000
            S   1   1.00
                  0.175325D+00           1.0000000
            P   4   1.00
                  0.608220D+02           0.908253D-02
                  0.140332D+02           0.645878D-01
                  0.418244D+01           0.241502D+00
                  0.142490D+01           0.500000D+00
            P   1   1.00
                  0.478741D+00           1.0000000
            P   1   1.00
                  0.146257D+00           1.0000000
            D   1   1.00
                  0.220000D+01           1.0000000
            D   1   1.00
                  0.650000D+00           1.0000000
            F   1   1.00
                  0.110000D+01           1.0000000
            ****
            -N     0
            S   7   1.00
                  0.101643D+05           0.682757D-03
                  0.152481D+04           0.527488D-02
                  0.347119D+03           0.270037D-01
                  0.982389D+02           0.103673D+00
                  0.317799D+02           0.289575D+00
                  0.112240D+02           0.500000D+00
                  0.406611D+01           0.364621D+00
            S   2   1.00
                  0.747898D+01          -0.975681D-01
                  0.805040D+00           0.500000D+00
            S   1   1.00
                  0.324626D+00           1.0000000
            S   1   1.00
                  0.128132D+00           1.0000000
            P   4   1.00
                  0.482704D+02           0.829547D-02
                  0.110815D+02           0.596223D-01
                  0.326643D+01           0.227889D+00
                  0.111680D+01           0.500000D+00
            P   1   1.00
                  0.382049D+00           1.0000000
            P   1   1.00
                  0.121222D+00           1.0000000
            D   1   1.00
                  0.180000D+01           1.0000000
            D   1   1.00
                  0.550000D+00           1.0000000
            F   1   1.00
                  0.102000D+01           1.0000000
            ****
            -F     0
            S   7   1.00
                  0.174507D+05           0.655972D-03
                  0.261768D+04           0.506944D-02
                  0.595857D+03           0.259899D-01
                  0.168651D+03           0.100353D+00
                  0.546654D+02           0.284095D+00
                  0.193717D+02           0.500000D+00
                  0.706202D+01           0.370721D+00
            S   2   1.00
                  0.131197D+02          -0.101997D+00
                  0.145046D+01           0.500000D+00
            S   1   1.00
                  0.588255D+00           1.0000000
            S   1   1.00
                  0.227960D+00           1.0000000
            P   4   1.00
                  0.779407D+02           0.931135D-02
                  0.180425D+02           0.663964D-01
                  0.542342D+01           0.246386D+00
                  0.184876D+01           0.500000D+00
            P   1   1.00
                  0.617455D+00           1.0000000
            P   1   1.00
                  0.185496D+00           1.0000000
            D   1   1.00
                  0.280000D+01           1.0000000
            D   1   1.00
                  0.800000D+00           1.0000000
            F   1   1.00
                  0.120000D+01           1.0000000
            ****
            -Cl     0
            S   8   1.00
                  0.154272D+06           0.222473D-03
                  0.231232D+05           0.172590D-02
                  0.526257D+04           0.899286D-02
                  0.148995D+04           0.367724D-01
                  0.485417D+03           0.121446D+00
                  0.174634D+03           0.304148D+00
                  0.672393D+02           0.500000D+00
                  0.265780D+02           0.360252D+00
            S   3   1.00
                  0.131826D+03          -0.531330D-01
                  0.400703D+02          -0.233346D+00
                  0.789448D+01           0.500000D+00
            S   2   1.00
                  0.427711D+01           0.500000D+00
                  0.196233D+01           0.370517D+00
            S   1   1.00
                  0.520793D+00           1.0000000
            S   1   1.00
                  0.181633D+00           1.0000000
            P   7   1.00
                  0.124440D+04           0.988206D-03
                  0.295109D+03           0.829674D-02
                  0.947224D+02           0.430906D-01
                  0.352588D+02           0.148443D+00
                  0.144211D+02           0.344744D+00
                  0.610371D+01           0.500000D+00
                  0.258886D+01           0.348278D+00
            P   2   1.00
                  0.109447D+02          -0.196768D-01
                  0.104413D+01           0.500000D+00
            P   1   1.00
                  0.376184D+00           1.0000000
            P   1   1.00
                  0.120613D+00           1.0000000
            D   1   1.00
                  0.231000D+01           1.0000000
            D   1   1.00
                  0.520000D+00           1.0000000
            F   1   1.00
                  0.720000D+00           1.0000000
            ****
            -S     0
            S   8   1.00
                  0.134700D+06           0.226231D-03
                  0.201904D+05           0.175488D-02
                  0.459528D+04           0.914190D-02
                  0.130109D+04           0.373551D-01
                  0.423902D+03           0.123121D+00
                  0.152485D+03           0.306801D+00
                  0.586925D+02           0.500000D+00
                  0.231461D+02           0.354358D+00
            S   3   1.00
                  0.116327D+03          -0.491772D-01
                  0.352841D+02          -0.215962D+00
                  0.677831D+01           0.500000D+00
            S   2   1.00
                  0.360404D+01           0.500000D+00
                  0.164871D+01           0.366278D+00
            S   1   1.00
                  0.421821D+00           1.0000000
            S   1   1.00
                  0.147554D+00           1.0000000
            P   7   1.00
                  0.104863D+04           0.105273D-02
                  0.248717D+03           0.879338D-02
                  0.797887D+02           0.453358D-01
                  0.296023D+02           0.154476D+00
                  0.120627D+02           0.352366D+00
                  0.507628D+01           0.500000D+00
                  0.213375D+01           0.346429D+00
            P   2   1.00
                  0.928958D+01          -0.185932D-01
                  0.837819D+00           0.500000D+00
            P   1   1.00
                  0.301495D+00           1.0000000
            P   1   1.00
                  0.974740D-01           1.0000000
            D   1   1.00
                  0.210000D+01           1.0000000
            D   1   1.00
                  0.480000D+00           1.0000000
            F   1   1.00
                  0.660000D+00           1.0000000
            ****
            -Br     0
            S    10   1.00
                  0.233625D+07           0.532336D-04
                  0.349961D+06           0.413715D-03
                  0.796444D+05           0.217123D-02
                  0.225555D+05           0.910109D-02
                  0.735546D+04           0.323789D-01
                  0.265352D+04           0.988755D-01
                  0.103517D+04           0.248138D+00
                  0.422205D+03           0.474328D+00
                  0.180035D+03           0.500000D+00
                  0.793308D+02           0.187769D+00
            S    4   1.00
                  0.620834D+03          -0.226511D-01
                  0.190829D+03          -0.109497D+00
                  0.312505D+02           0.500000D+00
                  0.135270D+02           0.492812D+00
            S    2   1.00
                  0.216097D+02          -0.165418D+00
                  0.372566D+01           0.500000D+00
            S    1   1.00
                  0.169770D+01           1.0000000
            S    1   1.00
                  0.489332D+00           1.0000000
            S    1   1.00
                  0.175712D+00           1.0000000
            P    8   1.00
                  0.960829D+04           0.478974D-03
                  0.227618D+04           0.417853D-02
                  0.736723D+03           0.229315D-01
                  0.281579D+03           0.892653D-01
                  0.118395D+03           0.255288D+00
                  0.527481D+02           0.479074D+00
                  0.245098D+02           0.500000D+00
                  0.112009D+02           0.200944D+00
            P    4   1.00
                  0.587849D+02          -0.189674D-01
                  0.918962D+01           0.264104D+00
                  0.413895D+01           0.500000D+00
                  0.184225D+01           0.319316D+00
            P    1   1.00
                  0.713862D+00           1.0000000
            P    1   1.00
                  0.274232D+00           1.0000000
            P    1   1.00
                  0.944411D-01           1.0000000
            D    7   1.00
                  0.398470D+03           0.204066D-02
                  0.118967D+03           0.175171D-01
                  0.450197D+02           0.829708D-01
                  0.190320D+02           0.236284D+00
                  0.855686D+01           0.428468D+00
                  0.382950D+01           0.500000D+00
                  0.166291D+01           0.349360D+00
            D    1   1.00
                  0.672953D+00           1.0000000
            D    1   1.00
                  0.252000D+00           1.0000000
            F    1   1.00
                  0.530000D+00           1.0000000
            ****
            -Si     0
            S    8   1.00
                  0.996133D+05           0.235546D-03
                  0.149311D+05           0.182707D-02
                  0.339820D+04           0.951425D-02
                  0.962140D+03           0.388172D-01
                  0.313430D+03           0.127328D+00
                  0.112683D+03           0.313522D+00
                  0.433372D+02           0.500000D+00
                  0.170029D+02           0.340347D+00
            S    3   1.00
                  0.884208D+02          -0.404451D-01
                  0.266756D+02          -0.178059D+00
                  0.479640D+01           0.500000D+00
            S    2   1.00
                  0.239385D+01           0.500000D+00
                  0.108333D+01           0.338016D+00
            S    1   1.00
                  0.252420D+00           1.0000000
            S    1   1.00
                  0.891210D-01           1.0000000
            P    7   1.00
                  0.709901D+03           0.123028D-02
                  0.168426D+03           0.101366D-01
                  0.539946D+02           0.511840D-01
                  0.198646D+02           0.169967D+00
                  0.801369D+01           0.370717D+00
                  0.331870D+01           0.500000D+00
                  0.136112D+01           0.344128D+00
            P    2   1.00
                  0.622158D+01          -0.166609D-01
                  0.503049D+00           0.500000D+00
            P    1   1.00
                  0.179848D+00           1.0000000
            P    1   1.00
                  0.591912D-01           1.0000000
            D    1   1.00
                  0.168000D+01           1.0000000
            D    1   1.00
                  0.380000D+00           1.0000000
            F    1   1.00
                  0.540000D+00           1.0000000
            ****
            -P     0
            S    8   1.00
                  0.116416D+06           0.230715D-03
                  0.174500D+05           0.178960D-02
                  0.397149D+04           0.932116D-02
                  0.112447D+04           0.380591D-01
                  0.366347D+03           0.125148D+00
                  0.131757D+03           0.310022D+00
                  0.506988D+02           0.500000D+00
                  0.199436D+02           0.347528D+00
            S    3   1.00
                  0.101878D+03          -0.446755D-01
                  0.308249D+02          -0.196376D+00
                  0.573688D+01           0.500000D+00
            S    2   1.00
                  0.296868D+01           0.500000D+00
                  0.135315D+01           0.355098D+00
            S    1   1.00
                  0.332196D+00           1.0000000
            S    1   1.00
                  0.116229D+00           1.0000000
            P    7   1.00
                  0.873928D+03           0.112375D-02
                  0.207298D+03           0.933330D-02
                  0.664628D+02           0.477213D-01
                  0.245665D+02           0.160733D+00
                  0.996820D+01           0.359760D+00
                  0.416536D+01           0.500000D+00
                  0.173022D+01           0.346593D+00
            P    2   1.00
                  0.772530D+01          -0.175718D-01
                  0.657252D+00           0.500000D+00
            P    1   1.00
                  0.239903D+00           1.0000000
            P    1   1.00
                  0.800988D-01           1.0000000
            D    1   1.00
                  0.189000D+01           1.0000000
            D    1   1.00
                  0.430000D+00           1.0000000
            F    1   1.00
                  0.600000D+00           1.0000000
            ****
            
 Initial command:
 /usr/local/apps/g16_b01_avx/g16/l1.exe "/wrk/irikura/Gau-24798.inp" -scrdir="/wrk/irikura/"
 Entering Link 1 = /usr/local/apps/g16_b01_avx/g16/l1.exe PID=     24800.
  
 Copyright (c) 1988-2017, Gaussian, Inc.  All Rights Reserved.
  
 This is part of the Gaussian(R) 16 program.  It is based on
 the Gaussian(R) 09 system (copyright 2009, Gaussian, Inc.),
 the Gaussian(R) 03 system (copyright 2003, Gaussian, Inc.),
 the Gaussian(R) 98 system (copyright 1998, Gaussian, Inc.),
 the Gaussian(R) 94 system (copyright 1995, Gaussian, Inc.),
 the Gaussian 92(TM) system (copyright 1992, Gaussian, Inc.),
 the Gaussian 90(TM) system (copyright 1990, Gaussian, Inc.),
 the Gaussian 88(TM) system (copyright 1988, Gaussian, Inc.),
 the Gaussian 86(TM) system (copyright 1986, Carnegie Mellon
 University), and the Gaussian 82(TM) system (copyright 1983,
 Carnegie Mellon University). Gaussian is a federally registered
 trademark of Gaussian, Inc.
  
 This software contains proprietary and confidential information,
 including trade secrets, belonging to Gaussian, Inc.
  
 This software is provided under written license and may be
 used, copied, transmitted, or stored only in accord with that
 written license.
  
 The following legend is applicable only to US Government
 contracts under FAR:
  
                    RESTRICTED RIGHTS LEGEND
  
 Use, reproduction and disclosure by the US Government is
 subject to restrictions as set forth in subparagraphs (a)
 and (c) of the Commercial Computer Software - Restricted
 Rights clause in FAR 52.227-19.
  
 Gaussian, Inc.
 340 Quinnipiac St., Bldg. 40, Wallingford CT 06492
  
  
 ---------------------------------------------------------------
 Warning -- This program may not be used in any manner that
 competes with the business of Gaussian, Inc. or will provide
 assistance to any competitor of Gaussian, Inc.  The licensee
 of this program is prohibited from giving any competitor of
 Gaussian, Inc. access to this program.  By using this program,
 the user acknowledges that Gaussian, Inc. is engaged in the
 business of creating and licensing software in the field of
 computational chemistry and represents and warrants to the
 licensee that it is not a competitor of Gaussian, Inc. and that
 it will not use this program in any manner prohibited above.
 ---------------------------------------------------------------
  

 Cite this work as:
 Gaussian 16, Revision B.01,
 M. J. Frisch, G. W. Trucks, H. B. Schlegel, G. E. Scuseria, 
 M. A. Robb, J. R. Cheeseman, G. Scalmani, V. Barone, 
 G. A. Petersson, H. Nakatsuji, X. Li, M. Caricato, A. V. Marenich, 
 J. Bloino, B. G. Janesko, R. Gomperts, B. Mennucci, H. P. Hratchian, 
 J. V. Ortiz, A. F. Izmaylov, J. L. Sonnenberg, D. Williams-Young, 
 F. Ding, F. Lipparini, F. Egidi, J. Goings, B. Peng, A. Petrone, 
 T. Henderson, D. Ranasinghe, V. G. Zakrzewski, J. Gao, N. Rega, 
 G. Zheng, W. Liang, M. Hada, M. Ehara, K. Toyota, R. Fukuda, 
 J. Hasegawa, M. Ishida, T. Nakajima, Y. Honda, O. Kitao, H. Nakai, 
 T. Vreven, K. Throssell, J. A. Montgomery, Jr., J. E. Peralta, 
 F. Ogliaro, M. J. Bearpark, J. J. Heyd, E. N. Brothers, K. N. Kudin, 
 V. N. Staroverov, T. A. Keith, R. Kobayashi, J. Normand, 
 K. Raghavachari, A. P. Rendell, J. C. Burant, S. S. Iyengar, 
 J. Tomasi, M. Cossi, J. M. Millam, M. Klene, C. Adamo, R. Cammi, 
 J. W. Ochterski, R. L. Martin, K. Morokuma, O. Farkas, 
 J. B. Foresman, and D. J. Fox, Gaussian, Inc., Wallingford CT, 2016.
 
 ******************************************
 Gaussian 16:  ES64L-G16RevB.01 20-Dec-2017
                21-Jun-2022 
 ******************************************
 %mem=1000mw
 %nprocs=12
 Will use up to   12 processors via shared memory.
 --------------------
 # b3lyp/gen opt freq
 --------------------
 1/18=20,19=15,26=3,38=1/1,3;
 2/9=110,12=2,17=6,18=5,40=1/2;
 3/5=7,11=2,25=1,30=1,71=1,74=-5/1,2,3;
 4//1;
 5/5=2,38=5/2;
 6/7=2,8=2,9=2,10=2,28=1/1;
 7//1,2,3,16;
 1/18=20,19=15,26=3/3(2);
 2/9=110/2;
 99//99;
 2/9=110/2;
 3/5=7,6=1,11=2,25=1,30=1,71=1,74=-5,82=7/1,2,3;
 4/5=5,16=3,69=1/1;
 5/5=2,38=5/2;
 7//1,2,3,16;
 1/18=20,19=15,26=3/3(-5);
 2/9=110/2;
 6/7=2,8=2,9=2,10=2,19=2,28=1/1;
 99/9=1/99;
 -----------------------------------
 1,2,3,5-hexatetraene, B3LYP/pcseg-2
 -----------------------------------
 Symbolic Z-matrix:
 Charge =  0 Multiplicity = 1
 C                    -3.14131  -0.25884   0. 
 C                    -1.85531   0.01709   0. 
 C                    -0.62248   0.2813    0. 
 C                     0.67191   0.56417   0. 
 C                     1.72994  -0.42767   0. 
 C                     3.0345   -0.12533   0. 
 H                    -3.50294  -1.28297   0. 
 H                    -3.89089   0.52718   0. 
 H                     0.98058   1.60989   0. 
 H                     3.37868   0.90459   0. 
 H                     3.79727  -0.89503   0. 
 H                     1.41339  -1.46755   0. 
 

 GradGradGradGradGradGradGradGradGradGradGradGradGradGradGradGradGradGrad
 Berny optimization.
 Initialization pass.
                           ----------------------------
                           !    Initial Parameters    !
                           ! (Angstroms and Degrees)  !
 --------------------------                            --------------------------
 ! Name  Definition              Value          Derivative Info.                !
 --------------------------------------------------------------------------------
 ! R1    R(1,2)                  1.3153         estimate D2E/DX2                !
 ! R2    R(1,7)                  1.0861         estimate D2E/DX2                !
 ! R3    R(1,8)                  1.0861         estimate D2E/DX2                !
 ! R4    R(2,3)                  1.2608         estimate D2E/DX2                !
 ! R5    R(3,4)                  1.3249         estimate D2E/DX2                !
 ! R6    R(4,5)                  1.4502         estimate D2E/DX2                !
 ! R7    R(4,9)                  1.0903         estimate D2E/DX2                !
 ! R8    R(5,6)                  1.3391         estimate D2E/DX2                !
 ! R9    R(5,12)                 1.087          estimate D2E/DX2                !
 ! R10   R(6,10)                 1.0859         estimate D2E/DX2                !
 ! R11   R(6,11)                 1.0836         estimate D2E/DX2                !
 ! A1    A(2,1,7)              121.5587         estimate D2E/DX2                !
 ! A2    A(2,1,8)              121.53           estimate D2E/DX2                !
 ! A3    A(7,1,8)              116.9112         estimate D2E/DX2                !
 ! A4    A(3,4,5)              124.5223         estimate D2E/DX2                !
 ! A5    A(3,4,9)              118.7725         estimate D2E/DX2                !
 ! A6    A(5,4,9)              116.7052         estimate D2E/DX2                !
 ! A7    A(4,5,6)              123.8013         estimate D2E/DX2                !
 ! A8    A(4,5,12)             116.2197         estimate D2E/DX2                !
 ! A9    A(6,5,12)             119.979          estimate D2E/DX2                !
 ! A10   A(5,6,10)             121.5272         estimate D2E/DX2                !
 ! A11   A(5,6,11)             121.6925         estimate D2E/DX2                !
 ! A12   A(10,6,11)            116.7803         estimate D2E/DX2                !
 ! A13   L(1,2,3,12,-1)        179.9857         estimate D2E/DX2                !
 ! A14   L(2,3,4,12,-1)        180.2314         estimate D2E/DX2                !
 ! A15   L(1,2,3,12,-2)        180.0            estimate D2E/DX2                !
 ! A16   L(2,3,4,12,-2)        180.0            estimate D2E/DX2                !
 ! D1    D(7,1,4,5)              0.0            estimate D2E/DX2                !
 ! D2    D(7,1,4,9)            180.0            estimate D2E/DX2                !
 ! D3    D(8,1,4,5)            180.0            estimate D2E/DX2                !
 ! D4    D(8,1,4,9)              0.0            estimate D2E/DX2                !
 ! D5    D(3,4,5,6)            180.0            estimate D2E/DX2                !
 ! D6    D(3,4,5,12)             0.0            estimate D2E/DX2                !
 ! D7    D(9,4,5,6)              0.0            estimate D2E/DX2                !
 ! D8    D(9,4,5,12)           180.0            estimate D2E/DX2                !
 ! D9    D(4,5,6,10)             0.0            estimate D2E/DX2                !
 ! D10   D(4,5,6,11)           180.0            estimate D2E/DX2                !
 ! D11   D(12,5,6,10)          180.0            estimate D2E/DX2                !
 ! D12   D(12,5,6,11)            0.0            estimate D2E/DX2                !
 --------------------------------------------------------------------------------
 Trust Radius=3.00D-01 FncErr=1.00D-07 GrdErr=1.00D-06 EigMax=2.50D+02 EigMin=1.00D-04
 Number of steps in this run=     49 maximum allowed number of steps=    100.
 GradGradGradGradGradGradGradGradGradGradGradGradGradGradGradGradGradGrad

                          Input orientation:                          
 ---------------------------------------------------------------------
 Center     Atomic      Atomic             Coordinates (Angstroms)
 Number     Number       Type             X           Y           Z
 ---------------------------------------------------------------------
      1          6           0       -3.141312   -0.258841    0.000000
      2          6           0       -1.855312    0.017093    0.000000
      3          6           0       -0.622483    0.281297    0.000000
      4          6           0        0.671908    0.564166    0.000000
      5          6           0        1.729939   -0.427669    0.000000
      6          6           0        3.034499   -0.125328    0.000000
      7          1           0       -3.502938   -1.282965    0.000000
      8          1           0       -3.890887    0.527184    0.000000
      9          1           0        0.980578    1.609891    0.000000
     10          1           0        3.378681    0.904588    0.000000
     11          1           0        3.797272   -0.895033    0.000000
     12          1           0        1.413392   -1.467545    0.000000
 ---------------------------------------------------------------------
                    Distance matrix (angstroms):
                    1          2          3          4          5
     1  C    0.000000
     2  C    1.315270   0.000000
     3  C    2.576092   1.260822   0.000000
     4  C    3.901024   2.585755   1.324939   0.000000
     5  C    4.874176   3.612733   2.456933   1.450230   0.000000
     6  C    6.177254   4.891885   3.679519   2.461146   1.339137
     7  H    1.086095   2.098767   3.277794   4.565220   5.302314
     8  H    1.086139   2.098513   3.277640   4.562945   5.701353
     9  H    4.525719   3.252580   2.082058   1.090329   2.170989
    10  H    6.622981   5.308703   4.049420   2.728096   2.119731
    11  H    6.967689   5.725703   4.573619   3.449226   2.119503
    12  H    4.712355   3.590066   2.683884   2.162787   1.086989
                    6          7          8          9         10
     6  C    0.000000
     7  H    6.639142   0.000000
     8  H    6.956058   1.851255   0.000000
     9  H    2.688787   5.335778   4.990333   0.000000
    10  H    1.085904   7.220946   7.279358   2.499670   0.000000
    11  H    1.083637   7.310510   7.818599   3.769404   1.847662
    12  H    2.104646   4.919794   5.666950   3.107723   3.080483
                   11         12
    11  H    0.000000
    12  H    2.451663   0.000000
 Stoichiometry    C6H6
 Framework group  CS[SG(C6H6)]
 Deg. of freedom    21
 Full point group                 CS      NOp   2
 Largest Abelian subgroup         CS      NOp   2
 Largest concise Abelian subgroup C1      NOp   1
                         Standard orientation:                         
 ---------------------------------------------------------------------
 Center     Atomic      Atomic             Coordinates (Angstroms)
 Number     Number       Type             X           Y           Z
 ---------------------------------------------------------------------
      1          6           0        1.517508    2.791149    0.000000
      2          6           0        0.742587    1.728401    0.000000
      3          6           0        0.000000    0.709462    0.000000
      4          6           0       -0.784668   -0.358132    0.000000
      5          6           0       -0.308637   -1.728009    0.000000
      6          6           0       -1.115229   -2.796978    0.000000
      7          1           0        2.600196    2.705187    0.000000
      8          1           0        1.104109    3.795539    0.000000
      9          1           0       -1.865563   -0.215007    0.000000
     10          1           0       -2.196118   -2.692724    0.000000
     11          1           0       -0.722107   -3.806791    0.000000
     12          1           0        0.770116   -1.861560    0.000000
 ---------------------------------------------------------------------
 Rotational constants (GHZ):          30.9795646           1.3554797           1.2986582
 General basis read from cards:  (5D, 7F)
 There are   210 symmetry adapted cartesian basis functions of A'  symmetry.
 There are    90 symmetry adapted cartesian basis functions of A"  symmetry.
 There are   180 symmetry adapted basis functions of A'  symmetry.
 There are    84 symmetry adapted basis functions of A"  symmetry.
   264 basis functions,   414 primitive gaussians,   300 cartesian basis functions
    21 alpha electrons       21 beta electrons
       nuclear repulsion energy       176.1740628841 Hartrees.
 NAtoms=   12 NActive=   12 NUniq=   12 SFac= 1.00D+00 NAtFMM=   60 NAOKFM=F Big=F
 Integral buffers will be    131072 words long.
 Raffenetti 2 integral format.
 Two-electron integral symmetry is turned on.
 One-electron integrals computed using PRISM.
 NBasis=   264 RedAO= T EigKep=  4.73D-05  NBF=   180    84
 NBsUse=   264 1.00D-06 EigRej= -1.00D+00 NBFU=   180    84
 ExpMin= 7.42D-02 ExpMax= 7.32D+03 ExpMxC= 2.50D+02 IAcc=3 IRadAn=         5 AccDes= 0.00D+00
 Harris functional with IExCor=  402 and IRadAn=       5 diagonalized for initial guess.
 HarFok:  IExCor=  402 AccDes= 0.00D+00 IRadAn=         5 IDoV= 1 UseB2=F ITyADJ=14
 ICtDFT=  3500011 ScaDFX=  1.000000  1.000000  1.000000  1.000000
 FoFCou: FMM=F IPFlag=           0 FMFlag=      100000 FMFlg1=           0
         NFxFlg=           0 DoJE=T BraDBF=F KetDBF=T FulRan=T
         wScrn=  0.000000 ICntrl=       500 IOpCl=  0 I1Cent=   200000004 NGrid=           0
         NMat0=    1 NMatS0=      1 NMatT0=    0 NMatD0=    1 NMtDS0=    0 NMtDT0=    0
 Petite list used in FoFCou.
 Initial guess orbital symmetries:
       Occupied  (A') (A') (A') (A') (A') (A') (A') (A') (A') (A')
                 (A') (A') (A') (A') (A') (A') (A') (A") (A") (A')
                 (A")
       Virtual   (A") (A') (A") (A') (A') (A') (A") (A') (A') (A')
                 (A') (A') (A") (A') (A') (A") (A') (A') (A') (A")
                 (A') (A") (A') (A') (A') (A') (A") (A') (A') (A')
                 (A') (A') (A') (A") (A') (A') (A') (A') (A') (A')
                 (A') (A') (A') (A") (A") (A') (A") (A") (A') (A")
                 (A') (A") (A') (A') (A") (A') (A') (A') (A') (A')
                 (A") (A') (A') (A") (A') (A') (A') (A") (A') (A')
                 (A") (A') (A") (A') (A") (A') (A") (A') (A") (A')
                 (A") (A") (A') (A") (A') (A') (A") (A') (A") (A')
                 (A') (A") (A') (A') (A') (A') (A') (A') (A") (A')
                 (A") (A') (A') (A') (A') (A') (A') (A') (A') (A")
                 (A') (A') (A') (A') (A') (A') (A') (A') (A') (A")
                 (A") (A") (A') (A') (A") (A') (A") (A") (A") (A')
                 (A') (A') (A") (A") (A') (A') (A') (A") (A") (A')
                 (A') (A') (A') (A") (A') (A') (A') (A') (A") (A")
                 (A") (A') (A") (A') (A') (A") (A") (A') (A") (A')
                 (A") (A') (A') (A") (A") (A') (A") (A') (A') (A")
                 (A') (A") (A') (A') (A") (A') (A') (A") (A") (A')
                 (A') (A') (A") (A') (A") (A") (A') (A") (A") (A')
                 (A') (A") (A') (A") (A') (A") (A') (A') (A") (A')
                 (A') (A") (A') (A") (A") (A') (A') (A') (A") (A')
                 (A') (A") (A') (A') (A") (A') (A') (A') (A") (A')
                 (A') (A") (A') (A") (A') (A') (A") (A') (A") (A')
                 (A') (A') (A') (A') (A') (A') (A') (A') (A') (A')
                 (A') (A') (A')
 The electronic state of the initial guess is 1-A'.
 Keep R1 ints in memory in symmetry-blocked form, NReq=923427879.
 Requested convergence on RMS density matrix=1.00D-08 within 128 cycles.
 Requested convergence on MAX density matrix=1.00D-06.
 Requested convergence on             energy=1.00D-06.
 No special actions if energy rises.
 Integral accuracy reduced to 1.0D-05 until final iterations.
 Initial convergence to 1.0D-05 achieved.  Increase integral accuracy.
 SCF Done:  E(RB3LYP) =  -232.233110539     A.U. after   14 cycles
            NFock= 14  Conv=0.37D-08     -V/T= 2.0042

 **********************************************************************

            Population analysis using the SCF Density.

 **********************************************************************

 Orbital symmetries:
       Occupied  (A') (A') (A') (A') (A') (A') (A') (A') (A') (A')
                 (A') (A') (A') (A') (A') (A') (A') (A") (A") (A')
                 (A")
       Virtual   (A") (A') (A") (A') (A') (A') (A') (A') (A') (A')
                 (A") (A') (A") (A') (A') (A") (A') (A') (A") (A')
                 (A") (A') (A') (A") (A') (A') (A') (A') (A') (A')
                 (A') (A') (A") (A') (A') (A') (A') (A') (A') (A')
                 (A') (A') (A') (A") (A") (A') (A") (A") (A') (A")
                 (A') (A") (A') (A') (A') (A") (A') (A') (A') (A')
                 (A') (A") (A') (A") (A') (A') (A') (A") (A') (A')
                 (A") (A') (A') (A") (A") (A') (A') (A") (A") (A')
                 (A") (A") (A') (A") (A') (A') (A") (A') (A') (A")
                 (A') (A") (A') (A') (A') (A') (A') (A') (A") (A')
                 (A") (A') (A') (A') (A') (A') (A') (A') (A') (A")
                 (A') (A') (A') (A') (A') (A') (A') (A') (A') (A")
                 (A") (A") (A') (A") (A') (A') (A") (A") (A") (A')
                 (A') (A') (A") (A") (A') (A') (A") (A') (A") (A')
                 (A') (A') (A') (A") (A') (A') (A') (A") (A') (A")
                 (A') (A") (A") (A') (A") (A") (A') (A") (A') (A")
                 (A') (A') (A') (A") (A") (A') (A') (A") (A') (A")
                 (A') (A') (A") (A') (A') (A") (A') (A") (A") (A')
                 (A') (A") (A') (A') (A") (A") (A') (A") (A") (A')
                 (A') (A") (A") (A') (A') (A") (A') (A') (A") (A')
                 (A') (A") (A') (A") (A") (A') (A') (A') (A") (A')
                 (A') (A") (A') (A') (A") (A') (A') (A") (A') (A')
                 (A") (A') (A') (A") (A') (A') (A") (A') (A") (A')
                 (A') (A') (A') (A') (A') (A') (A') (A') (A') (A')
                 (A') (A') (A')
 The electronic state is 1-A'.
 Alpha  occ. eigenvalues --  -10.20348 -10.19432 -10.19278 -10.19176 -10.18993
 Alpha  occ. eigenvalues --  -10.18122  -0.82852  -0.79024  -0.73790  -0.66622
 Alpha  occ. eigenvalues --   -0.58187  -0.52613  -0.48799  -0.46292  -0.44916
 Alpha  occ. eigenvalues --   -0.42563  -0.37616  -0.36839  -0.31169  -0.27016
 Alpha  occ. eigenvalues --   -0.23074
 Alpha virt. eigenvalues --   -0.07997   0.00825   0.01563   0.02470   0.03344
 Alpha virt. eigenvalues --    0.03925   0.06140   0.08271   0.09507   0.11032
 Alpha virt. eigenvalues --    0.11797   0.14813   0.15411   0.15520   0.18272
 Alpha virt. eigenvalues --    0.18946   0.19043   0.22298   0.22761   0.24283
 Alpha virt. eigenvalues --    0.25419   0.27075   0.28259   0.29739   0.30559
 Alpha virt. eigenvalues --    0.30875   0.32460   0.33684   0.34173   0.34863
 Alpha virt. eigenvalues --    0.36415   0.37438   0.38764   0.40591   0.42769
 Alpha virt. eigenvalues --    0.45440   0.48246   0.50566   0.52207   0.54021
 Alpha virt. eigenvalues --    0.54242   0.56813   0.60927   0.65079   0.66629
 Alpha virt. eigenvalues --    0.68350   0.74669   0.76257   0.80008   0.83755
 Alpha virt. eigenvalues --    0.83954   0.86869   0.91123   0.94353   0.95674
 Alpha virt. eigenvalues --    0.95828   0.97755   1.00507   1.01190   1.04308
 Alpha virt. eigenvalues --    1.04447   1.05649   1.06275   1.09585   1.11093
 Alpha virt. eigenvalues --    1.11837   1.13781   1.16248   1.16601   1.17195
 Alpha virt. eigenvalues --    1.20123   1.21695   1.22654   1.23578   1.26607
 Alpha virt. eigenvalues --    1.28852   1.29986   1.30173   1.32413   1.34030
 Alpha virt. eigenvalues --    1.35645   1.37180   1.43528   1.46682   1.47823
 Alpha virt. eigenvalues --    1.50157   1.53284   1.53874   1.54675   1.56125
 Alpha virt. eigenvalues --    1.59322   1.61009   1.61143   1.65058   1.69819
 Alpha virt. eigenvalues --    1.71522   1.72002   1.75880   1.76866   1.77421
 Alpha virt. eigenvalues --    1.79039   1.83391   1.91488   1.93950   1.95446
 Alpha virt. eigenvalues --    2.01563   2.08270   2.10434   2.21700   2.24493
 Alpha virt. eigenvalues --    2.27251   2.34718   2.37756   2.39953   2.52550
 Alpha virt. eigenvalues --    2.56614   2.71306   2.84723   2.86548   2.87890
 Alpha virt. eigenvalues --    3.01819   3.05068   3.11451   3.15377   3.15543
 Alpha virt. eigenvalues --    3.19947   3.23671   3.24208   3.28239   3.30162
 Alpha virt. eigenvalues --    3.33958   3.36749   3.37370   3.41798   3.45971
 Alpha virt. eigenvalues --    3.47753   3.49380   3.49977   3.53389   3.54594
 Alpha virt. eigenvalues --    3.58776   3.60544   3.62496   3.63413   3.73065
 Alpha virt. eigenvalues --    3.77568   3.80130   3.84496   3.84938   3.87488
 Alpha virt. eigenvalues --    3.89414   3.90625   3.91165   3.93646   3.94478
 Alpha virt. eigenvalues --    3.96513   3.96602   3.98807   3.99210   4.05583
 Alpha virt. eigenvalues --    4.05837   4.07902   4.08981   4.10291   4.13063
 Alpha virt. eigenvalues --    4.15652   4.19623   4.19855   4.20017   4.21561
 Alpha virt. eigenvalues --    4.22521   4.24521   4.25585   4.25688   4.29000
 Alpha virt. eigenvalues --    4.29533   4.30397   4.33498   4.34327   4.34724
 Alpha virt. eigenvalues --    4.36255   4.40149   4.40697   4.41385   4.41948
 Alpha virt. eigenvalues --    4.43546   4.46668   4.48850   4.50113   4.52117
 Alpha virt. eigenvalues --    4.52525   4.53307   4.56523   4.56879   4.62093
 Alpha virt. eigenvalues --    4.63420   4.65438   4.67048   4.69615   4.75020
 Alpha virt. eigenvalues --    4.75559   4.79923   4.87692   4.90671   4.94138
 Alpha virt. eigenvalues --    4.95065   5.08675   5.09774   5.11308   5.16050
 Alpha virt. eigenvalues --    5.20100   5.22890   5.27756   5.33612   5.35029
 Alpha virt. eigenvalues --    5.37676   5.41084   5.45245   5.45540   5.51918
 Alpha virt. eigenvalues --    5.55032   5.56955   5.63320   5.63675   5.65583
 Alpha virt. eigenvalues --    5.67627   5.70184   5.75822   5.78052   5.79452
 Alpha virt. eigenvalues --    5.87171   5.91018   5.95828   5.98629   6.07136
 Alpha virt. eigenvalues --    6.15535   6.21829   6.33026   6.51314   6.75562
 Alpha virt. eigenvalues --    6.90952   7.72325   8.44809
          Condensed to atoms (all electrons):
               1          2          3          4          5          6
     1  C    4.808089   0.588530  -0.116389  -0.003999   0.000093   0.000007
     2  C    0.588530   4.892569   0.721589  -0.097268   0.006273  -0.002020
     3  C   -0.116389   0.721589   5.045639   0.565620  -0.061384  -0.001774
     4  C   -0.003999  -0.097268   0.565620   4.806484   0.374037  -0.069309
     5  C    0.000093   0.006273  -0.061384   0.374037   4.802661   0.594719
     6  C    0.000007  -0.002020  -0.001774  -0.069309   0.594719   4.761778
     7  H    0.433831  -0.051772  -0.006971   0.000692   0.000189  -0.000020
     8  H    0.431998  -0.057402   0.001214  -0.000150  -0.000123   0.000009
     9  H    0.000017  -0.008103  -0.056247   0.458153  -0.071810   0.005606
    10  H   -0.000009  -0.000499   0.000471  -0.005638  -0.052014   0.432749
    11  H    0.000005   0.000157  -0.000820   0.007893  -0.034189   0.426545
    12  H   -0.000449  -0.004044   0.002976  -0.048452   0.441654  -0.035931
               7          8          9         10         11         12
     1  C    0.433831   0.431998   0.000017  -0.000009   0.000005  -0.000449
     2  C   -0.051772  -0.057402  -0.008103  -0.000499   0.000157  -0.004044
     3  C   -0.006971   0.001214  -0.056247   0.000471  -0.000820   0.002976
     4  C    0.000692  -0.000150   0.458153  -0.005638   0.007893  -0.048452
     5  C    0.000189  -0.000123  -0.071810  -0.052014  -0.034189   0.441654
     6  C   -0.000020   0.000009   0.005606   0.432749   0.426545  -0.035931
     7  H    0.591145  -0.036255  -0.000153  -0.000001   0.000001  -0.000053
     8  H   -0.036255   0.590752   0.000296   0.000000  -0.000000   0.000007
     9  H   -0.000153   0.000296   0.622557   0.003462   0.000099   0.004177
    10  H   -0.000001   0.000000   0.003462   0.599722  -0.031082   0.006709
    11  H    0.000001  -0.000000   0.000099  -0.031082   0.585927  -0.008569
    12  H   -0.000053   0.000007   0.004177   0.006709  -0.008569   0.598919
 Mulliken charges:
               1
     1  C   -0.141723
     2  C    0.011991
     3  C   -0.093924
     4  C    0.011937
     5  C   -0.000107
     6  C   -0.112359
     7  H    0.069368
     8  H    0.069653
     9  H    0.041946
    10  H    0.046130
    11  H    0.054033
    12  H    0.043055
 Sum of Mulliken charges =  -0.00000
 Mulliken charges with hydrogens summed into heavy atoms:
               1
     1  C   -0.002702
     2  C    0.011991
     3  C   -0.093924
     4  C    0.053883
     5  C    0.042948
     6  C   -0.012196
 Electronic spatial extent (au):  <R**2>=            886.1327
 Charge=             -0.0000 electrons
 Dipole moment (field-independent basis, Debye):
    X=             -0.0504    Y=             -0.2539    Z=             -0.0000  Tot=              0.2588
 Quadrupole moment (field-independent basis, Debye-Ang):
   XX=            -32.3811   YY=            -31.0333   ZZ=            -40.3403
   XY=              2.1822   XZ=             -0.0000   YZ=             -0.0000
 Traceless Quadrupole moment (field-independent basis, Debye-Ang):
   XX=              2.2038   YY=              3.5516   ZZ=             -5.7554
   XY=              2.1822   XZ=             -0.0000   YZ=             -0.0000
 Octapole moment (field-independent basis, Debye-Ang**2):
  XXX=             -0.3272  YYY=              3.5132  ZZZ=             -0.0000  XYY=              5.5648
  XXY=              1.1067  XXZ=             -0.0000  XZZ=             -0.1434  YZZ=              0.0041
  YYZ=             -0.0000  XYZ=             -0.0000
 Hexadecapole moment (field-independent basis, Debye-Ang**3):
 XXXX=           -237.2283 YYYY=           -842.4320 ZZZZ=            -50.1952 XXXY=           -170.0701
 XXXZ=             -0.0000 YYYX=           -166.5286 YYYZ=             -0.0000 ZZZX=             -0.0000
 ZZZY=             -0.0000 XXYY=           -185.1755 XXZZ=            -58.8713 YYZZ=           -189.7716
 XXYZ=             -0.0000 YYXZ=             -0.0000 ZZXY=            -73.1840
 N-N= 1.761740628841D+02 E-N=-8.905231526597D+02  KE= 2.312625141642D+02
 Symmetry A'   KE= 2.247486534481D+02
 Symmetry A"   KE= 6.513860716100D+00
 Calling FoFJK, ICntrl=      2127 FMM=F ISym2X=1 I1Cent= 0 IOpClX= 0 NMat=1 NMatS=1 NMatT=0.
 ***** Axes restored to original set *****
 -------------------------------------------------------------------
 Center     Atomic                   Forces (Hartrees/Bohr)
 Number     Number              X              Y              Z
 -------------------------------------------------------------------
      1        6          -0.002064513   -0.000423923   -0.000000000
      2        6           0.001802129    0.000330009    0.000000000
      3        6          -0.001718884   -0.000310712   -0.000000000
      4        6           0.001478400    0.001292286    0.000000000
      5        6           0.000402946   -0.001041800   -0.000000000
      6        6          -0.000127504    0.000171411    0.000000000
      7        1           0.001132373    0.001890114    0.000000000
      8        1           0.001812935   -0.001250560   -0.000000000
      9        1          -0.001005716   -0.001943275   -0.000000000
     10        1          -0.000873259   -0.001877899   -0.000000000
     11        1          -0.001870975    0.001280100    0.000000000
     12        1           0.001032068    0.001884249    0.000000000
 -------------------------------------------------------------------
 Cartesian Forces:  Max     0.002064513 RMS     0.001112251

 GradGradGradGradGradGradGradGradGradGradGradGradGradGradGradGradGradGrad
 Berny optimization.
 FormGI is forming the generalized inverse of G from B-inverse, IUseBI=4.
 Internal  Forces:  Max     0.002893958 RMS     0.001121615
 Search for a local minimum.
 Step number   1 out of a maximum of   49
 All quantities printed in internal units (Hartrees-Bohrs-Radians)
 Mixed Optimization -- RFO/linear search
 Second derivative matrix not updated -- first step.
 ITU=  0
     Eigenvalues ---    0.00230   0.00230   0.00781   0.01424   0.02185
     Eigenvalues ---    0.02715   0.02894   0.02894   0.03082   0.03880
     Eigenvalues ---    0.03930   0.16000   0.16000   0.16000   0.16000
     Eigenvalues ---    0.16000   0.16000   0.22000   0.22000   0.34775
     Eigenvalues ---    0.35163   0.35263   0.35268   0.35290   0.35558
     Eigenvalues ---    0.38215   0.57399   0.60717   0.63125   0.79363
 RFO step:  Lambda=-1.22249478D-04 EMin= 2.30000000D-03
 Linear search not attempted -- first point.
 Iteration  1 RMS(Cart)=  0.00548891 RMS(Int)=  0.00000576
 Iteration  2 RMS(Cart)=  0.00000747 RMS(Int)=  0.00000000
 Iteration  3 RMS(Cart)=  0.00000000 RMS(Int)=  0.00000000
 ClnCor:  largest displacement from symmetrization is 3.87D-11 for atom     6.
 Variable       Old X    -DE/DX   Delta X   Delta X   Delta X     New X
                                 (Linear)    (Quad)   (Total)
    R1        2.48550  -0.00091   0.00000  -0.00144  -0.00144   2.48406
    R2        2.05242  -0.00216   0.00000  -0.00612  -0.00612   2.04630
    R3        2.05251  -0.00216   0.00000  -0.00611  -0.00611   2.04639
    R4        2.38261  -0.00274   0.00000  -0.00345  -0.00345   2.37916
    R5        2.50377  -0.00099   0.00000  -0.00163  -0.00163   2.50214
    R6        2.74054  -0.00133   0.00000  -0.00349  -0.00349   2.73705
    R7        2.06042  -0.00215   0.00000  -0.00618  -0.00618   2.05425
    R8        2.53060  -0.00289   0.00000  -0.00504  -0.00504   2.52556
    R9        2.05411  -0.00210   0.00000  -0.00598  -0.00598   2.04813
   R10        2.05206  -0.00206   0.00000  -0.00583  -0.00583   2.04623
   R11        2.04778  -0.00223   0.00000  -0.00626  -0.00626   2.04152
    A1        2.12160  -0.00029   0.00000  -0.00183  -0.00183   2.11977
    A2        2.12110  -0.00031   0.00000  -0.00197  -0.00197   2.11913
    A3        2.04049   0.00061   0.00000   0.00379   0.00379   2.04428
    A4        2.17332  -0.00023   0.00000  -0.00104  -0.00104   2.17228
    A5        2.07297  -0.00031   0.00000  -0.00214  -0.00214   2.07083
    A6        2.03689   0.00054   0.00000   0.00319   0.00319   2.04008
    A7        2.16074  -0.00043   0.00000  -0.00194  -0.00194   2.15880
    A8        2.02842   0.00066   0.00000   0.00378   0.00378   2.03220
    A9        2.09403  -0.00024   0.00000  -0.00184  -0.00184   2.09219
   A10        2.12105  -0.00003   0.00000  -0.00017  -0.00017   2.12088
   A11        2.12393  -0.00043   0.00000  -0.00265  -0.00265   2.12128
   A12        2.03820   0.00045   0.00000   0.00282   0.00282   2.04102
   A13        3.14134   0.00009   0.00000   0.00224   0.00224   3.14358
   A14        3.14563   0.00002   0.00000   0.00069   0.00069   3.14632
   A15        3.14159  -0.00000   0.00000  -0.00000   0.00000   3.14159
   A16        3.14159  -0.00000   0.00000  -0.00000   0.00000   3.14159
    D1       -0.00000   0.00000   0.00000   0.00000   0.00000   0.00000
    D2        3.14159  -0.00000   0.00000   0.00000   0.00000   3.14159
    D3        3.14159   0.00000   0.00000   0.00000   0.00000   3.14159
    D4        0.00000  -0.00000   0.00000  -0.00000   0.00000   0.00000
    D5        3.14159  -0.00000   0.00000   0.00000   0.00000   3.14159
    D6        0.00000  -0.00000   0.00000   0.00000  -0.00000   0.00000
    D7        0.00000  -0.00000   0.00000  -0.00000   0.00000   0.00000
    D8        3.14159   0.00000   0.00000   0.00000   0.00000   3.14159
    D9       -0.00000   0.00000   0.00000   0.00000   0.00000   0.00000
   D10        3.14159   0.00000   0.00000   0.00000   0.00000   3.14159
   D11        3.14159   0.00000   0.00000  -0.00000   0.00000   3.14159
   D12        0.00000  -0.00000   0.00000  -0.00000   0.00000   0.00000
         Item               Value     Threshold  Converged?
 Maximum Force            0.002894     0.000450     NO 
 RMS     Force            0.001122     0.000300     NO 
 Maximum Displacement     0.016565     0.001800     NO 
 RMS     Displacement     0.005488     0.001200     NO 
 Predicted change in Energy=-6.114647D-05
 GradGradGradGradGradGradGradGradGradGradGradGradGradGradGradGradGradGrad

                          Input orientation:                          
 ---------------------------------------------------------------------
 Center     Atomic      Atomic             Coordinates (Angstroms)
 Number     Number       Type             X           Y           Z
 ---------------------------------------------------------------------
      1          6           0       -3.137990   -0.258066   -0.000000
      2          6           0       -1.852150    0.014976   -0.000000
      3          6           0       -0.621135    0.278935   -0.000000
      4          6           0        0.672185    0.562655    0.000000
      5          6           0        1.728629   -0.428175    0.000000
      6          6           0        3.030077   -0.124228    0.000000
      7          1           0       -3.498843   -1.279028   -0.000000
      8          1           0       -3.882121    0.528668   -0.000000
      9          1           0        0.976858    1.606147    0.000000
     10          1           0        3.371368    0.903399    0.000000
     11          1           0        3.789783   -0.892309    0.000000
     12          1           0        1.416676   -1.466135   -0.000000
 ---------------------------------------------------------------------
                    Distance matrix (angstroms):
                    1          2          3          4          5
     1  C    0.000000
     2  C    1.314510   0.000000
     3  C    2.573505   1.258996   0.000000
     4  C    3.897565   2.583064   1.324074   0.000000
     5  C    4.869592   3.608097   2.453854   1.448385   0.000000
     6  C    6.169519   4.884211   3.673403   2.455904   1.336469
     7  H    1.082856   2.094289   3.272377   4.559525   5.296264
     8  H    1.082905   2.093959   3.270535   4.554433   5.691755
     9  H    4.517440   3.245784   2.077276   1.087061   2.168785
    10  H    6.612167   5.298532   4.041044   2.720606   2.114635
    11  H    6.956746   5.714418   4.563772   3.440399   2.112765
    12  H    4.712156   3.588720   2.682898   2.161078   1.083825
                    6          7          8          9         10
     6  C    0.000000
     7  H    6.630261   0.000000
     8  H    6.942964   1.847883   0.000000
     9  H    2.685127   5.325048   4.977011   0.000000
    10  H    1.082819   7.208522   7.263163   2.495503   0.000000
    11  H    1.080325   7.298878   7.802390   3.762291   1.843811
    12  H    2.098518   4.919078   5.661845   3.103604   3.071729
                   11         12
    11  H    0.000000
    12  H    2.441499   0.000000
 Stoichiometry    C6H6
 Framework group  CS[SG(C6H6)]
 Deg. of freedom    21
 Full point group                 CS      NOp   2
 Largest Abelian subgroup         CS      NOp   2
 Largest concise Abelian subgroup C1      NOp   1
                         Standard orientation:                         
 ---------------------------------------------------------------------
 Center     Atomic      Atomic             Coordinates (Angstroms)
 Number     Number       Type             X           Y           Z
 ---------------------------------------------------------------------
      1          6           0        1.510244    2.791523    0.000000
      2          6           0        0.739868    1.726413    0.000000
      3          6           0        0.000000    0.707754    0.000000
      4          6           0       -0.783168   -0.359870    0.000000
      5          6           0       -0.305048   -1.727065    0.000000
      6          6           0       -1.110001   -2.793930    0.000000
      7          1           0        2.589874    2.708005    0.000000
      8          1           0        1.092257    3.790508    0.000000
      9          1           0       -1.860647   -0.215861    0.000000
     10          1           0       -2.187804   -2.689826    0.000000
     11          1           0       -0.715378   -3.799601    0.000000
     12          1           0        0.770322   -1.862177    0.000000
 ---------------------------------------------------------------------
 Rotational constants (GHZ):          31.1169378           1.3590715           1.3021965
 Basis read from rwf:  (5D, 7F)
 There are   210 symmetry adapted cartesian basis functions of A'  symmetry.
 There are    90 symmetry adapted cartesian basis functions of A"  symmetry.
 There are   180 symmetry adapted basis functions of A'  symmetry.
 There are    84 symmetry adapted basis functions of A"  symmetry.
   264 basis functions,   414 primitive gaussians,   300 cartesian basis functions
    21 alpha electrons       21 beta electrons
       nuclear repulsion energy       176.4427990151 Hartrees.
 NAtoms=   12 NActive=   12 NUniq=   12 SFac= 1.00D+00 NAtFMM=   60 NAOKFM=F Big=F
 Integral buffers will be    131072 words long.
 Raffenetti 2 integral format.
 Two-electron integral symmetry is turned on.
 One-electron integrals computed using PRISM.
 NBasis=   264 RedAO= T EigKep=  4.69D-05  NBF=   180    84
 NBsUse=   264 1.00D-06 EigRej= -1.00D+00 NBFU=   180    84
 Initial guess from the checkpoint file:  "/wrk/irikura/Gau-24800.chk"
 B after Tr=    -0.000000   -0.000000    0.000000
         Rot=    1.000000   -0.000000   -0.000000   -0.000823 Ang=  -0.09 deg.
 Initial guess orbital symmetries:
       Occupied  (A') (A') (A') (A') (A') (A') (A') (A') (A') (A')
                 (A') (A') (A') (A') (A') (A') (A') (A") (A") (A')
                 (A")
       Virtual   (A") (A') (A") (A') (A') (A') (A') (A') (A') (A')
                 (A") (A') (A") (A') (A') (A") (A') (A') (A") (A')
                 (A") (A') (A') (A") (A') (A') (A') (A') (A') (A')
                 (A') (A') (A") (A') (A') (A') (A') (A') (A') (A')
                 (A') (A') (A') (A") (A") (A') (A") (A") (A') (A")
                 (A') (A") (A') (A') (A') (A") (A') (A') (A') (A')
                 (A') (A") (A') (A") (A') (A') (A') (A") (A') (A')
                 (A") (A') (A') (A") (A") (A') (A') (A") (A") (A')
                 (A") (A") (A') (A") (A') (A') (A") (A') (A') (A")
                 (A') (A") (A') (A') (A') (A') (A') (A') (A") (A')
                 (A") (A') (A') (A') (A') (A') (A') (A') (A') (A")
                 (A') (A') (A') (A') (A') (A') (A') (A') (A') (A")
                 (A") (A") (A') (A") (A') (A') (A") (A") (A") (A')
                 (A') (A') (A") (A") (A') (A') (A") (A') (A") (A')
                 (A') (A') (A') (A") (A') (A') (A') (A") (A') (A")
                 (A') (A") (A") (A') (A") (A") (A') (A") (A') (A")
                 (A') (A') (A') (A") (A") (A') (A') (A") (A') (A")
                 (A') (A') (A") (A') (A') (A") (A') (A") (A") (A')
                 (A') (A") (A') (A') (A") (A") (A') (A") (A") (A')
                 (A') (A") (A") (A') (A') (A") (A') (A') (A") (A')
                 (A') (A") (A') (A") (A") (A') (A') (A') (A") (A')
                 (A') (A") (A') (A') (A") (A') (A') (A") (A') (A')
                 (A") (A') (A') (A") (A') (A') (A") (A') (A") (A')
                 (A') (A') (A') (A') (A') (A') (A') (A') (A') (A')
                 (A') (A') (A')
 Keep R1 ints in memory in symmetry-blocked form, NReq=923427879.
 Requested convergence on RMS density matrix=1.00D-08 within 128 cycles.
 Requested convergence on MAX density matrix=1.00D-06.
 Requested convergence on             energy=1.00D-06.
 No special actions if energy rises.
 SCF Done:  E(RB3LYP) =  -232.233170681     A.U. after    9 cycles
            NFock=  9  Conv=0.51D-08     -V/T= 2.0040
 Calling FoFJK, ICntrl=      2127 FMM=F ISym2X=1 I1Cent= 0 IOpClX= 0 NMat=1 NMatS=1 NMatT=0.
 ***** Axes restored to original set *****
 -------------------------------------------------------------------
 Center     Atomic                   Forces (Hartrees/Bohr)
 Number     Number              X              Y              Z
 -------------------------------------------------------------------
      1        6          -0.000710615   -0.000237858   -0.000000000
      2        6           0.000335603    0.000155807    0.000000000
      3        6          -0.000374784    0.000012735   -0.000000000
      4        6           0.000495726    0.000054569    0.000000000
      5        6          -0.000550186   -0.000157615   -0.000000000
      6        6           0.000603550    0.000210691    0.000000000
      7        1           0.000159762   -0.000039741    0.000000000
      8        1           0.000151528    0.000118078    0.000000000
      9        1          -0.000102621   -0.000019859   -0.000000000
     10        1          -0.000042845    0.000008025   -0.000000000
     11        1          -0.000014133   -0.000106156   -0.000000000
     12        1           0.000049017    0.000001325    0.000000000
 -------------------------------------------------------------------
 Cartesian Forces:  Max     0.000710615 RMS     0.000230622

 GradGradGradGradGradGradGradGradGradGradGradGradGradGradGradGradGradGrad
 Berny optimization.
 Using GEDIIS/GDIIS optimizer.
 FormGI is forming the generalized inverse of G from B-inverse, IUseBI=4.
 Internal  Forces:  Max     0.000557750 RMS     0.000147356
 Search for a local minimum.
 Step number   2 out of a maximum of   49
 All quantities printed in internal units (Hartrees-Bohrs-Radians)
 Mixed Optimization -- En-DIIS/RFO-DIIS
 Update second derivatives using D2CorX and points    1    2
 DE= -6.01D-05 DEPred=-6.11D-05 R= 9.84D-01
 TightC=F SS=  1.41D+00  RLast= 1.89D-02 DXNew= 5.0454D-01 5.6560D-02
 Trust test= 9.84D-01 RLast= 1.89D-02 DXMaxT set to 3.00D-01
 ITU=  1  0
 Use linear search instead of GDIIS.
     Eigenvalues ---    0.00230   0.00230   0.00783   0.01424   0.02183
     Eigenvalues ---    0.02717   0.02894   0.02894   0.03084   0.03880
     Eigenvalues ---    0.03946   0.15218   0.16000   0.16000   0.16000
     Eigenvalues ---    0.16000   0.16031   0.21999   0.22063   0.34193
     Eigenvalues ---    0.34989   0.35197   0.35265   0.35285   0.35663
     Eigenvalues ---    0.38297   0.58936   0.61697   0.65065   0.79780
 RFO step:  Lambda=-2.56244771D-06 EMin= 2.30000000D-03
 Quartic linear search produced a step of -0.01803.
 Iteration  1 RMS(Cart)=  0.00391827 RMS(Int)=  0.00000581
 Iteration  2 RMS(Cart)=  0.00001034 RMS(Int)=  0.00000000
 Iteration  3 RMS(Cart)=  0.00000000 RMS(Int)=  0.00000000
 ClnCor:  largest displacement from symmetrization is 2.59D-14 for atom     7.
 Variable       Old X    -DE/DX   Delta X   Delta X   Delta X     New X
                                 (Linear)    (Quad)   (Total)
    R1        2.48406   0.00042   0.00003   0.00060   0.00063   2.48469
    R2        2.04630  -0.00002   0.00011  -0.00028  -0.00017   2.04613
    R3        2.04639  -0.00002   0.00011  -0.00029  -0.00018   2.04621
    R4        2.37916   0.00006   0.00006  -0.00006   0.00001   2.37916
    R5        2.50214   0.00043   0.00003   0.00063   0.00066   2.50279
    R6        2.73705   0.00006   0.00006   0.00003   0.00009   2.73714
    R7        2.05425  -0.00005   0.00011  -0.00038  -0.00027   2.05398
    R8        2.52556   0.00056   0.00009   0.00076   0.00085   2.52641
    R9        2.04813  -0.00002   0.00011  -0.00028  -0.00017   2.04796
   R10        2.04623  -0.00001   0.00011  -0.00024  -0.00014   2.04609
   R11        2.04152   0.00007   0.00011  -0.00006   0.00005   2.04157
    A1        2.11977  -0.00009   0.00003  -0.00064  -0.00061   2.11916
    A2        2.11913  -0.00015   0.00004  -0.00099  -0.00096   2.11818
    A3        2.04428   0.00024  -0.00007   0.00164   0.00157   2.04584
    A4        2.17228   0.00004   0.00002   0.00015   0.00017   2.17245
    A5        2.07083  -0.00012   0.00004  -0.00076  -0.00073   2.07010
    A6        2.04008   0.00007  -0.00006   0.00062   0.00056   2.04064
    A7        2.15880   0.00005   0.00003   0.00015   0.00018   2.15898
    A8        2.03220   0.00002  -0.00007   0.00033   0.00026   2.03246
    A9        2.09219  -0.00007   0.00003  -0.00048  -0.00044   2.09174
   A10        2.12088  -0.00000   0.00000  -0.00001  -0.00001   2.12087
   A11        2.12128  -0.00009   0.00005  -0.00063  -0.00058   2.12070
   A12        2.04102   0.00009  -0.00005   0.00065   0.00059   2.04162
   A13        3.14358  -0.00012  -0.00004  -0.00301  -0.00305   3.14054
   A14        3.14632  -0.00010  -0.00001  -0.00314  -0.00315   3.14317
   A15        3.14159   0.00000   0.00000  -0.00000   0.00000   3.14159
   A16        3.14159   0.00000   0.00000   0.00000   0.00000   3.14159
    D1       -0.00000  -0.00000   0.00000   0.00000   0.00000   0.00000
    D2        3.14159   0.00000   0.00000   0.00000   0.00000   3.14159
    D3        3.14159  -0.00000   0.00000   0.00000   0.00000   3.14159
    D4       -0.00000   0.00000   0.00000   0.00000   0.00000   0.00000
    D5        3.14159   0.00000   0.00000   0.00000   0.00000   3.14159
    D6       -0.00000  -0.00000   0.00000   0.00000   0.00000   0.00000
    D7       -0.00000   0.00000   0.00000   0.00000   0.00000   0.00000
    D8        3.14159   0.00000   0.00000   0.00000   0.00000   3.14159
    D9        0.00000   0.00000   0.00000   0.00000  -0.00000   0.00000
   D10        3.14159  -0.00000   0.00000  -0.00000   0.00000   3.14159
   D11        3.14159   0.00000   0.00000   0.00000   0.00000   3.14159
   D12        0.00000   0.00000   0.00000   0.00000  -0.00000   0.00000
         Item               Value     Threshold  Converged?
 Maximum Force            0.000558     0.000450     NO 
 RMS     Force            0.000147     0.000300     YES
 Maximum Displacement     0.010500     0.001800     NO 
 RMS     Displacement     0.003921     0.001200     NO 
 Predicted change in Energy=-1.301171D-06
 GradGradGradGradGradGradGradGradGradGradGradGradGradGradGradGradGradGrad

                          Input orientation:                          
 ---------------------------------------------------------------------
 Center     Atomic      Atomic             Coordinates (Angstroms)
 Number     Number       Type             X           Y           Z
 ---------------------------------------------------------------------
      1          6           0       -3.137391   -0.259683   -0.000000
      2          6           0       -1.852388    0.018846   -0.000000
      3          6           0       -0.621679    0.284243    0.000000
      4          6           0        0.672539    0.565472    0.000000
      5          6           0        1.727219   -0.427306    0.000000
      6          6           0        3.029709   -0.125858    0.000000
      7          1           0       -3.493286   -1.282286   -0.000000
      8          1           0       -3.884014    0.524557   -0.000000
      9          1           0        0.978484    1.608446    0.000000
     10          1           0        3.373019    0.901018    0.000000
     11          1           0        3.787447   -0.895917    0.000000
     12          1           0        1.413679   -1.464694   -0.000000
 ---------------------------------------------------------------------
                    Distance matrix (angstroms):
                    1          2          3          4          5
     1  C    0.000000
     2  C    1.314843   0.000000
     3  C    2.573842   1.258999   0.000000
     4  C    3.898263   2.583419   1.324421   0.000000
     5  C    4.867497   3.607303   2.454307   1.448433   0.000000
     6  C    6.168552   4.884240   3.674345   2.456458   1.336918
     7  H    1.082765   2.094157   3.271107   4.557227   5.290053
     8  H    1.082810   2.093621   3.271174   4.556737   5.691395
     9  H    4.519993   3.246639   2.077025   1.086921   2.169076
    10  H    6.613068   5.299349   4.042032   2.721246   2.114971
    11  H    6.954005   5.713539   4.564337   3.440684   2.112850
    12  H    4.707897   3.587210   2.683554   2.161218   1.083735
                    6          7          8          9         10
     6  C    0.000000
     7  H    6.624710   0.000000
     8  H    6.944249   1.848608   0.000000
     9  H    2.686137   5.324759   4.981837   0.000000
    10  H    1.082746   7.205065   7.266790   2.496848   0.000000
    11  H    1.080351   7.290978   7.801862   3.763258   1.844106
    12  H    2.098579   4.910354   5.658857   3.103802   3.071744
                   11         12
    11  H    0.000000
    12  H    2.440960   0.000000
 Stoichiometry    C6H6
 Framework group  CS[SG(C6H6)]
 Deg. of freedom    21
 Full point group                 CS      NOp   2
 Largest Abelian subgroup         CS      NOp   2
 Largest concise Abelian subgroup C1      NOp   1
                         Standard orientation:                         
 ---------------------------------------------------------------------
 Center     Atomic      Atomic             Coordinates (Angstroms)
 Number     Number       Type             X           Y           Z
 ---------------------------------------------------------------------
      1          6           0        1.526827    2.781839   -0.000000
      2          6           0        0.746302    1.723730   -0.000000
      3          6           0        0.000000    0.709772    0.000000
      4          6           0       -0.786764   -0.355636    0.000000
      5          6           0       -0.313207   -1.724468    0.000000
      6          6           0       -1.121803   -2.789139    0.000000
      7          1           0        2.605479    2.687554   -0.000000
      8          1           0        1.117299    3.784218   -0.000000
      9          1           0       -1.863534   -0.207440    0.000000
     10          1           0       -2.199197   -2.681623    0.000000
     11          1           0       -0.729765   -3.795849    0.000000
     12          1           0        0.761580   -1.863448   -0.000000
 ---------------------------------------------------------------------
 Rotational constants (GHZ):          30.9435798           1.3595917           1.3023686
 Basis read from rwf:  (5D, 7F)
 There are   210 symmetry adapted cartesian basis functions of A'  symmetry.
 There are    90 symmetry adapted cartesian basis functions of A"  symmetry.
 There are   180 symmetry adapted basis functions of A'  symmetry.
 There are    84 symmetry adapted basis functions of A"  symmetry.
   264 basis functions,   414 primitive gaussians,   300 cartesian basis functions
    21 alpha electrons       21 beta electrons
       nuclear repulsion energy       176.4274584531 Hartrees.
 NAtoms=   12 NActive=   12 NUniq=   12 SFac= 1.00D+00 NAtFMM=   60 NAOKFM=F Big=F
 Integral buffers will be    131072 words long.
 Raffenetti 2 integral format.
 Two-electron integral symmetry is turned on.
 One-electron integrals computed using PRISM.
 NBasis=   264 RedAO= T EigKep=  4.70D-05  NBF=   180    84
 NBsUse=   264 1.00D-06 EigRej= -1.00D+00 NBFU=   180    84
 Initial guess from the checkpoint file:  "/wrk/irikura/Gau-24800.chk"
 B after Tr=     0.000000    0.000000   -0.000000
         Rot=    0.999997   -0.000000    0.000000    0.002495 Ang=   0.29 deg.
 Initial guess orbital symmetries:
       Occupied  (A') (A') (A') (A') (A') (A') (A') (A') (A') (A')
                 (A') (A') (A') (A') (A') (A') (A') (A") (A") (A')
                 (A")
       Virtual   (A") (A') (A") (A') (A') (A') (A') (A') (A') (A')
                 (A") (A') (A") (A') (A') (A") (A') (A') (A") (A')
                 (A") (A') (A') (A") (A') (A') (A') (A') (A') (A')
                 (A') (A') (A") (A') (A') (A') (A') (A') (A') (A')
                 (A') (A') (A') (A") (A") (A') (A") (A") (A') (A")
                 (A') (A") (A') (A') (A') (A") (A') (A') (A') (A')
                 (A') (A") (A') (A") (A') (A') (A') (A") (A') (A')
                 (A") (A') (A') (A") (A") (A') (A') (A") (A") (A')
                 (A") (A") (A') (A") (A') (A') (A") (A') (A') (A")
                 (A') (A") (A') (A') (A') (A') (A') (A') (A") (A')
                 (A") (A') (A') (A') (A') (A') (A') (A') (A') (A")
                 (A') (A') (A') (A') (A') (A') (A') (A') (A') (A")
                 (A") (A") (A') (A") (A') (A') (A") (A") (A") (A')
                 (A') (A') (A") (A") (A') (A') (A") (A') (A") (A')
                 (A') (A') (A') (A") (A') (A') (A') (A") (A') (A")
                 (A') (A") (A") (A') (A") (A') (A") (A") (A') (A")
                 (A') (A') (A') (A") (A") (A') (A') (A") (A') (A")
                 (A') (A') (A") (A') (A') (A") (A') (A") (A") (A')
                 (A') (A") (A') (A') (A") (A") (A') (A") (A") (A')
                 (A') (A") (A") (A') (A') (A") (A') (A') (A") (A')
                 (A') (A") (A') (A") (A") (A') (A') (A') (A") (A')
                 (A') (A") (A') (A') (A") (A') (A') (A") (A') (A')
                 (A") (A') (A') (A") (A') (A') (A") (A') (A") (A')
                 (A') (A') (A') (A') (A') (A') (A') (A') (A') (A')
                 (A') (A') (A')
 Keep R1 ints in memory in symmetry-blocked form, NReq=923427879.
 Requested convergence on RMS density matrix=1.00D-08 within 128 cycles.
 Requested convergence on MAX density matrix=1.00D-06.
 Requested convergence on             energy=1.00D-06.
 No special actions if energy rises.
 SCF Done:  E(RB3LYP) =  -232.233171485     A.U. after    8 cycles
            NFock=  8  Conv=0.50D-08     -V/T= 2.0040
 Calling FoFJK, ICntrl=      2127 FMM=F ISym2X=1 I1Cent= 0 IOpClX= 0 NMat=1 NMatS=1 NMatT=0.
 ***** Axes restored to original set *****
 -------------------------------------------------------------------
 Center     Atomic                   Forces (Hartrees/Bohr)
 Number     Number              X              Y              Z
 -------------------------------------------------------------------
      1        6          -0.000233179    0.000086964   -0.000000000
      2        6           0.000131057   -0.000103331   -0.000000000
      3        6          -0.000039155   -0.000139572   -0.000000000
      4        6           0.000112965    0.000078944    0.000000000
      5        6          -0.000161290    0.000029406   -0.000000000
      6        6           0.000097222    0.000054795    0.000000000
      7        1           0.000080828   -0.000045643   -0.000000000
      8        1           0.000016545    0.000060443    0.000000000
      9        1           0.000006189    0.000041088    0.000000000
     10        1          -0.000011430    0.000033691    0.000000000
     11        1          -0.000000781   -0.000057230   -0.000000000
     12        1           0.000001029   -0.000039555   -0.000000000
 -------------------------------------------------------------------
 Cartesian Forces:  Max     0.000233179 RMS     0.000072554

 GradGradGradGradGradGradGradGradGradGradGradGradGradGradGradGradGradGrad
 Berny optimization.
 Using GEDIIS/GDIIS optimizer.
 FormGI is forming the generalized inverse of G from B-inverse, IUseBI=4.
 Internal  Forces:  Max     0.000243865 RMS     0.000068319
 Search for a local minimum.
 Step number   3 out of a maximum of   49
 All quantities printed in internal units (Hartrees-Bohrs-Radians)
 Mixed Optimization -- En-DIIS/RFO-DIIS
 Swapping is turned off.
 Update second derivatives using D2CorX and points    1    2    3
 DE= -8.04D-07 DEPred=-1.30D-06 R= 6.18D-01
 TightC=F SS=  1.41D+00  RLast= 5.15D-03 DXNew= 5.0454D-01 1.5456D-02
 Trust test= 6.18D-01 RLast= 5.15D-03 DXMaxT set to 3.00D-01
 ITU=  1  1  0
     Eigenvalues ---    0.00230   0.00230   0.00783   0.01424   0.02182
     Eigenvalues ---    0.02716   0.02894   0.02894   0.03429   0.03879
     Eigenvalues ---    0.07546   0.11203   0.16000   0.16000   0.16000
     Eigenvalues ---    0.16011   0.16415   0.21999   0.22427   0.34527
     Eigenvalues ---    0.34993   0.35197   0.35276   0.35294   0.35784
     Eigenvalues ---    0.38583   0.54672   0.59294   0.62247   0.79700
 En-DIIS/RFO-DIIS/Sim-DIIS IScMMF=       -3 using points:     3    2
 RFO step:  Lambda=-1.90015636D-06.
 DidBck=T Rises=F RFO-DIIS coefs:    0.51905    0.48095
 Iteration  1 RMS(Cart)=  0.00401680 RMS(Int)=  0.00000554
 Iteration  2 RMS(Cart)=  0.00000990 RMS(Int)=  0.00000000
 Iteration  3 RMS(Cart)=  0.00000000 RMS(Int)=  0.00000000
 ClnCor:  largest displacement from symmetrization is 2.73D-11 for atom     6.
 Variable       Old X    -DE/DX   Delta X   Delta X   Delta X     New X
                                 (Linear)    (Quad)   (Total)
    R1        2.48469   0.00011  -0.00030   0.00080   0.00050   2.48519
    R2        2.04613   0.00002   0.00008  -0.00023  -0.00015   2.04598
    R3        2.04621   0.00003   0.00009  -0.00021  -0.00012   2.04609
    R4        2.37916   0.00000  -0.00000  -0.00003  -0.00003   2.37913
    R5        2.50279   0.00007  -0.00032   0.00079   0.00047   2.50327
    R6        2.73714  -0.00007  -0.00004  -0.00007  -0.00011   2.73703
    R7        2.05398   0.00004   0.00013  -0.00028  -0.00016   2.05383
    R8        2.52641   0.00009  -0.00041   0.00099   0.00058   2.52699
    R9        2.04796   0.00004   0.00008  -0.00018  -0.00010   2.04786
   R10        2.04609   0.00003   0.00007  -0.00017  -0.00010   2.04599
   R11        2.04157   0.00004  -0.00002   0.00006   0.00004   2.04160
    A1        2.11916  -0.00009   0.00029  -0.00108  -0.00078   2.11838
    A2        2.11818  -0.00001   0.00046  -0.00113  -0.00067   2.11751
    A3        2.04584   0.00010  -0.00075   0.00221   0.00145   2.04730
    A4        2.17245  -0.00005  -0.00008  -0.00000  -0.00008   2.17237
    A5        2.07010   0.00002   0.00035  -0.00076  -0.00042   2.06969
    A6        2.04064   0.00003  -0.00027   0.00077   0.00050   2.04113
    A7        2.15898  -0.00000  -0.00009   0.00018   0.00009   2.15907
    A8        2.03246   0.00001  -0.00013   0.00039   0.00026   2.03272
    A9        2.09174  -0.00001   0.00021  -0.00057  -0.00035   2.09139
   A10        2.12087  -0.00000   0.00000  -0.00002  -0.00001   2.12086
   A11        2.12070  -0.00004   0.00028  -0.00086  -0.00058   2.12012
   A12        2.04162   0.00004  -0.00029   0.00088   0.00059   2.04221
   A13        3.14054   0.00024   0.00146   0.00101   0.00248   3.14301
   A14        3.14317   0.00024   0.00152   0.00208   0.00360   3.14677
   A15        3.14159  -0.00000   0.00000   0.00000   0.00000   3.14159
   A16        3.14159  -0.00000   0.00000   0.00000   0.00000   3.14159
    D1        0.00000  -0.00000   0.00000  -0.00000   0.00000   0.00000
    D2        3.14159  -0.00000   0.00000  -0.00000   0.00000   3.14159
    D3        3.14159   0.00000   0.00000   0.00000   0.00000   3.14159
    D4       -0.00000   0.00000   0.00000   0.00000   0.00000   0.00000
    D5        3.14159  -0.00000   0.00000   0.00000   0.00000   3.14159
    D6       -0.00000  -0.00000   0.00000   0.00000   0.00000   0.00000
    D7       -0.00000  -0.00000   0.00000   0.00000   0.00000   0.00000
    D8        3.14159   0.00000   0.00000  -0.00000   0.00000   3.14159
    D9        0.00000  -0.00000   0.00000   0.00000   0.00000   0.00000
   D10        3.14159   0.00000   0.00000  -0.00000   0.00000   3.14159
   D11        3.14159  -0.00000   0.00000   0.00000   0.00000   3.14159
   D12       -0.00000  -0.00000   0.00000  -0.00000   0.00000   0.00000
         Item               Value     Threshold  Converged?
 Maximum Force            0.000244     0.000450     YES
 RMS     Force            0.000068     0.000300     YES
 Maximum Displacement     0.010452     0.001800     NO 
 RMS     Displacement     0.004016     0.001200     NO 
 Predicted change in Energy=-9.500928D-07
 GradGradGradGradGradGradGradGradGradGradGradGradGradGradGradGradGradGrad

                          Input orientation:                          
 ---------------------------------------------------------------------
 Center     Atomic      Atomic             Coordinates (Angstroms)
 Number     Number       Type             X           Y           Z
 ---------------------------------------------------------------------
      1          6           0       -3.139147   -0.258188   -0.000000
      2          6           0       -1.852775    0.015222   -0.000000
      3          6           0       -0.621675    0.278712   -0.000000
      4          6           0        0.672207    0.562650    0.000000
      5          6           0        1.728797   -0.428008    0.000000
      6          6           0        3.031015   -0.124045    0.000000
      7          1           0       -3.498326   -1.279560   -0.000000
      8          1           0       -3.882037    0.529500   -0.000000
      9          1           0        0.975555    1.606296    0.000000
     10          1           0        3.372364    0.903430    0.000000
     11          1           0        3.789771   -0.893128    0.000000
     12          1           0        1.417589   -1.466043   -0.000000
 ---------------------------------------------------------------------
                    Distance matrix (angstroms):
                    1          2          3          4          5
     1  C    0.000000
     2  C    1.315106   0.000000
     3  C    2.574087   1.258982   0.000000
     4  C    3.898743   2.583644   1.324671   0.000000
     5  C    4.870905   3.608894   2.454419   1.448373   0.000000
     6  C    6.171620   4.885776   3.674828   2.456730   1.337223
     7  H    1.082686   2.093871   3.271594   4.559285   5.296032
     8  H    1.082746   2.093415   3.269993   4.554365   5.691949
     9  H    4.517419   3.245146   2.076926   1.086838   2.169278
    10  H    6.614312   5.300094   4.042601   2.721576   2.115193
    11  H    6.957948   5.715192   4.564435   3.440710   2.112806
    12  H    4.714102   3.590185   2.683797   2.161293   1.083682
                    6          7          8          9         10
     6  C    0.000000
     7  H    6.630800   0.000000
     8  H    6.943876   1.849306   0.000000
     9  H    2.686818   5.323887   4.975510   0.000000
    10  H    1.082692   7.209148   7.264032   2.497741   0.000000
    11  H    1.080370   7.298334   7.802596   3.763898   1.844410
    12  H    2.098596   4.919450   5.662882   3.103974   3.071733
                   11         12
[...]
      5        6           0.000008511    0.000021600    0.000000000
      6        6          -0.000007579   -0.000010047   -0.000000000
      7        1           0.000002650   -0.000002765   -0.000000000
      8        1           0.000001249    0.000002849    0.000000000
      9        1           0.000002933    0.000006463    0.000000000
     10        1          -0.000000653    0.000002290    0.000000000
     11        1           0.000000607    0.000000721    0.000000000
     12        1          -0.000002404   -0.000004478   -0.000000000
 -------------------------------------------------------------------
 Cartesian Forces:  Max     0.000021600 RMS     0.000006165
 FormGI is forming the generalized inverse of G from B-inverse, IUseBI=4.

 GradGradGradGradGradGradGradGradGradGradGradGradGradGradGradGradGradGrad
 Berny optimization.
 Internal  Forces:  Max     0.000009123 RMS     0.000003452
 Search for a local minimum.
 Step number   1 out of a maximum of    2
 All quantities printed in internal units (Hartrees-Bohrs-Radians)
 Second derivative matrix not updated -- analytic derivatives used.
 ITU=  0
     Eigenvalues ---    0.00803   0.01607   0.01858   0.02517   0.02618
     Eigenvalues ---    0.03004   0.03809   0.03959   0.04609   0.05602
     Eigenvalues ---    0.09483   0.10060   0.10450   0.10929   0.11296
     Eigenvalues ---    0.12067   0.13237   0.14984   0.18174   0.33540
     Eigenvalues ---    0.34539   0.35227   0.35427   0.35679   0.35703
     Eigenvalues ---    0.36255   0.58184   0.59865   0.63045   0.80690
 Angle between quadratic step and forces=  33.44 degrees.
 Linear search not attempted -- first point.
 Iteration  1 RMS(Cart)=  0.00001770 RMS(Int)=  0.00000000
 Iteration  2 RMS(Cart)=  0.00000000 RMS(Int)=  0.00000000
 ClnCor:  largest displacement from symmetrization is 5.52D-15 for atom     7.
 Variable       Old X    -DE/DX   Delta X   Delta X   Delta X     New X
                                 (Linear)    (Quad)   (Total)
    R1        2.48495  -0.00001   0.00000  -0.00001  -0.00001   2.48494
    R2        2.04615   0.00000   0.00000   0.00000   0.00000   2.04615
    R3        2.04626   0.00000   0.00000   0.00000   0.00000   2.04626
    R4        2.37914   0.00000   0.00000   0.00000   0.00000   2.37914
    R5        2.50299  -0.00001   0.00000  -0.00002  -0.00002   2.50297
    R6        2.73689  -0.00001   0.00000  -0.00002  -0.00002   2.73687
    R7        2.05406   0.00001   0.00000   0.00002   0.00002   2.05409
    R8        2.52663  -0.00001   0.00000  -0.00002  -0.00002   2.52662
    R9        2.04805   0.00001   0.00000   0.00002   0.00002   2.04807
   R10        2.04615   0.00000   0.00000   0.00001   0.00001   2.04615
   R11        2.04167   0.00000   0.00000  -0.00000  -0.00000   2.04167
    A1        2.11862  -0.00000   0.00000  -0.00002  -0.00002   2.11859
    A2        2.11774  -0.00000   0.00000  -0.00002  -0.00002   2.11773
    A3        2.04683   0.00000   0.00000   0.00004   0.00004   2.04687
    A4        2.17233   0.00000   0.00000   0.00002   0.00002   2.17235
    A5        2.06991   0.00000   0.00000  -0.00000  -0.00000   2.06991
    A6        2.04094  -0.00000   0.00000  -0.00001  -0.00001   2.04093
    A7        2.15902   0.00001   0.00000   0.00005   0.00005   2.15907
    A8        2.03260  -0.00000   0.00000  -0.00003  -0.00003   2.03257
    A9        2.09156  -0.00000   0.00000  -0.00001  -0.00001   2.09155
   A10        2.12084  -0.00000   0.00000  -0.00001  -0.00001   2.12083
   A11        2.12031   0.00000   0.00000   0.00001   0.00001   2.12033
   A12        2.04203   0.00000   0.00000   0.00000   0.00000   2.04203
   A13        3.14247   0.00000   0.00000  -0.00001  -0.00001   3.14246
   A14        3.14561   0.00000   0.00000   0.00003   0.00003   3.14564
   A15        3.14159  -0.00000   0.00000   0.00000   0.00000   3.14159
   A16        3.14159  -0.00000   0.00000   0.00000   0.00000   3.14159
    D1        0.00000   0.00000   0.00000  -0.00000  -0.00000   0.00000
    D2        3.14159  -0.00000   0.00000  -0.00000   0.00000   3.14159
    D3        3.14159   0.00000   0.00000  -0.00000   0.00000   3.14159
    D4       -0.00000  -0.00000   0.00000  -0.00000   0.00000   0.00000
    D5        3.14159  -0.00000   0.00000   0.00000   0.00000   3.14159
    D6        0.00000  -0.00000   0.00000   0.00000   0.00000   0.00000
    D7        0.00000  -0.00000   0.00000   0.00000   0.00000   0.00000
    D8        3.14159  -0.00000   0.00000   0.00000   0.00000   3.14159
    D9       -0.00000  -0.00000   0.00000   0.00000   0.00000   0.00000
   D10        3.14159   0.00000   0.00000   0.00000   0.00000   3.14159
   D11        3.14159  -0.00000   0.00000   0.00000   0.00000   3.14159
   D12        0.00000  -0.00000   0.00000   0.00000  -0.00000   0.00000
         Item               Value     Threshold  Converged?
 Maximum Force            0.000009     0.000450     YES
 RMS     Force            0.000003     0.000300     YES
 Maximum Displacement     0.000049     0.001800     YES
 RMS     Displacement     0.000018     0.001200     YES
 Predicted change in Energy=-8.579737D-10
 Optimization completed.
    -- Stationary point found.
                           ----------------------------
                           !   Optimized Parameters   !
                           ! (Angstroms and Degrees)  !
 --------------------------                            --------------------------
 ! Name  Definition              Value          Derivative Info.                !
 --------------------------------------------------------------------------------
 ! R1    R(1,2)                  1.315          -DE/DX =    0.0                 !
 ! R2    R(1,7)                  1.0828         -DE/DX =    0.0                 !
 ! R3    R(1,8)                  1.0828         -DE/DX =    0.0                 !
 ! R4    R(2,3)                  1.259          -DE/DX =    0.0                 !
 ! R5    R(3,4)                  1.3245         -DE/DX =    0.0                 !
 ! R6    R(4,5)                  1.4483         -DE/DX =    0.0                 !
 ! R7    R(4,9)                  1.087          -DE/DX =    0.0                 !
 ! R8    R(5,6)                  1.337          -DE/DX =    0.0                 !
 ! R9    R(5,12)                 1.0838         -DE/DX =    0.0                 !
 ! R10   R(6,10)                 1.0828         -DE/DX =    0.0                 !
 ! R11   R(6,11)                 1.0804         -DE/DX =    0.0                 !
 ! A1    A(2,1,7)              121.3877         -DE/DX =    0.0                 !
 ! A2    A(2,1,8)              121.3378         -DE/DX =    0.0                 !
 ! A3    A(7,1,8)              117.2745         -DE/DX =    0.0                 !
 ! A4    A(3,4,5)              124.4656         -DE/DX =    0.0                 !
 ! A5    A(3,4,9)              118.597          -DE/DX =    0.0                 !
 ! A6    A(5,4,9)              116.9374         -DE/DX =    0.0                 !
 ! A7    A(4,5,6)              123.703          -DE/DX =    0.0                 !
 ! A8    A(4,5,12)             116.4593         -DE/DX =    0.0                 !
 ! A9    A(6,5,12)             119.8377         -DE/DX =    0.0                 !
 ! A10   A(5,6,10)             121.5153         -DE/DX =    0.0                 !
 ! A11   A(5,6,11)             121.4851         -DE/DX =    0.0                 !
 ! A12   A(10,6,11)            116.9996         -DE/DX =    0.0                 !
 ! A13   L(1,2,3,12,-1)        180.0502         -DE/DX =    0.0                 !
 ! A14   L(2,3,4,12,-1)        180.2304         -DE/DX =    0.0                 !
 ! A15   L(1,2,3,12,-2)        180.0            -DE/DX =    0.0                 !
 ! A16   L(2,3,4,12,-2)        180.0            -DE/DX =    0.0                 !
 ! D1    D(7,1,4,5)              0.0            -DE/DX =    0.0                 !
 ! D2    D(7,1,4,9)            180.0            -DE/DX =    0.0                 !
 ! D3    D(8,1,4,5)            180.0            -DE/DX =    0.0                 !
 ! D4    D(8,1,4,9)              0.0            -DE/DX =    0.0                 !
 ! D5    D(3,4,5,6)            180.0            -DE/DX =    0.0                 !
 ! D6    D(3,4,5,12)             0.0            -DE/DX =    0.0                 !
 ! D7    D(9,4,5,6)              0.0            -DE/DX =    0.0                 !
 ! D8    D(9,4,5,12)           180.0            -DE/DX =    0.0                 !
 ! D9    D(4,5,6,10)             0.0            -DE/DX =    0.0                 !
 ! D10   D(4,5,6,11)           180.0            -DE/DX =    0.0                 !
 ! D11   D(12,5,6,10)          180.0            -DE/DX =    0.0                 !
 ! D12   D(12,5,6,11)            0.0            -DE/DX =    0.0                 !
 --------------------------------------------------------------------------------
 GradGradGradGradGradGradGradGradGradGradGradGradGradGradGradGradGradGrad


 ----------------------------------------------------------------------

 Electric dipole moment (input orientation):
 (Debye = 10**-18 statcoulomb cm , SI units = C m)
                  (au)            (Debye)         (10**-30 SI)
   Tot        0.103707D+00      0.263596D+00      0.879262D+00
   x          0.101394D+00      0.257718D+00      0.859654D+00
   y         -0.217796D-01     -0.553582D-01     -0.184655D+00
   z          0.000000D+00      0.000000D+00      0.000000D+00

 Dipole polarizability, Alpha (input orientation).
 (esu units = cm**3 , SI units = C**2 m**2 J**-1)
 Alpha(0;0):
               (au)            (10**-24 esu)      (10**-40 SI)
   iso        0.959713D+02      0.142215D+02      0.158235D+02
   aniso      0.147756D+03      0.218951D+02      0.243616D+02
   xx         0.193358D+03      0.286527D+02      0.318805D+02
   yx         0.112486D+02      0.166687D+01      0.185464D+01
   yy         0.534035D+02      0.791359D+01      0.880506D+01
   zx         0.000000D+00      0.000000D+00      0.000000D+00
   zy         0.000000D+00      0.000000D+00      0.000000D+00
   zz         0.411519D+02      0.609808D+01      0.678503D+01

 ----------------------------------------------------------------------

 Dipole orientation:
     6         -0.36194043         -1.68499743         -5.69594592
     6         -0.14813091         -0.68961680         -3.42912085
     6          0.05697376          0.26523878         -1.25967419
     6          0.27468074          1.27876386          1.01855097
     6         -0.02193537         -0.10211911          3.36285445
     6          0.20423680          0.95081528          5.64847250
     1         -0.78826517         -3.66973313         -5.95245736
     1         -0.11868164         -0.55251705         -7.38279994
     1          0.70493723          3.28180366          1.16649975
     1          0.63136710          2.93930121          5.87251274
     1         -0.03108120         -0.14469713          7.35519475
     1         -0.45065863         -2.09802102          3.19829922

 Electric dipole moment (dipole orientation):
 (Debye = 10**-18 statcoulomb cm , SI units = C m)
                  (au)            (Debye)         (10**-30 SI)
   Tot        0.103707D+00      0.263596D+00      0.879262D+00
   x          0.000000D+00      0.000000D+00      0.000000D+00
   y          0.000000D+00      0.000000D+00      0.000000D+00
   z          0.103707D+00      0.263596D+00      0.879262D+00

 Dipole polarizability, Alpha (dipole orientation).
 (esu units = cm**3 , SI units = C**2 m**2 J**-1)
 Alpha(0;0):
               (au)            (10**-24 esu)      (10**-40 SI)
   iso        0.959713D+02      0.142215D+02      0.158235D+02
   aniso      0.147756D+03      0.218951D+02      0.243616D+02
   xx         0.421682D+02      0.624869D+01      0.695260D+01
   yx         0.473151D+01      0.701137D+00      0.780120D+00
   yy         0.631792D+02      0.936219D+01      0.104168D+02
   zx         0.818898D+01      0.121348D+01      0.135018D+01
   zy         0.381234D+02      0.564931D+01      0.628570D+01
   zz         0.182566D+03      0.270535D+02      0.301011D+02

 ----------------------------------------------------------------------
 1\1\GINC-GAMBA\Freq\RB3LYP\Gen\C6H6\IRIKURA\21-Jun-2022\0\\#N Geom=All
 Check Guess=TCheck SCRF=Check GenChk RB3LYP/ChkBas Freq\\1,2,3,5-hexat
 etraene, B3LYP/pcseg-2\\0,1\C,-3.1384762842,-0.2586531006,0.\C,-1.8525
 322963,0.0161599462,0.\C,-0.6215759679,0.2803500412,0.\C,0.6723286061,
 0.5634977847,0.\C,1.7282524537,-0.4277641449,0.\C,3.0304615137,-0.1245
 834869,0.\H,-3.4967904839,-1.2804230442,0.\H,-3.8824870486,0.528095324
 2,0.\H,0.9765556787,1.6070187661,0.\H,3.3724021727,0.9027796268,0.\H,3
 .7889537061,-0.8939773259,0.\H,1.41624495,-1.4656623868,0.\\Version=ES
 64L-G16RevB.01\State=1-A'\HF=-232.2331721\RMSD=5.092e-09\RMSF=6.165e-0
 6\ZeroPoint=0.0940746\Thermal=0.1006842\Dipole=0.1013939,-0.0217796,0.
 \DipoleDeriv=-0.420599,-0.0780284,0.,-0.1278911,0.1553341,0.,0.,0.,-0.
 2867856,0.5106073,0.097728,0.,0.140813,-0.1425623,0.,0.,0.,-0.0467314,
 -0.115489,0.0917782,0.,0.1372955,-0.1696945,0.,0.,0.,-0.0443643,0.1920
 697,-0.036896,0.,-0.0852032,0.1863154,0.,0.,0.,-0.0852867,0.0975492,-0
 .0202903,0.,-0.2596336,0.0688854,0.,0.,0.,-0.1375481,-0.2634526,-0.000
 9647,0.,0.1698577,0.1244341,0.,0.,0.,-0.2946554,0.0030419,-0.0147981,0
 .,-0.0422653,-0.0232242,0.,0.,0.,0.1640356,-0.0241252,0.0212397,0.,0.0
 401391,0.0101399,0.,0.,0.,0.155435,-0.0270498,-0.0576282,0.,-0.0122204
 ,-0.0461147,0.,0.,0.,0.1343576,0.0488,0.007186,0.,-0.0553076,-0.086382
 6,0.,0.,0.,0.1492345,-0.0248681,0.0371311,0.,0.0741988,-0.0133192,0.,0
 .,0.,0.1500323,0.0235156,-0.0464573,0.,0.0202172,-0.0638114,0.,0.,0.,0
 .1422763\Polar=193.3583394,11.2486065,53.4035477,0.,0.,41.1518853\Quad
 rupole=3.6329646,0.6209012,-4.2538658,0.6990479,0.,0.\PG=CS [SG(C6H6)]
 \NImag=0\\0.80911740,0.04691405,0.60094197,0.,0.,0.09168711,-0.5122089
 9,-0.09230909,0.,1.27009999,-0.09229429,-0.10047323,0.,0.25168952,0.14
 901501,0.,0.,-0.04131218,0.,0.,0.07920018,-0.06123348,-0.01331889,0.,-
 0.66383798,-0.13616638,0.,1.25880736,-0.01377099,-0.00115267,0.,-0.135
 10887,-0.05545649,0.,0.24517771,0.14947507,0.,0.,0.00634017,0.,0.,-0.0
 5600177,0.,0.,0.07622674,0.02402239,0.00302056,0.,-0.06476039,-0.01515
 194,0.,-0.46579399,-0.08700852,0.,0.76865482,-0.00103197,0.01002832,0.
 ,-0.00436502,-0.00136813,0.,-0.10359036,-0.10494670,0.,0.07713614,0.59
 079284,0.,0.,0.00186135,0.,0.,0.00335266,0.,0.,-0.04331420,0.,0.,0.121
 19740,-0.00805910,-0.00311737,0.,0.02227920,0.00648591,0.,-0.07256556,
 0.01272585,0.,-0.13878568,0.07639290,0.,0.77222506,0.00244369,-0.00029
 509,0.,-0.01050200,-0.00262314,0.,0.01108623,0.01558917,0.,0.07260697,
 -0.18920484,0.,0.08856239,0.64423099,0.,0.,-0.00019511,0.,0.,0.0046706
 1,0.,0.,0.00378766,0.,0.,-0.06051432,0.,0.,0.13018098,0.00318182,0.000
 55563,0.,-0.00901602,-0.00207433,0.,0.01478672,0.00657416,0.,-0.056170
 78,0.00826904,0.,-0.48060083,-0.10418914,0.,0.80929145,0.00127807,0.00
 063117,0.,-0.00118885,-0.00007113,0.,0.00626951,-0.00273541,0.,0.02259
 752,0.01162582,0.,-0.09009349,-0.14107661,0.,0.02936196,0.64943798,0.,
 0.,-0.00004382,0.,0.,-0.00002020,0.,0.,0.00251700,0.,0.,0.00665986,0.,
 0.,-0.05247582,0.,0.,0.10729290,-0.07691839,-0.08363360,0.,-0.01572562
 ,-0.03070962,0.,0.00105562,-0.00005522,0.,-0.00073546,0.00122057,0.,-0
 .00024695,-0.00045090,0.,-0.00009762,0.00020415,0.,0.08405094,-0.08295
 534,-0.30479341,0.,-0.00724101,-0.00065567,0.,0.00334799,0.00051984,0.
 ,-0.00070413,-0.00010652,0.,0.00016793,-0.00009937,0.,-0.00005001,-0.0
 0003283,0.,0.09500127,0.32064372,0.,0.,-0.02905245,0.,0.,0.00379082,0.
 ,0.,0.00312530,0.,0.,0.00012466,0.,0.,-0.00567876,0.,0.,0.00007395,0.,
 0.,0.01644085,-0.17684169,0.14073528,0.,-0.02737412,0.01879998,0.,0.00
 212633,0.00102599,0.,-0.00043781,-0.00152870,0.,0.00017973,-0.00013036
 ,0.,-0.00005602,0.00004117,0.,0.00870495,-0.00755216,0.,0.19415726,0.1
 4000302,-0.20473147,0.,-0.00461473,0.01100221,0.,-0.00268115,-0.000655
 24,0.,0.00066243,-0.00049636,0.,-0.00014805,0.00000211,0.,0.00003033,0
 .00004560,0.,0.01835608,-0.01549359,0.,-0.15145141,0.21039696,0.,0.,-0
 .02909435,0.,0.,0.00392281,0.,0.,0.00358758,0.,0.,-0.00029844,0.,0.,0.
 00537490,0.,0.,-0.00011427,0.,0.,0.00570676,0.,0.,0.01643979,-0.000940
 24,0.00130562,0.,0.00088896,-0.00023724,0.,-0.01474990,-0.03123319,0.,
 -0.07090682,-0.07127536,0.,0.00811005,0.02201103,0.,0.00133833,0.00081
 715,0.,-0.00003688,-0.00004348,0.,-0.00047979,-0.00016501,0.,0.0797297
 8,-0.00068359,-0.00008929,0.,0.00298802,0.00037873,0.,-0.00889716,-0.0
 0270272,0.,-0.06650916,-0.29882288,0.,-0.00693424,-0.02111623,0.,-0.00
 127675,0.00167363,0.,0.00004162,0.00002915,0.,0.00005498,-0.00007423,0
 .,0.07720782,0.32111956,0.,0.,-0.00018789,0.,0.,0.00297084,0.,0.,0.005
 16461,0.,0.,-0.03646638,0.,0.,0.00590838,0.,0.,-0.00162505,0.,0.,0.004
 83401,0.,0.,-0.00499505,0.,0.,0.02126209,0.00004159,-0.00000334,0.,0.0
 0007978,0.00007294,0.,0.00012221,0.00042492,0.,0.00169664,-0.00175369,
 0.,-0.00615186,-0.03216312,0.,-0.08322046,-0.07684466,0.,0.00001713,-0
 .00000267,0.,0.00000724,0.00000114,0.,-0.00016630,0.00102640,0.,0.0835
 8748,-0.00007418,-0.00004594,0.,0.00020074,0.00001992,0.,-0.00014991,0
 .00022385,0.,0.00190415,0.00122225,0.,-0.00189541,-0.00558283,0.,-0.08
 094473,-0.30892211,0.,-0.00001046,-0.00000416,0.,-0.00001223,0.0000020
 3,0.,-0.00083504,0.00050594,0.,0.09071559,0.32551311,0.,0.,-0.00003845
 ,0.,0.,0.00073739,0.,0.,-0.00045218,0.,0.,-0.00738976,0.,0.,0.00582684
 ,0.,0.,-0.03499055,0.,0.,-0.00003060,0.,0.,0.00000231,0.,0.,0.00035191
 ,0.,0.,0.02232983,-0.00007516,-0.00011179,0.,-0.00010590,-0.00002614,0
 .,-0.00064700,0.00108970,0.,-0.00348752,-0.00312531,0.,-0.01777854,0.0
 2443996,0.,-0.19245227,0.13980732,0.,-0.00006641,-0.00001248,0.,-0.000
 03609,-0.00000158,0.,0.00007216,0.00011346,0.,0.00876970,-0.00801763,0
 .,0.20466655,0.00005044,-0.00003627,0.,-0.00018125,-0.00007387,0.,0.00
 021371,0.00059995,0.,-0.00189992,0.00030784,0.,-0.00813520,0.00856550,
 0.,0.14489875,-0.20671889,0.,-0.00001434,-0.00000161,0.,0.00000020,0.0
 0000145,0.,-0.00031944,0.00038767,0.,0.01903992,-0.01430520,0.,-0.1540
 1514,0.21008519,0.,0.,0.00003802,0.,0.,-0.00128457,0.,0.,0.00050824,0.
 ,0.,0.01134455,0.,0.,0.00546008,0.,0.,-0.03350778,0.,0.,0.00057948,0.,
 0.,-0.00048341,0.,0.,-0.00042883,0.,0.,0.00286781,0.,0.,0.02204942,-0.
 00008613,-0.00003706,0.,-0.00031891,-0.00038843,0.,0.00192965,0.000158
 45,0.,0.00670461,0.02365175,0.,-0.07860551,-0.07371474,0.,-0.00698433,
 -0.03224986,0.,-0.00000132,0.00004408,0.,0.00005001,0.00000891,0.,-0.0
 0285934,0.00286863,0.,-0.00478313,-0.00088089,0.,0.00114047,0.00036228
 ,0.,0.08381391,0.00012108,0.00001590,0.,0.00063255,0.00030580,0.,-0.00
 129129,0.00124134,0.,-0.00665411,-0.01903165,0.,-0.07401123,-0.3083896
 7,0.,-0.00115491,-0.00385722,0.,0.00005046,-0.00000556,0.,0.00001725,0
 .00000053,0.,0.00276712,-0.00128932,0.,-0.00051341,0.00137313,0.,-0.00
 014038,0.00118823,0.,0.08017687,0.32844848,0.,0.,-0.00000241,0.,0.,-0.
 00002659,0.,0.,-0.00148916,0.,0.,0.00344262,0.,0.,-0.04234544,0.,0.,0.
 00623380,0.,0.,0.00008596,0.,0.,-0.00004863,0.,0.,0.00321136,0.,0.,0.0
 1078545,0.,0.,-0.00714302,0.,0.,0.02729605\\-0.00000241,-0.00000109,0.
 ,0.00000771,0.00000155,0.,-0.00000941,-0.00000158,0.,0.00000942,0.0000
 1775,0.,-0.00000851,-0.00002160,0.,0.00000758,0.00001005,0.,-0.0000026
 5,0.00000277,0.,-0.00000125,-0.00000285,0.,-0.00000293,-0.00000646,0.,
 0.00000065,-0.00000229,0.,-0.00000061,-0.00000072,0.,0.00000240,0.0000
 0448,0.\\\@


 IF NO USE IS MADE OF THE LABOR OF PAST AGES,
 THE WORLD MUST REMAIN ALWAYS IN THE INFANCY OF KNOWLEDGE.

                          -- CICERO
 Job cpu time:       0 days  0 hours 26 minutes  7.5 seconds.
 Elapsed time:       0 days  0 hours  2 minutes 11.5 seconds.
 File lengths (MBytes):  RWF=     68 Int=      0 D2E=      0 Chk=      7 Scr=      1
 Normal termination of Gaussian 16 at Tue Jun 21 10:19:41 2022.
