 Entering Gaussian System, Link 0=g16
 AtFile(1): pcseg2.gbs
            -H     0
            S   4   1.00
                  0.754732D+02           0.427821D-02
                  0.113575D+02           0.328672D-01
                  0.260081D+01           0.159578D+00
                  0.735503D+00           0.500000D+00
            S   1   1.00
                  0.231761D+00           1.0000000
            S   1   1.00
                  0.741675D-01           1.0000000
            P   1   1.00
                  0.160000D+01           1.0000000
            P   1   1.00
                  0.450000D+00           1.0000000
            D   1   1.00
                  0.125000D+01           1.0000000
            ****
            -C     0
            S   7   1.00
                  0.731999D+04           0.695369D-03
                  0.109818D+04           0.537138D-02
                  0.250014D+03           0.274734D-01
                  0.707586D+02           0.105078D+00
                  0.228595D+02           0.291262D+00
                  0.803936D+01           0.500000D+00
                  0.289309D+01           0.362224D+00
            S   2   1.00
                  0.521640D+01          -0.957844D-01
                  0.556124D+00           0.500000D+00
            S   1   1.00
                  0.228813D+00           1.0000000
            S   1   1.00
                  0.936338D-01           1.0000000
            P   4   1.00
                  0.339855D+02           0.818395D-02
                  0.772957D+01           0.586921D-01
                  0.224954D+01           0.222514D+00
                  0.767681D+00           0.500000D+00
            P   1   1.00
                  0.263283D+00           1.0000000
            P   1   1.00
                  0.848744D-01           1.0000000
            D   1   1.00
                  0.140000D+01           1.0000000
            D   1   1.00
                  0.450000D+00           1.0000000
            F   1   1.00
                  0.950000D+00           1.0000000
            ****
            -O     0
            S   7   1.00
                  0.135887D+05           0.665492D-03
                  0.203847D+04           0.514222D-02
                  0.464041D+03           0.263472D-01
                  0.131339D+03           0.101500D+00
                  0.425340D+02           0.285877D+00
                  0.150429D+02           0.500000D+00
                  0.546616D+01           0.368211D+00
            S   2   1.00
                  0.100915D+02          -0.100084D+00
                  0.110429D+01           0.500000D+00
            S   1   1.00
                  0.448082D+00           1.0000000
            S   1   1.00
                  0.175325D+00           1.0000000
            P   4   1.00
                  0.608220D+02           0.908253D-02
                  0.140332D+02           0.645878D-01
                  0.418244D+01           0.241502D+00
                  0.142490D+01           0.500000D+00
            P   1   1.00
                  0.478741D+00           1.0000000
            P   1   1.00
                  0.146257D+00           1.0000000
            D   1   1.00
                  0.220000D+01           1.0000000
            D   1   1.00
                  0.650000D+00           1.0000000
            F   1   1.00
                  0.110000D+01           1.0000000
            ****
            -N     0
            S   7   1.00
                  0.101643D+05           0.682757D-03
                  0.152481D+04           0.527488D-02
                  0.347119D+03           0.270037D-01
                  0.982389D+02           0.103673D+00
                  0.317799D+02           0.289575D+00
                  0.112240D+02           0.500000D+00
                  0.406611D+01           0.364621D+00
            S   2   1.00
                  0.747898D+01          -0.975681D-01
                  0.805040D+00           0.500000D+00
            S   1   1.00
                  0.324626D+00           1.0000000
            S   1   1.00
                  0.128132D+00           1.0000000
            P   4   1.00
                  0.482704D+02           0.829547D-02
                  0.110815D+02           0.596223D-01
                  0.326643D+01           0.227889D+00
                  0.111680D+01           0.500000D+00
            P   1   1.00
                  0.382049D+00           1.0000000
            P   1   1.00
                  0.121222D+00           1.0000000
            D   1   1.00
                  0.180000D+01           1.0000000
            D   1   1.00
                  0.550000D+00           1.0000000
            F   1   1.00
                  0.102000D+01           1.0000000
            ****
            -F     0
            S   7   1.00
                  0.174507D+05           0.655972D-03
                  0.261768D+04           0.506944D-02
                  0.595857D+03           0.259899D-01
                  0.168651D+03           0.100353D+00
                  0.546654D+02           0.284095D+00
                  0.193717D+02           0.500000D+00
                  0.706202D+01           0.370721D+00
            S   2   1.00
                  0.131197D+02          -0.101997D+00
                  0.145046D+01           0.500000D+00
            S   1   1.00
                  0.588255D+00           1.0000000
            S   1   1.00
                  0.227960D+00           1.0000000
            P   4   1.00
                  0.779407D+02           0.931135D-02
                  0.180425D+02           0.663964D-01
                  0.542342D+01           0.246386D+00
                  0.184876D+01           0.500000D+00
            P   1   1.00
                  0.617455D+00           1.0000000
            P   1   1.00
                  0.185496D+00           1.0000000
            D   1   1.00
                  0.280000D+01           1.0000000
            D   1   1.00
                  0.800000D+00           1.0000000
            F   1   1.00
                  0.120000D+01           1.0000000
            ****
            -Cl     0
            S   8   1.00
                  0.154272D+06           0.222473D-03
                  0.231232D+05           0.172590D-02
                  0.526257D+04           0.899286D-02
                  0.148995D+04           0.367724D-01
                  0.485417D+03           0.121446D+00
                  0.174634D+03           0.304148D+00
                  0.672393D+02           0.500000D+00
                  0.265780D+02           0.360252D+00
            S   3   1.00
                  0.131826D+03          -0.531330D-01
                  0.400703D+02          -0.233346D+00
                  0.789448D+01           0.500000D+00
            S   2   1.00
                  0.427711D+01           0.500000D+00
                  0.196233D+01           0.370517D+00
            S   1   1.00
                  0.520793D+00           1.0000000
            S   1   1.00
                  0.181633D+00           1.0000000
            P   7   1.00
                  0.124440D+04           0.988206D-03
                  0.295109D+03           0.829674D-02
                  0.947224D+02           0.430906D-01
                  0.352588D+02           0.148443D+00
                  0.144211D+02           0.344744D+00
                  0.610371D+01           0.500000D+00
                  0.258886D+01           0.348278D+00
            P   2   1.00
                  0.109447D+02          -0.196768D-01
                  0.104413D+01           0.500000D+00
            P   1   1.00
                  0.376184D+00           1.0000000
            P   1   1.00
                  0.120613D+00           1.0000000
            D   1   1.00
                  0.231000D+01           1.0000000
            D   1   1.00
                  0.520000D+00           1.0000000
            F   1   1.00
                  0.720000D+00           1.0000000
            ****
            -S     0
            S   8   1.00
                  0.134700D+06           0.226231D-03
                  0.201904D+05           0.175488D-02
                  0.459528D+04           0.914190D-02
                  0.130109D+04           0.373551D-01
                  0.423902D+03           0.123121D+00
                  0.152485D+03           0.306801D+00
                  0.586925D+02           0.500000D+00
                  0.231461D+02           0.354358D+00
            S   3   1.00
                  0.116327D+03          -0.491772D-01
                  0.352841D+02          -0.215962D+00
                  0.677831D+01           0.500000D+00
            S   2   1.00
                  0.360404D+01           0.500000D+00
                  0.164871D+01           0.366278D+00
            S   1   1.00
                  0.421821D+00           1.0000000
            S   1   1.00
                  0.147554D+00           1.0000000
            P   7   1.00
                  0.104863D+04           0.105273D-02
                  0.248717D+03           0.879338D-02
                  0.797887D+02           0.453358D-01
                  0.296023D+02           0.154476D+00
                  0.120627D+02           0.352366D+00
                  0.507628D+01           0.500000D+00
                  0.213375D+01           0.346429D+00
            P   2   1.00
                  0.928958D+01          -0.185932D-01
                  0.837819D+00           0.500000D+00
            P   1   1.00
                  0.301495D+00           1.0000000
            P   1   1.00
                  0.974740D-01           1.0000000
            D   1   1.00
                  0.210000D+01           1.0000000
            D   1   1.00
                  0.480000D+00           1.0000000
            F   1   1.00
                  0.660000D+00           1.0000000
            ****
            -Br     0
            S    10   1.00
                  0.233625D+07           0.532336D-04
                  0.349961D+06           0.413715D-03
                  0.796444D+05           0.217123D-02
                  0.225555D+05           0.910109D-02
                  0.735546D+04           0.323789D-01
                  0.265352D+04           0.988755D-01
                  0.103517D+04           0.248138D+00
                  0.422205D+03           0.474328D+00
                  0.180035D+03           0.500000D+00
                  0.793308D+02           0.187769D+00
            S    4   1.00
                  0.620834D+03          -0.226511D-01
                  0.190829D+03          -0.109497D+00
                  0.312505D+02           0.500000D+00
                  0.135270D+02           0.492812D+00
            S    2   1.00
                  0.216097D+02          -0.165418D+00
                  0.372566D+01           0.500000D+00
            S    1   1.00
                  0.169770D+01           1.0000000
            S    1   1.00
                  0.489332D+00           1.0000000
            S    1   1.00
                  0.175712D+00           1.0000000
            P    8   1.00
                  0.960829D+04           0.478974D-03
                  0.227618D+04           0.417853D-02
                  0.736723D+03           0.229315D-01
                  0.281579D+03           0.892653D-01
                  0.118395D+03           0.255288D+00
                  0.527481D+02           0.479074D+00
                  0.245098D+02           0.500000D+00
                  0.112009D+02           0.200944D+00
            P    4   1.00
                  0.587849D+02          -0.189674D-01
                  0.918962D+01           0.264104D+00
                  0.413895D+01           0.500000D+00
                  0.184225D+01           0.319316D+00
            P    1   1.00
                  0.713862D+00           1.0000000
            P    1   1.00
                  0.274232D+00           1.0000000
            P    1   1.00
                  0.944411D-01           1.0000000
            D    7   1.00
                  0.398470D+03           0.204066D-02
                  0.118967D+03           0.175171D-01
                  0.450197D+02           0.829708D-01
                  0.190320D+02           0.236284D+00
                  0.855686D+01           0.428468D+00
                  0.382950D+01           0.500000D+00
                  0.166291D+01           0.349360D+00
            D    1   1.00
                  0.672953D+00           1.0000000
            D    1   1.00
                  0.252000D+00           1.0000000
            F    1   1.00
                  0.530000D+00           1.0000000
            ****
            -Si     0
            S    8   1.00
                  0.996133D+05           0.235546D-03
                  0.149311D+05           0.182707D-02
                  0.339820D+04           0.951425D-02
                  0.962140D+03           0.388172D-01
                  0.313430D+03           0.127328D+00
                  0.112683D+03           0.313522D+00
                  0.433372D+02           0.500000D+00
                  0.170029D+02           0.340347D+00
            S    3   1.00
                  0.884208D+02          -0.404451D-01
                  0.266756D+02          -0.178059D+00
                  0.479640D+01           0.500000D+00
            S    2   1.00
                  0.239385D+01           0.500000D+00
                  0.108333D+01           0.338016D+00
            S    1   1.00
                  0.252420D+00           1.0000000
            S    1   1.00
                  0.891210D-01           1.0000000
            P    7   1.00
                  0.709901D+03           0.123028D-02
                  0.168426D+03           0.101366D-01
                  0.539946D+02           0.511840D-01
                  0.198646D+02           0.169967D+00
                  0.801369D+01           0.370717D+00
                  0.331870D+01           0.500000D+00
                  0.136112D+01           0.344128D+00
            P    2   1.00
                  0.622158D+01          -0.166609D-01
                  0.503049D+00           0.500000D+00
            P    1   1.00
                  0.179848D+00           1.0000000
            P    1   1.00
                  0.591912D-01           1.0000000
            D    1   1.00
                  0.168000D+01           1.0000000
            D    1   1.00
                  0.380000D+00           1.0000000
            F    1   1.00
                  0.540000D+00           1.0000000
            ****
            -P     0
            S    8   1.00
                  0.116416D+06           0.230715D-03
                  0.174500D+05           0.178960D-02
                  0.397149D+04           0.932116D-02
                  0.112447D+04           0.380591D-01
                  0.366347D+03           0.125148D+00
                  0.131757D+03           0.310022D+00
                  0.506988D+02           0.500000D+00
                  0.199436D+02           0.347528D+00
            S    3   1.00
                  0.101878D+03          -0.446755D-01
                  0.308249D+02          -0.196376D+00
                  0.573688D+01           0.500000D+00
            S    2   1.00
                  0.296868D+01           0.500000D+00
                  0.135315D+01           0.355098D+00
            S    1   1.00
                  0.332196D+00           1.0000000
            S    1   1.00
                  0.116229D+00           1.0000000
            P    7   1.00
                  0.873928D+03           0.112375D-02
                  0.207298D+03           0.933330D-02
                  0.664628D+02           0.477213D-01
                  0.245665D+02           0.160733D+00
                  0.996820D+01           0.359760D+00
                  0.416536D+01           0.500000D+00
                  0.173022D+01           0.346593D+00
            P    2   1.00
                  0.772530D+01          -0.175718D-01
                  0.657252D+00           0.500000D+00
            P    1   1.00
                  0.239903D+00           1.0000000
            P    1   1.00
                  0.800988D-01           1.0000000
            D    1   1.00
                  0.189000D+01           1.0000000
            D    1   1.00
                  0.430000D+00           1.0000000
            F    1   1.00
                  0.600000D+00           1.0000000
            ****
            
 Initial command:
 /usr/local/apps/g16_b01_avx/g16/l1.exe "/wrk/irikura/Gau-406396.inp" -scrdir="/wrk/irikura/"
 Entering Link 1 = /usr/local/apps/g16_b01_avx/g16/l1.exe PID=    406398.
  
 Copyright (c) 1988-2017, Gaussian, Inc.  All Rights Reserved.
  
 This is part of the Gaussian(R) 16 program.  It is based on
 the Gaussian(R) 09 system (copyright 2009, Gaussian, Inc.),
 the Gaussian(R) 03 system (copyright 2003, Gaussian, Inc.),
 the Gaussian(R) 98 system (copyright 1998, Gaussian, Inc.),
 the Gaussian(R) 94 system (copyright 1995, Gaussian, Inc.),
 the Gaussian 92(TM) system (copyright 1992, Gaussian, Inc.),
 the Gaussian 90(TM) system (copyright 1990, Gaussian, Inc.),
 the Gaussian 88(TM) system (copyright 1988, Gaussian, Inc.),
 the Gaussian 86(TM) system (copyright 1986, Carnegie Mellon
 University), and the Gaussian 82(TM) system (copyright 1983,
 Carnegie Mellon University). Gaussian is a federally registered
 trademark of Gaussian, Inc.
  
 This software contains proprietary and confidential information,
 including trade secrets, belonging to Gaussian, Inc.
  
 This software is provided under written license and may be
 used, copied, transmitted, or stored only in accord with that
 written license.
  
 The following legend is applicable only to US Government
 contracts under FAR:
  
                    RESTRICTED RIGHTS LEGEND
  
 Use, reproduction and disclosure by the US Government is
 subject to restrictions as set forth in subparagraphs (a)
 and (c) of the Commercial Computer Software - Restricted
 Rights clause in FAR 52.227-19.
  
 Gaussian, Inc.
 340 Quinnipiac St., Bldg. 40, Wallingford CT 06492
  
  
 ---------------------------------------------------------------
 Warning -- This program may not be used in any manner that
 competes with the business of Gaussian, Inc. or will provide
 assistance to any competitor of Gaussian, Inc.  The licensee
 of this program is prohibited from giving any competitor of
 Gaussian, Inc. access to this program.  By using this program,
 the user acknowledges that Gaussian, Inc. is engaged in the
 business of creating and licensing software in the field of
 computational chemistry and represents and warrants to the
 licensee that it is not a competitor of Gaussian, Inc. and that
 it will not use this program in any manner prohibited above.
 ---------------------------------------------------------------
  

 Cite this work as:
 Gaussian 16, Revision B.01,
 M. J. Frisch, G. W. Trucks, H. B. Schlegel, G. E. Scuseria, 
 M. A. Robb, J. R. Cheeseman, G. Scalmani, V. Barone, 
 G. A. Petersson, H. Nakatsuji, X. Li, M. Caricato, A. V. Marenich, 
 J. Bloino, B. G. Janesko, R. Gomperts, B. Mennucci, H. P. Hratchian, 
 J. V. Ortiz, A. F. Izmaylov, J. L. Sonnenberg, D. Williams-Young, 
 F. Ding, F. Lipparini, F. Egidi, J. Goings, B. Peng, A. Petrone, 
 T. Henderson, D. Ranasinghe, V. G. Zakrzewski, J. Gao, N. Rega, 
 G. Zheng, W. Liang, M. Hada, M. Ehara, K. Toyota, R. Fukuda, 
 J. Hasegawa, M. Ishida, T. Nakajima, Y. Honda, O. Kitao, H. Nakai, 
 T. Vreven, K. Throssell, J. A. Montgomery, Jr., J. E. Peralta, 
 F. Ogliaro, M. J. Bearpark, J. J. Heyd, E. N. Brothers, K. N. Kudin, 
 V. N. Staroverov, T. A. Keith, R. Kobayashi, J. Normand, 
 K. Raghavachari, A. P. Rendell, J. C. Burant, S. S. Iyengar, 
 J. Tomasi, M. Cossi, J. M. Millam, M. Klene, C. Adamo, R. Cammi, 
 J. W. Ochterski, R. L. Martin, K. Morokuma, O. Farkas, 
 J. B. Foresman, and D. J. Fox, Gaussian, Inc., Wallingford CT, 2016.
 
 ******************************************
 Gaussian 16:  ES64L-G16RevB.01 20-Dec-2017
                29-Sep-2023 
 ******************************************
 %chk=ch2clch2cl.chk
 %mem=500mw
 %nprocs=4
 Will use up to    4 processors via shared memory.
 ---------------------------------------
 # b3lyp/gen opt freq CPHF(Grid=OneStep)
 ---------------------------------------
 1/18=20,19=15,26=3,38=1/1,3;
 2/9=110,12=2,17=6,18=5,40=1/2;
 3/5=7,11=2,25=1,30=1,71=1,74=-5/1,2,3;
 4//1;
 5/5=2,38=5/2;
 6/7=2,8=2,9=2,10=2,28=1/1;
 7//1,2,3,16;
 1/18=20,19=15,26=3/3(2);
 2/9=110/2;
 99//99;
 2/9=110/2;
 3/5=7,6=1,11=2,25=1,30=1,71=1,74=-5,82=7/1,2,3;
 4/5=5,16=3,69=1/1;
 5/5=2,38=5/2;
 7//1,2,3,16;
 1/18=20,19=15,26=3/3(-5);
 2/9=110/2;
 6/7=2,8=2,9=2,10=2,19=2,28=1/1;
 99/9=1/99;
 ---------------------------------
 1,2-dichloroethane, B3LYP/pcseg-2
 ---------------------------------
 Symbolic Z-matrix:
 Charge =  0 Multiplicity = 1
 C                     0.47533   0.58773   0. 
 C                    -0.47533  -0.58773   0. 
 Cl                   -0.47533   2.12536   0. 
 Cl                    0.47533  -2.12536   0. 
 H                     1.09971   0.59719   0.88756 
 H                     1.09971   0.59719  -0.88756 
 H                    -1.09971  -0.59719   0.88756 
 H                    -1.09971  -0.59719  -0.88756 
 

 GradGradGradGradGradGradGradGradGradGradGradGradGradGradGradGradGradGrad
 Berny optimization.
 Initialization pass.
                           ----------------------------
                           !    Initial Parameters    !
                           ! (Angstroms and Degrees)  !
 --------------------------                            --------------------------
 ! Name  Definition              Value          Derivative Info.                !
 --------------------------------------------------------------------------------
 ! R1    R(1,2)                  1.5118         estimate D2E/DX2                !
 ! R2    R(1,3)                  1.8078         estimate D2E/DX2                !
 ! R3    R(1,5)                  1.0852         estimate D2E/DX2                !
 ! R4    R(1,6)                  1.0852         estimate D2E/DX2                !
 ! R5    R(2,4)                  1.8078         estimate D2E/DX2                !
 ! R6    R(2,7)                  1.0852         estimate D2E/DX2                !
 ! R7    R(2,8)                  1.0852         estimate D2E/DX2                !
 ! A1    A(2,1,3)              109.3091         estimate D2E/DX2                !
 ! A2    A(2,1,5)              111.6279         estimate D2E/DX2                !
 ! A3    A(2,1,6)              111.6279         estimate D2E/DX2                !
 ! A4    A(3,1,5)              107.1661         estimate D2E/DX2                !
 ! A5    A(3,1,6)              107.1661         estimate D2E/DX2                !
 ! A6    A(5,1,6)              109.7427         estimate D2E/DX2                !
 ! A7    A(1,2,4)              109.3091         estimate D2E/DX2                !
 ! A8    A(1,2,7)              111.6279         estimate D2E/DX2                !
 ! A9    A(1,2,8)              111.6279         estimate D2E/DX2                !
 ! A10   A(4,2,7)              107.1661         estimate D2E/DX2                !
 ! A11   A(4,2,8)              107.1661         estimate D2E/DX2                !
 ! A12   A(7,2,8)              109.7427         estimate D2E/DX2                !
 ! D1    D(3,1,2,4)            180.0            estimate D2E/DX2                !
 ! D2    D(3,1,2,7)            -61.6186         estimate D2E/DX2                !
 ! D3    D(3,1,2,8)             61.6186         estimate D2E/DX2                !
 ! D4    D(5,1,2,4)            -61.6186         estimate D2E/DX2                !
 ! D5    D(5,1,2,7)             56.7629         estimate D2E/DX2                !
 ! D6    D(5,1,2,8)            180.0            estimate D2E/DX2                !
 ! D7    D(6,1,2,4)             61.6186         estimate D2E/DX2                !
 ! D8    D(6,1,2,7)            180.0            estimate D2E/DX2                !
 ! D9    D(6,1,2,8)            -56.7629         estimate D2E/DX2                !
 --------------------------------------------------------------------------------
 Trust Radius=3.00D-01 FncErr=1.00D-07 GrdErr=1.00D-06 EigMax=2.50D+02 EigMin=1.00D-04
 Number of steps in this run=     38 maximum allowed number of steps=    100.
 GradGradGradGradGradGradGradGradGradGradGradGradGradGradGradGradGradGrad

                          Input orientation:                          
 ---------------------------------------------------------------------
 Center     Atomic      Atomic             Coordinates (Angstroms)
 Number     Number       Type             X           Y           Z
 ---------------------------------------------------------------------
      1          6           0        0.475325    0.587726    0.000000
      2          6           0       -0.475325   -0.587726    0.000000
      3         17           0       -0.475325    2.125363    0.000000
      4         17           0        0.475325   -2.125363    0.000000
      5          1           0        1.099705    0.597185    0.887561
      6          1           0        1.099705    0.597185   -0.887561
      7          1           0       -1.099705   -0.597185    0.887561
      8          1           0       -1.099705   -0.597185   -0.887561
 ---------------------------------------------------------------------
                    Distance matrix (angstroms):
                    1          2          3          4          5
     1  C    0.000000
     2  C    1.511761   0.000000
     3  Cl   1.807778   2.713089   0.000000
     4  Cl   2.713089   1.807778   4.355733   0.000000
     5  H    1.085221   2.161596   2.367237   2.930850   0.000000
     6  H    1.085221   2.161596   2.367237   2.930850   1.775122
     7  H    2.161596   1.085221   2.930850   2.367237   2.502783
     8  H    2.161596   1.085221   2.930850   2.367237   3.068384
                    6          7          8
     6  H    0.000000
     7  H    3.068384   0.000000
     8  H    2.502783   1.775122   0.000000
 Stoichiometry    C2H4Cl2
 Framework group  C2H[SGH(C2Cl2),X(H4)]
 Deg. of freedom     6
 Full point group                 C2H     NOp   4
 Largest Abelian subgroup         C2H     NOp   4
 Largest concise Abelian subgroup C2H     NOp   4
                         Standard orientation:                         
 ---------------------------------------------------------------------
 Center     Atomic      Atomic             Coordinates (Angstroms)
 Number     Number       Type             X           Y           Z
 ---------------------------------------------------------------------
      1          6           0        0.475325    0.587726    0.000000
      2          6           0       -0.475325   -0.587726    0.000000
      3         17           0       -0.475325    2.125363    0.000000
      4         17           0        0.475325   -2.125363    0.000000
      5          1           0        1.099705    0.597185    0.887561
      6          1           0        1.099705    0.597185   -0.887561
      7          1           0       -1.099705   -0.597185    0.887561
      8          1           0       -1.099705   -0.597185   -0.887561
 ---------------------------------------------------------------------
 Rotational constants (GHZ):          29.3568161           1.4825563           1.4367680
 General basis read from cards:  (5D, 7F)
 There are    66 symmetry adapted cartesian basis functions of AG  symmetry.
 There are    38 symmetry adapted cartesian basis functions of BG  symmetry.
 There are    38 symmetry adapted cartesian basis functions of AU  symmetry.
 There are    66 symmetry adapted cartesian basis functions of BU  symmetry.
 There are    57 symmetry adapted basis functions of AG  symmetry.
 There are    35 symmetry adapted basis functions of BG  symmetry.
 There are    35 symmetry adapted basis functions of AU  symmetry.
 There are    57 symmetry adapted basis functions of BU  symmetry.
   184 basis functions,   314 primitive gaussians,   208 cartesian basis functions
    25 alpha electrons       25 beta electrons
       nuclear repulsion energy       193.6376390974 Hartrees.
 NAtoms=    8 NActive=    8 NUniq=    3 SFac= 4.00D+00 NAtFMM=   60 NAOKFM=F Big=F
 Integral buffers will be    131072 words long.
 Raffenetti 2 integral format.
 Two-electron integral symmetry is turned on.
 One-electron integrals computed using PRISM.
 NBasis=   184 RedAO= T EigKep=  7.14D-04  NBF=    57    35    35    57
 NBsUse=   184 1.00D-06 EigRej= -1.00D+00 NBFU=    57    35    35    57
 ExpMin= 7.42D-02 ExpMax= 1.54D+05 ExpMxC= 1.49D+03 IAcc=3 IRadAn=         5 AccDes= 0.00D+00
 Harris functional with IExCor=  402 and IRadAn=       5 diagonalized for initial guess.
 HarFok:  IExCor=  402 AccDes= 0.00D+00 IRadAn=         5 IDoV= 1 UseB2=F ITyADJ=14
 ICtDFT=  3500011 ScaDFX=  1.000000  1.000000  1.000000  1.000000
 FoFCou: FMM=F IPFlag=           0 FMFlag=      100000 FMFlg1=           0
         NFxFlg=           0 DoJE=T BraDBF=F KetDBF=T FulRan=T
         wScrn=  0.000000 ICntrl=       500 IOpCl=  0 I1Cent=   200000004 NGrid=           0
         NMat0=    1 NMatS0=      1 NMatT0=    0 NMatD0=    1 NMtDS0=    0 NMtDT0=    0
 Petite list used in FoFCou.
 Initial guess orbital symmetries:
       Occupied  (BU) (AG) (AG) (BU) (BU) (AG) (BU) (AG) (AG) (BU)
                 (AU) (BG) (AG) (BU) (AG) (BU) (AU) (AG) (BG) (BU)
                 (AG) (BU) (BG) (AG) (AU)
       Virtual   (BU) (AG) (AG) (BU) (AU) (BG) (BU) (AG) (BU) (AU)
                 (AG) (BG) (BU) (AG) (BU) (AU) (AG) (BG) (BU) (BG)
                 (AG) (AU) (BU) (BU) (AG) (AU) (BU) (BG) (AG) (AU)
                 (BU) (AG) (AG) (BU) (BG) (AU) (BG) (AG) (BU) (AU)
                 (AG) (BG) (BU) (BG) (AG) (AU) (BU) (BU) (AG) (BU)
                 (BG) (AU) (AG) (AG) (AU) (BU) (BG) (BU) (AG) (AU)
                 (BU) (AG) (AG) (BG) (BU) (AG) (BU) (BG) (AU) (BG)
                 (AG) (AU) (BU) (BG) (BU) (AG) (AU) (AG) (BU) (AG)
                 (BG) (BU) (AG) (AU) (BU) (AG) (BG) (AG) (AU) (BU)
                 (AG) (BU) (AU) (BU) (AG) (BG) (AU) (BU) (BG) (AU)
                 (AG) (BG) (BU) (AU) (BU) (BG) (AG) (AU) (BG) (AU)
                 (AG) (BU) (AG) (BG) (AU) (AG) (BG) (BU) (BU) (AG)
                 (AU) (BU) (BG) (BU) (AU) (AG) (BU) (BU) (AG) (BG)
                 (AU) (BG) (AG) (BU) (AU) (AG) (BU) (AG) (BG) (BU)
                 (AU) (AG) (AG) (AG) (BG) (AU) (BU) (AG) (BG) (BG)
                 (BU) (BU) (BG) (AG) (AU) (AU) (BU) (AG) (BU)
 The electronic state of the initial guess is 1-AG.
 Keep R1 ints in memory in symmetry-blocked form, NReq=181249487.
 Requested convergence on RMS density matrix=1.00D-08 within 128 cycles.
 Requested convergence on MAX density matrix=1.00D-06.
 Requested convergence on             energy=1.00D-06.
 No special actions if energy rises.
 Integral accuracy reduced to 1.0D-05 until final iterations.
 Initial convergence to 1.0D-05 achieved.  Increase integral accuracy.
 SCF Done:  E(RB3LYP) =  -999.134279848     A.U. after   11 cycles
            NFock= 11  Conv=0.86D-08     -V/T= 2.0012

 **********************************************************************

            Population analysis using the SCF Density.

 **********************************************************************

 Orbital symmetries:
       Occupied  (BU) (AG) (AG) (BU) (AG) (BU) (AG) (BU) (BU) (AG)
                 (AU) (BG) (AG) (BU) (AG) (BU) (AU) (BU) (AG) (BG)
                 (AG) (BU) (BG) (AU) (AG)
       Virtual   (BU) (AG) (BU) (AU) (AG) (BG) (BU) (AG) (BU) (AG)
                 (AU) (BG) (AG) (BU) (BU) (AU) (AG) (BG) (BU) (AU)
                 (AG) (BG) (BU) (BU) (AG) (AU) (BU) (BG) (AG) (AU)
                 (BU) (AG) (AG) (BU) (BG) (AU) (BG) (AG) (BU) (AU)
                 (AG) (BG) (BU) (BG) (AG) (AU) (BU) (BU) (AG) (BU)
                 (BG) (AG) (AU) (AG) (AU) (BU) (BG) (BU) (AG) (AU)
                 (BU) (AG) (BG) (AG) (BU) (AG) (BU) (AU) (BG) (AG)
                 (AU) (BG) (BU) (BG) (BU) (AG) (AU) (AG) (BU) (AG)
                 (BG) (BU) (AG) (AU) (BU) (AG) (BG) (AG) (AU) (BU)
                 (AG) (BU) (AU) (BU) (AG) (AU) (BG) (BU) (BG) (AU)
                 (AG) (BG) (BU) (AU) (BU) (BG) (AG) (BG) (AU) (AU)
                 (AG) (BU) (AG) (BG) (AU) (AG) (BG) (BU) (BU) (AG)
                 (AU) (BU) (BG) (BU) (AU) (AG) (BU) (BU) (AG) (BG)
                 (AU) (BG) (BU) (AG) (AU) (AG) (BU) (AG) (BG) (BU)
                 (AU) (AG) (AG) (AG) (BG) (BU) (AU) (AG) (BG) (BG)
                 (BU) (BU) (BG) (AG) (AU) (AU) (BU) (AG) (BU)
 The electronic state is 1-AG.
 Alpha  occ. eigenvalues -- -101.51431-101.51431 -10.25215 -10.25189  -9.45942
 Alpha  occ. eigenvalues --   -9.45942  -7.22101  -7.22101  -7.21226  -7.21226
 Alpha  occ. eigenvalues --   -7.21204  -7.21204  -0.89158  -0.85065  -0.73356
 Alpha  occ. eigenvalues --   -0.63875  -0.51506  -0.46450  -0.45521  -0.42340
 Alpha  occ. eigenvalues --   -0.39984  -0.32635  -0.31678  -0.31330  -0.31182
 Alpha virt. eigenvalues --   -0.01147  -0.00032   0.03846   0.04584   0.04834
 Alpha virt. eigenvalues --    0.08106   0.10050   0.13401   0.17310   0.20260
 Alpha virt. eigenvalues --    0.20544   0.22068   0.25715   0.26463   0.28784
 Alpha virt. eigenvalues --    0.30096   0.30470   0.30853   0.32518   0.35781
 Alpha virt. eigenvalues --    0.35933   0.36438   0.38246   0.41243   0.43292
 Alpha virt. eigenvalues --    0.49238   0.51010   0.56022   0.56941   0.58658
 Alpha virt. eigenvalues --    0.64147   0.64618   0.68273   0.70029   0.70129
 Alpha virt. eigenvalues --    0.76566   0.80575   0.82410   0.89242   0.92951
 Alpha virt. eigenvalues --    0.93520   0.96308   1.00339   1.03000   1.03424
 Alpha virt. eigenvalues --    1.04751   1.06062   1.12834   1.14959   1.19834
 Alpha virt. eigenvalues --    1.21026   1.31510   1.32463   1.36710   1.38775
 Alpha virt. eigenvalues --    1.40397   1.55938   1.58192   1.69079   1.69790
 Alpha virt. eigenvalues --    1.72713   1.77770   1.89404   1.89679   1.90459
 Alpha virt. eigenvalues --    1.96165   2.10301   2.11221   2.11725   2.12157
 Alpha virt. eigenvalues --    2.12284   2.13211   2.14700   2.17472   2.17956
 Alpha virt. eigenvalues --    2.19144   2.20178   2.22105   2.22486   2.23156
 Alpha virt. eigenvalues --    2.23879   2.24489   2.27751   2.36269   2.39899
 Alpha virt. eigenvalues --    2.47530   2.54374   2.63731   2.68028   2.68854
 Alpha virt. eigenvalues --    3.10280   3.11739   3.13757   3.20305   3.24856
 Alpha virt. eigenvalues --    3.28961   3.29661   3.36878   3.41741   3.46644
 Alpha virt. eigenvalues --    3.52213   3.52450   3.53025   3.53871   3.58599
 Alpha virt. eigenvalues --    3.62417   3.64023   3.68965   3.69293   3.84642
 Alpha virt. eigenvalues --    3.87681   3.87938   3.94290   3.94913   3.98580
 Alpha virt. eigenvalues --    4.04543   4.07258   4.10207   4.18164   4.27477
 Alpha virt. eigenvalues --    4.32324   4.34642   4.40234   4.41454   4.42572
 Alpha virt. eigenvalues --    4.46789   4.47936   4.51615   4.52546   4.54418
 Alpha virt. eigenvalues --    4.61782   4.62646   4.72551   4.72624   4.74361
 Alpha virt. eigenvalues --    4.82988   4.98018   5.05689   5.07405   5.22421
 Alpha virt. eigenvalues --    5.23543   5.29644   5.34979   5.41614   5.43405
 Alpha virt. eigenvalues --    5.61015   5.61408   5.62029   5.65532   5.72222
 Alpha virt. eigenvalues --    5.75356   5.87444   5.90329   5.99227   5.99453
 Alpha virt. eigenvalues --    6.13757   6.19032  32.75308  32.90594
          Condensed to atoms (all electrons):
               1          2          3          4          5          6
     1  C    4.688078   0.316408   0.241386  -0.037439   0.430775   0.430775
     2  C    0.316408   4.688078  -0.037439   0.241386  -0.037578  -0.037578
     3  Cl   0.241386  -0.037439  17.022998   0.006974  -0.042208  -0.042208
     4  Cl  -0.037439   0.241386   0.006974  17.022998   0.005067   0.005067
     5  H    0.430775  -0.037578  -0.042208   0.005067   0.602559  -0.033587
     6  H    0.430775  -0.037578  -0.042208   0.005067  -0.033587   0.602559
     7  H   -0.037578   0.430775   0.005067  -0.042208  -0.013833   0.011572
     8  H   -0.037578   0.430775   0.005067  -0.042208   0.011572  -0.013833
               7          8
     1  C   -0.037578  -0.037578
     2  C    0.430775   0.430775
     3  Cl   0.005067   0.005067
     4  Cl  -0.042208  -0.042208
     5  H   -0.013833   0.011572
     6  H    0.011572  -0.013833
     7  H    0.602559  -0.033587
     8  H   -0.033587   0.602559
 Mulliken charges:
               1
     1  C    0.005173
     2  C    0.005173
     3  Cl  -0.159637
     4  Cl  -0.159637
     5  H    0.077232
     6  H    0.077232
     7  H    0.077232
     8  H    0.077232
 Sum of Mulliken charges =  -0.00000
 Mulliken charges with hydrogens summed into heavy atoms:
               1
     1  C    0.159637
     2  C    0.159637
     3  Cl  -0.159637
     4  Cl  -0.159637
 Electronic spatial extent (au):  <R**2>=            724.0328
 Charge=             -0.0000 electrons
 Dipole moment (field-independent basis, Debye):
    X=             -0.0000    Y=              0.0000    Z=             -0.0000  Tot=              0.0000
 Quadrupole moment (field-independent basis, Debye-Ang):
   XX=            -37.6470   YY=            -45.5742   ZZ=            -37.8825
   XY=              2.0878   XZ=              0.0000   YZ=              0.0000
 Traceless Quadrupole moment (field-independent basis, Debye-Ang):
   XX=              2.7209   YY=             -5.2063   ZZ=              2.4854
   XY=              2.0878   XZ=              0.0000   YZ=              0.0000
 Octapole moment (field-independent basis, Debye-Ang**2):
  XXX=              0.0000  YYY=              0.0000  ZZZ=              0.0000  XYY=              0.0000
  XXY=              0.0000  XXZ=              0.0000  XZZ=              0.0000  YZZ=              0.0000
  YYZ=              0.0000  XYZ=              0.0000
 Hexadecapole moment (field-independent basis, Debye-Ang**3):
 XXXX=           -113.4043 YYYY=           -772.5235 ZZZZ=            -55.8866 XXXY=             64.5716
 XXXZ=              0.0000 YYYX=             49.9951 YYYZ=             -0.0000 ZZZX=              0.0000
 ZZZY=              0.0000 XXYY=           -142.6051 XXZZ=            -26.1243 YYZZ=           -141.7905
 XXYZ=             -0.0000 YYXZ=             -0.0000 ZZXY=             23.9531
 N-N= 1.936376390974D+02 E-N=-2.759200976822D+03  KE= 9.979602448373D+02
 Symmetry AG   KE= 4.525454964734D+02
 Symmetry BG   KE= 4.821528437836D+01
 Symmetry AU   KE= 4.810975374030D+01
 Symmetry BU   KE= 4.490897102453D+02
 Calling FoFJK, ICntrl=      2127 FMM=F ISym2X=1 I1Cent= 0 IOpClX= 0 NMat=1 NMatS=1 NMatT=0.
 ***** Axes restored to original set *****
 -------------------------------------------------------------------
 Center     Atomic                   Forces (Hartrees/Bohr)
 Number     Number              X              Y              Z
 -------------------------------------------------------------------
      1        6           0.000352259   -0.000460990    0.000000000
      2        6          -0.000352259    0.000460990   -0.000000000
      3       17          -0.000083541    0.000076335    0.000000000
      4       17           0.000083541   -0.000076335    0.000000000
      5        1          -0.000033213    0.000112723    0.000015532
      6        1          -0.000033213    0.000112723   -0.000015532
      7        1           0.000033213   -0.000112723    0.000015532
      8        1           0.000033213   -0.000112723   -0.000015532
 -------------------------------------------------------------------
 Cartesian Forces:  Max     0.000460990 RMS     0.000177366

 GradGradGradGradGradGradGradGradGradGradGradGradGradGradGradGradGradGrad
 Berny optimization.
 FormGI is forming the generalized inverse of G from B-inverse, IUseBI=4.
 Internal  Forces:  Max     0.000137538 RMS     0.000076216
 Search for a local minimum.
 Step number   1 out of a maximum of   38
 All quantities printed in internal units (Hartrees-Bohrs-Radians)
 Mixed Optimization -- En-DIIS/RFO-DIIS
 Second derivative matrix not updated -- first step.
 ITU=  0
     Eigenvalues ---    0.00610   0.05784   0.05784   0.05904   0.05904
     Eigenvalues ---    0.16000   0.16000   0.16000   0.16000   0.22309
     Eigenvalues ---    0.22309   0.25513   0.25513   0.31174   0.35371
     Eigenvalues ---    0.35371   0.35371   0.35371
 RFO step:  Lambda=-1.48078901D-06 EMin= 6.10365456D-03
 Linear search not attempted -- first point.
 Iteration  1 RMS(Cart)=  0.00051204 RMS(Int)=  0.00000064
 Iteration  2 RMS(Cart)=  0.00000035 RMS(Int)=  0.00000054
 ClnCor:  largest displacement from symmetrization is 1.54D-10 for atom     4.
 Variable       Old X    -DE/DX   Delta X   Delta X   Delta X     New X
                                 (Linear)    (Quad)   (Total)
    R1        2.85682   0.00000   0.00000   0.00001   0.00001   2.85683
    R2        3.41621   0.00011   0.00000   0.00043   0.00043   3.41663
    R3        2.05077  -0.00001   0.00000  -0.00002  -0.00002   2.05076
    R4        2.05077  -0.00001   0.00000  -0.00002  -0.00002   2.05076
    R5        3.41621   0.00011   0.00000   0.00043   0.00043   3.41663
    R6        2.05077  -0.00001   0.00000  -0.00002  -0.00002   2.05076
    R7        2.05077  -0.00001   0.00000  -0.00002  -0.00002   2.05076
    A1        1.90780  -0.00014   0.00000  -0.00090  -0.00090   1.90690
    A2        1.94827   0.00011   0.00000   0.00086   0.00086   1.94914
    A3        1.94827   0.00011   0.00000   0.00086   0.00086   1.94914
    A4        1.87040  -0.00003   0.00000  -0.00074  -0.00074   1.86966
    A5        1.87040  -0.00003   0.00000  -0.00074  -0.00074   1.86966
    A6        1.91537  -0.00004   0.00000   0.00051   0.00051   1.91588
    A7        1.90780  -0.00014   0.00000  -0.00090  -0.00090   1.90690
    A8        1.94827   0.00011   0.00000   0.00086   0.00086   1.94914
    A9        1.94827   0.00011   0.00000   0.00086   0.00086   1.94914
   A10        1.87040  -0.00003   0.00000  -0.00074  -0.00074   1.86966
   A11        1.87040  -0.00003   0.00000  -0.00074  -0.00074   1.86966
   A12        1.91537  -0.00004   0.00000   0.00051   0.00051   1.91588
    D1        3.14159  -0.00000   0.00000   0.00000   0.00000   3.14159
    D2       -1.07545  -0.00006   0.00000  -0.00096  -0.00097  -1.07641
    D3        1.07545   0.00006   0.00000   0.00096   0.00097   1.07641
    D4       -1.07545  -0.00006   0.00000  -0.00096  -0.00097  -1.07641
    D5        0.99070  -0.00012   0.00000  -0.00193  -0.00193   0.98877
    D6        3.14159  -0.00000   0.00000  -0.00000   0.00000   3.14159
    D7        1.07545   0.00006   0.00000   0.00096   0.00097   1.07641
    D8        3.14159   0.00000   0.00000   0.00000   0.00000   3.14159
    D9       -0.99070   0.00012   0.00000   0.00193   0.00193  -0.98877
         Item               Value     Threshold  Converged?
 Maximum Force            0.000138     0.000450     YES
 RMS     Force            0.000076     0.000300     YES
 Maximum Displacement     0.000887     0.001800     YES
 RMS     Displacement     0.000512     0.001200     YES
 Predicted change in Energy=-7.411711D-07
 Optimization completed.
    -- Stationary point found.
                           ----------------------------
                           !   Optimized Parameters   !
                           ! (Angstroms and Degrees)  !
 --------------------------                            --------------------------
 ! Name  Definition              Value          Derivative Info.                !
 --------------------------------------------------------------------------------
 ! R1    R(1,2)                  1.5118         -DE/DX =    0.0                 !
 ! R2    R(1,3)                  1.8078         -DE/DX =    0.0001              !
 ! R3    R(1,5)                  1.0852         -DE/DX =    0.0                 !
 ! R4    R(1,6)                  1.0852         -DE/DX =    0.0                 !
 ! R5    R(2,4)                  1.8078         -DE/DX =    0.0001              !
 ! R6    R(2,7)                  1.0852         -DE/DX =    0.0                 !
 ! R7    R(2,8)                  1.0852         -DE/DX =    0.0                 !
 ! A1    A(2,1,3)              109.3091         -DE/DX =   -0.0001              !
 ! A2    A(2,1,5)              111.6279         -DE/DX =    0.0001              !
 ! A3    A(2,1,6)              111.6279         -DE/DX =    0.0001              !
 ! A4    A(3,1,5)              107.1661         -DE/DX =    0.0                 !
 ! A5    A(3,1,6)              107.1661         -DE/DX =    0.0                 !
 ! A6    A(5,1,6)              109.7427         -DE/DX =    0.0                 !
 ! A7    A(1,2,4)              109.3091         -DE/DX =   -0.0001              !
 ! A8    A(1,2,7)              111.6279         -DE/DX =    0.0001              !
 ! A9    A(1,2,8)              111.6279         -DE/DX =    0.0001              !
 ! A10   A(4,2,7)              107.1661         -DE/DX =    0.0                 !
 ! A11   A(4,2,8)              107.1661         -DE/DX =    0.0                 !
 ! A12   A(7,2,8)              109.7427         -DE/DX =    0.0                 !
 ! D1    D(3,1,2,4)            180.0            -DE/DX =    0.0                 !
 ! D2    D(3,1,2,7)            -61.6186         -DE/DX =   -0.0001              !
 ! D3    D(3,1,2,8)             61.6186         -DE/DX =    0.0001              !
 ! D4    D(5,1,2,4)            -61.6186         -DE/DX =   -0.0001              !
 ! D5    D(5,1,2,7)             56.7629         -DE/DX =   -0.0001              !
 ! D6    D(5,1,2,8)            180.0            -DE/DX =    0.0                 !
 ! D7    D(6,1,2,4)             61.6186         -DE/DX =    0.0001              !
 ! D8    D(6,1,2,7)            180.0            -DE/DX =    0.0                 !
 ! D9    D(6,1,2,8)            -56.7629         -DE/DX =    0.0001              !
 --------------------------------------------------------------------------------
 GradGradGradGradGradGradGradGradGradGradGradGradGradGradGradGradGradGrad

                          Input orientation:                          
 ---------------------------------------------------------------------
 Center     Atomic      Atomic             Coordinates (Angstroms)
 Number     Number       Type             X           Y           Z
 ---------------------------------------------------------------------
      1          6           0        0.475325    0.587726    0.000000
      2          6           0       -0.475325   -0.587726    0.000000
      3         17           0       -0.475325    2.125363    0.000000
      4         17           0        0.475325   -2.125363    0.000000
      5          1           0        1.099705    0.597185    0.887561
      6          1           0        1.099705    0.597185   -0.887561
      7          1           0       -1.099705   -0.597185    0.887561
      8          1           0       -1.099705   -0.597185   -0.887561
 ---------------------------------------------------------------------
                    Distance matrix (angstroms):
                    1          2          3          4          5
     1  C    0.000000
     2  C    1.511761   0.000000
     3  Cl   1.807778   2.713089   0.000000
     4  Cl   2.713089   1.807778   4.355733   0.000000
     5  H    1.085221   2.161596   2.367237   2.930850   0.000000
     6  H    1.085221   2.161596   2.367237   2.930850   1.775122
     7  H    2.161596   1.085221   2.930850   2.367237   2.502783
     8  H    2.161596   1.085221   2.930850   2.367237   3.068384
                    6          7          8
     6  H    0.000000
     7  H    3.068384   0.000000
     8  H    2.502783   1.775122   0.000000
 Stoichiometry    C2H4Cl2
 Framework group  C2H[SGH(C2Cl2),X(H4)]
 Deg. of freedom     6
 Full point group                 C2H     NOp   4
 Largest Abelian subgroup         C2H     NOp   4
 Largest concise Abelian subgroup C2H     NOp   4
                         Standard orientation:                         
 ---------------------------------------------------------------------
 Center     Atomic      Atomic             Coordinates (Angstroms)
 Number     Number       Type             X           Y           Z
 ---------------------------------------------------------------------
      1          6           0        0.475325    0.587726    0.000000
      2          6           0       -0.475325   -0.587726    0.000000
      3         17           0       -0.475325    2.125363    0.000000
      4         17           0        0.475325   -2.125363    0.000000
      5          1           0        1.099705    0.597185    0.887561
      6          1           0        1.099705    0.597185   -0.887561
      7          1           0       -1.099705   -0.597185    0.887561
      8          1           0       -1.099705   -0.597185   -0.887561
 ---------------------------------------------------------------------
 Rotational constants (GHZ):          29.3568161           1.4825563           1.4367680
 1\1\GINC-GAMBA\FOpt\RB3LYP\Gen\C2H4Cl2\IRIKURA\29-Sep-2023\0\\# b3lyp/
 gen opt freq CPHF(Grid=OneStep)\\1,2-dichloroethane, B3LYP/pcseg-2\\0,
 1\C,0.475325,0.587726,0.\C,-0.475325,-0.587726,0.\Cl,-0.475325,2.12536
 3,0.\Cl,0.475325,-2.125363,0.\H,1.099705,0.597185,0.887561\H,1.099705,
 0.597185,-0.887561\H,-1.099705,-0.597185,0.887561\H,-1.099705,-0.59718
 5,-0.887561\\Version=ES64L-G16RevB.01\State=1-AG\HF=-999.1342798\RMSD=
 8.605e-09\RMSF=1.774e-04\Dipole=0.,0.,0.\Quadrupole=2.0228993,-3.87076
 68,1.8478675,1.5522255,0.,0.\PG=C02H [SGH(C2Cl2),X(H4)]\\@


 THE WORLD OF CHEMICAL REACTIONS IS LIKE A STAGE,
 ON WHICH SCENE AFTER SCENE IS CEASELESSLY PLAYED.
 THE ACTORS ON IT ARE THE ELEMENTS.
   -- CLEMENS WINKLER   BER. 30,13(1897)
 (DISCOVERER OF GERMANIUM, FEB 6, 1886)
 Job cpu time:       0 days  0 hours  0 minutes 40.5 seconds.
 Elapsed time:       0 days  0 hours  0 minutes 10.3 seconds.
 File lengths (MBytes):  RWF=     20 Int=      0 D2E=      0 Chk=      3 Scr=      1
 Normal termination of Gaussian 16 at Fri Sep 29 18:32:06 2023.
 Link1:  Proceeding to internal job step number  2.
 ------------------------------------------------------------------
 #N Geom=AllCheck Guess=TCheck SCRF=Check GenChk RB3LYP/ChkBas Freq
 ------------------------------------------------------------------
 1/10=4,29=7,30=1,38=1,40=1/1,3;
 2/12=2,40=1/2;
 3/5=7,6=2,11=2,14=-4,25=1,30=1,67=1,70=2,71=2,74=-5,82=7,116=1,140=1/1,2,3;
 4/5=101/1;
 5/5=2,38=6,98=1/2;
 8/6=4,10=90,11=11/1;
 11/6=1,8=1,9=11,15=111,16=1/1,2,10;
 10/6=1,60=-420/2;
 6/7=2,8=2,9=2,10=2,28=1/1;
 7/8=1,10=1,25=1/1,2,3,16;
 1/10=4,30=1/3;
 99//99;
 Structure from the checkpoint file:  "ch2clch2cl.chk"
 ---------------------------------
 1,2-dichloroethane, B3LYP/pcseg-2
 ---------------------------------
 Charge =  0 Multiplicity = 1
 Redundant internal coordinates found in file.  (old form).
 C,0,0.475325,0.587726,0.
 C,0,-0.475325,-0.587726,0.
 Cl,0,-0.475325,2.125363,0.
 Cl,0,0.475325,-2.125363,0.
 H,0,1.099705,0.597185,0.887561
 H,0,1.099705,0.597185,-0.887561
 H,0,-1.099705,-0.597185,0.887561
 H,0,-1.099705,-0.597185,-0.887561
 Recover connectivity data from disk.

 GradGradGradGradGradGradGradGradGradGradGradGradGradGradGradGradGradGrad
 Berny optimization.
 Initialization pass.
                           ----------------------------
                           !    Initial Parameters    !
                           ! (Angstroms and Degrees)  !
 --------------------------                            --------------------------
 ! Name  Definition              Value          Derivative Info.                !
 --------------------------------------------------------------------------------
 ! R1    R(1,2)                  1.5118         calculate D2E/DX2 analytically  !
 ! R2    R(1,3)                  1.8078         calculate D2E/DX2 analytically  !
 ! R3    R(1,5)                  1.0852         calculate D2E/DX2 analytically  !
 ! R4    R(1,6)                  1.0852         calculate D2E/DX2 analytically  !
 ! R5    R(2,4)                  1.8078         calculate D2E/DX2 analytically  !
 ! R6    R(2,7)                  1.0852         calculate D2E/DX2 analytically  !
 ! R7    R(2,8)                  1.0852         calculate D2E/DX2 analytically  !
 ! A1    A(2,1,3)              109.3091         calculate D2E/DX2 analytically  !
 ! A2    A(2,1,5)              111.6279         calculate D2E/DX2 analytically  !
 ! A3    A(2,1,6)              111.6279         calculate D2E/DX2 analytically  !
 ! A4    A(3,1,5)              107.1661         calculate D2E/DX2 analytically  !
 ! A5    A(3,1,6)              107.1661         calculate D2E/DX2 analytically  !
 ! A6    A(5,1,6)              109.7427         calculate D2E/DX2 analytically  !
 ! A7    A(1,2,4)              109.3091         calculate D2E/DX2 analytically  !
 ! A8    A(1,2,7)              111.6279         calculate D2E/DX2 analytically  !
 ! A9    A(1,2,8)              111.6279         calculate D2E/DX2 analytically  !
 ! A10   A(4,2,7)              107.1661         calculate D2E/DX2 analytically  !
 ! A11   A(4,2,8)              107.1661         calculate D2E/DX2 analytically  !
 ! A12   A(7,2,8)              109.7427         calculate D2E/DX2 analytically  !
 ! D1    D(3,1,2,4)            180.0            calculate D2E/DX2 analytically  !
 ! D2    D(3,1,2,7)            -61.6186         calculate D2E/DX2 analytically  !
 ! D3    D(3,1,2,8)             61.6186         calculate D2E/DX2 analytically  !
 ! D4    D(5,1,2,4)            -61.6186         calculate D2E/DX2 analytically  !
 ! D5    D(5,1,2,7)             56.7629         calculate D2E/DX2 analytically  !
 ! D6    D(5,1,2,8)            180.0            calculate D2E/DX2 analytically  !
 ! D7    D(6,1,2,4)             61.6186         calculate D2E/DX2 analytically  !
 ! D8    D(6,1,2,7)            180.0            calculate D2E/DX2 analytically  !
 ! D9    D(6,1,2,8)            -56.7629         calculate D2E/DX2 analytically  !
 --------------------------------------------------------------------------------
 Trust Radius=3.00D-01 FncErr=1.00D-07 GrdErr=1.00D-07 EigMax=2.50D+02 EigMin=1.00D-04
 Number of steps in this run=      2 maximum allowed number of steps=      2.
 GradGradGradGradGradGradGradGradGradGradGradGradGradGradGradGradGradGrad

                          Input orientation:                          
 ---------------------------------------------------------------------
 Center     Atomic      Atomic             Coordinates (Angstroms)
 Number     Number       Type             X           Y           Z
 ---------------------------------------------------------------------
      1          6           0        0.475325    0.587726    0.000000
      2          6           0       -0.475325   -0.587726    0.000000
      3         17           0       -0.475325    2.125363    0.000000
      4         17           0        0.475325   -2.125363    0.000000
      5          1           0        1.099705    0.597185    0.887561
      6          1           0        1.099705    0.597185   -0.887561
      7          1           0       -1.099705   -0.597185    0.887561
      8          1           0       -1.099705   -0.597185   -0.887561
 ---------------------------------------------------------------------
                    Distance matrix (angstroms):
                    1          2          3          4          5
     1  C    0.000000
     2  C    1.511761   0.000000
     3  Cl   1.807778   2.713089   0.000000
     4  Cl   2.713089   1.807778   4.355733   0.000000
     5  H    1.085221   2.161596   2.367237   2.930850   0.000000
     6  H    1.085221   2.161596   2.367237   2.930850   1.775122
     7  H    2.161596   1.085221   2.930850   2.367237   2.502783
     8  H    2.161596   1.085221   2.930850   2.367237   3.068384
                    6          7          8
     6  H    0.000000
     7  H    3.068384   0.000000
     8  H    2.502783   1.775122   0.000000
 Stoichiometry    C2H4Cl2
 Framework group  C2H[SGH(C2Cl2),X(H4)]
 Deg. of freedom     6
 Full point group                 C2H     NOp   4
 Largest Abelian subgroup         C2H     NOp   4
 Largest concise Abelian subgroup C2H     NOp   4
                         Standard orientation:                         
 ---------------------------------------------------------------------
 Center     Atomic      Atomic             Coordinates (Angstroms)
 Number     Number       Type             X           Y           Z
 ---------------------------------------------------------------------
      1          6           0        0.475325    0.587726    0.000000
      2          6           0       -0.475325   -0.587726    0.000000
      3         17           0       -0.475325    2.125363    0.000000
      4         17           0        0.475325   -2.125363    0.000000
      5          1           0        1.099705    0.597185    0.887561
      6          1           0        1.099705    0.597185   -0.887561
      7          1           0       -1.099705   -0.597185    0.887561
      8          1           0       -1.099705   -0.597185   -0.887561
 ---------------------------------------------------------------------
 Rotational constants (GHZ):          29.3568161           1.4825563           1.4367680
 Basis read from chk: "ch2clch2cl.chk" (5D, 7F)
 There are    66 symmetry adapted cartesian basis functions of AG  symmetry.
 There are    38 symmetry adapted cartesian basis functions of BG  symmetry.
 There are    38 symmetry adapted cartesian basis functions of AU  symmetry.
 There are    66 symmetry adapted cartesian basis functions of BU  symmetry.
 There are    57 symmetry adapted basis functions of AG  symmetry.
 There are    35 symmetry adapted basis functions of BG  symmetry.
 There are    35 symmetry adapted basis functions of AU  symmetry.
 There are    57 symmetry adapted basis functions of BU  symmetry.
   184 basis functions,   314 primitive gaussians,   208 cartesian basis functions
    25 alpha electrons       25 beta electrons
       nuclear repulsion energy       193.6376390974 Hartrees.
 NAtoms=    8 NActive=    8 NUniq=    3 SFac= 4.00D+00 NAtFMM=   60 NAOKFM=F Big=F
 Integral buffers will be    131072 words long.
 Raffenetti 2 integral format.
 Two-electron integral symmetry is turned on.
 One-electron integrals computed using PRISM.
 NBasis=   184 RedAO= T EigKep=  7.14D-04  NBF=    57    35    35    57
 NBsUse=   184 1.00D-06 EigRej= -1.00D+00 NBFU=    57    35    35    57
 Initial guess from the checkpoint file:  "ch2clch2cl.chk"
 B after Tr=     0.000000    0.000000    0.000000
         Rot=    1.000000    0.000000   -0.000000   -0.000000 Ang=   0.00 deg.
 Initial guess orbital symmetries:
       Occupied  (BU) (AG) (AG) (BU) (AG) (BU) (AG) (BU) (BU) (AG)
                 (AU) (BG) (AG) (BU) (AG) (BU) (AU) (BU) (AG) (BG)
                 (AG) (BU) (BG) (AU) (AG)
       Virtual   (BU) (AG) (BU) (AU) (AG) (BG) (BU) (AG) (BU) (AG)
                 (AU) (BG) (AG) (BU) (BU) (AU) (AG) (BG) (BU) (AU)
                 (AG) (BG) (BU) (BU) (AG) (AU) (BU) (BG) (AG) (AU)
                 (BU) (AG) (AG) (BU) (BG) (AU) (BG) (AG) (BU) (AU)
                 (AG) (BG) (BU) (BG) (AG) (AU) (BU) (BU) (AG) (BU)
                 (BG) (AG) (AU) (AG) (AU) (BU) (BG) (BU) (AG) (AU)
                 (BU) (AG) (BG) (AG) (BU) (AG) (BU) (AU) (BG) (AG)
                 (AU) (BG) (BU) (BG) (BU) (AG) (AU) (AG) (BU) (AG)
                 (BG) (BU) (AG) (AU) (BU) (AG) (BG) (AG) (AU) (BU)
                 (AG) (BU) (AU) (BU) (AG) (AU) (BG) (BU) (BG) (AU)
                 (AG) (BG) (BU) (AU) (BU) (BG) (AG) (BG) (AU) (AU)
                 (AG) (BU) (AG) (BG) (AU) (AG) (BG) (BU) (BU) (AG)
                 (AU) (BU) (BG) (BU) (AU) (AG) (BU) (BU) (AG) (BG)
                 (AU) (BG) (BU) (AG) (AU) (AG) (BU) (AG) (BG) (BU)
                 (AU) (AG) (AG) (AG) (BG) (BU) (AU) (AG) (BG) (BG)
                 (BU) (BU) (BG) (AG) (AU) (AU) (BU) (AG) (BU)
 Keep R1 ints in memory in symmetry-blocked form, NReq=181249487.
 Requested convergence on RMS density matrix=1.00D-08 within 128 cycles.
 Requested convergence on MAX density matrix=1.00D-06.
 Requested convergence on             energy=1.00D-06.
 No special actions if energy rises.
 SCF Done:  E(RB3LYP) =  -999.134279848     A.U. after    1 cycles
            NFock=  1  Conv=0.18D-08     -V/T= 2.0012
 DoSCS=F DFT=T ScalE2(SS,OS)=  1.000000  1.000000
 Range of M.O.s used for correlation:     1   184
 NBasis=   184 NAE=    25 NBE=    25 NFC=     0 NFV=     0
 NROrb=    184 NOA=    25 NOB=    25 NVA=   159 NVB=   159
 Symmetrizing basis deriv contribution to polar:
 IMax=3 JMax=2 DiffMx= 0.00D+00
 G2DrvN: will do     9 centers at a time, making    1 passes.
 Calling FoFCou, ICntrl=  3107 FMM=F I1Cent=   0 AccDes= 0.00D+00.
 End of G2Drv F.D. properties file   721 does not exist.
 End of G2Drv F.D. properties file   722 does not exist.
 End of G2Drv F.D. properties file   788 does not exist.
          IDoAtm=11111111
          Differentiating once with respect to electric field.
                with respect to dipole field.
          Differentiating once with respect to nuclear coordinates.
 Keep R1 ints in memory in symmetry-blocked form, NReq=181254500.
          There are    12 degrees of freedom in the 1st order CPHF.  IDoFFX=4 NUNeed=    12.
     12 vectors produced by pass  0 Test12= 3.31D-14 8.33D-09 XBig12= 4.53D+01 3.69D+00.
 AX will form    12 AO Fock derivatives at one time.
     12 vectors produced by pass  1 Test12= 3.31D-14 8.33D-09 XBig12= 5.14D+00 6.25D-01.
     12 vectors produced by pass  2 Test12= 3.31D-14 8.33D-09 XBig12= 3.01D-01 1.31D-01.
     12 vectors produced by pass  3 Test12= 3.31D-14 8.33D-09 XBig12= 4.94D-03 1.45D-02.
     12 vectors produced by pass  4 Test12= 3.31D-14 8.33D-09 XBig12= 4.26D-05 1.27D-03.
     12 vectors produced by pass  5 Test12= 3.31D-14 8.33D-09 XBig12= 1.90D-07 8.26D-05.
      9 vectors produced by pass  6 Test12= 3.31D-14 8.33D-09 XBig12= 7.90D-10 5.41D-06.
      4 vectors produced by pass  7 Test12= 3.31D-14 8.33D-09 XBig12= 2.42D-12 3.12D-07.
      2 vectors produced by pass  8 Test12= 3.31D-14 8.33D-09 XBig12= 9.52D-15 1.91D-08.
 InvSVY:  IOpt=1 It=  1 EMax= 1.70D-15
 Solved reduced A of dimension    87 with    12 vectors.
 Isotropic polarizability for W=    0.000000       48.72 Bohr**3.
 End of Minotr F.D. properties file   721 does not exist.
 End of Minotr F.D. properties file   722 does not exist.
 End of Minotr F.D. properties file   788 does not exist.

 **********************************************************************

            Population analysis using the SCF Density.

 **********************************************************************

 Orbital symmetries:
       Occupied  (BU) (AG) (AG) (BU) (AG) (BU) (AG) (BU) (BU) (AG)
                 (AU) (BG) (AG) (BU) (AG) (BU) (AU) (BU) (AG) (BG)
                 (AG) (BU) (BG) (AU) (AG)
       Virtual   (BU) (AG) (BU) (AU) (AG) (BG) (BU) (AG) (BU) (AG)
                 (AU) (BG) (AG) (BU) (BU) (AU) (AG) (BG) (BU) (AU)
                 (AG) (BG) (BU) (BU) (AG) (AU) (BU) (BG) (AG) (AU)
                 (BU) (AG) (AG) (BU) (BG) (AU) (BG) (AG) (BU) (AU)
                 (AG) (BG) (BU) (BG) (AG) (AU) (BU) (BU) (AG) (BU)
                 (BG) (AG) (AU) (AG) (AU) (BU) (BG) (BU) (AG) (AU)
                 (BU) (AG) (BG) (AG) (BU) (AG) (BU) (AU) (BG) (AG)
                 (AU) (BG) (BU) (BG) (BU) (AG) (AU) (AG) (BU) (AG)
                 (BG) (BU) (AG) (AU) (BU) (AG) (BG) (AG) (AU) (BU)
                 (AG) (BU) (AU) (BU) (AG) (AU) (BG) (BU) (BG) (AU)
                 (AG) (BG) (BU) (AU) (BU) (BG) (AG) (BG) (AU) (AU)
                 (AG) (BU) (AG) (BG) (AU) (AG) (BG) (BU) (BU) (AG)
                 (AU) (BU) (BG) (BU) (AU) (AG) (BU) (BU) (AG) (BG)
                 (AU) (BG) (BU) (AG) (AU) (AG) (BU) (AG) (BG) (BU)
                 (AU) (AG) (AG) (AG) (BG) (BU) (AU) (AG) (BG) (BG)
                 (BU) (BU) (BG) (AG) (AU) (AU) (BU) (AG) (BU)
 The electronic state is 1-AG.
 Alpha  occ. eigenvalues -- -101.51431-101.51431 -10.25215 -10.25189  -9.45942
 Alpha  occ. eigenvalues --   -9.45942  -7.22101  -7.22101  -7.21226  -7.21226
 Alpha  occ. eigenvalues --   -7.21204  -7.21204  -0.89158  -0.85065  -0.73356
 Alpha  occ. eigenvalues --   -0.63875  -0.51506  -0.46450  -0.45521  -0.42340
 Alpha  occ. eigenvalues --   -0.39983  -0.32635  -0.31678  -0.31330  -0.31182
 Alpha virt. eigenvalues --   -0.01147  -0.00032   0.03846   0.04584   0.04834
 Alpha virt. eigenvalues --    0.08106   0.10050   0.13401   0.17310   0.20260
 Alpha virt. eigenvalues --    0.20544   0.22068   0.25715   0.26463   0.28784
 Alpha virt. eigenvalues --    0.30096   0.30470   0.30853   0.32518   0.35781
 Alpha virt. eigenvalues --    0.35933   0.36438   0.38246   0.41243   0.43292
 Alpha virt. eigenvalues --    0.49238   0.51010   0.56022   0.56941   0.58658
 Alpha virt. eigenvalues --    0.64147   0.64618   0.68273   0.70029   0.70129
 Alpha virt. eigenvalues --    0.76566   0.80575   0.82410   0.89242   0.92951
 Alpha virt. eigenvalues --    0.93520   0.96308   1.00339   1.03000   1.03424
 Alpha virt. eigenvalues --    1.04751   1.06062   1.12834   1.14959   1.19834
 Alpha virt. eigenvalues --    1.21026   1.31510   1.32463   1.36710   1.38775
 Alpha virt. eigenvalues --    1.40397   1.55938   1.58192   1.69079   1.69790
 Alpha virt. eigenvalues --    1.72713   1.77770   1.89404   1.89679   1.90459
 Alpha virt. eigenvalues --    1.96165   2.10301   2.11221   2.11725   2.12157
 Alpha virt. eigenvalues --    2.12284   2.13211   2.14700   2.17472   2.17956
 Alpha virt. eigenvalues --    2.19144   2.20178   2.22105   2.22486   2.23156
 Alpha virt. eigenvalues --    2.23879   2.24489   2.27751   2.36269   2.39899
 Alpha virt. eigenvalues --    2.47530   2.54374   2.63731   2.68028   2.68854
 Alpha virt. eigenvalues --    3.10280   3.11739   3.13757   3.20305   3.24856
 Alpha virt. eigenvalues --    3.28961   3.29661   3.36878   3.41741   3.46644
 Alpha virt. eigenvalues --    3.52213   3.52450   3.53025   3.53871   3.58599
 Alpha virt. eigenvalues --    3.62417   3.64023   3.68965   3.69293   3.84642
 Alpha virt. eigenvalues --    3.87681   3.87938   3.94290   3.94913   3.98580
 Alpha virt. eigenvalues --    4.04543   4.07258   4.10207   4.18164   4.27477
 Alpha virt. eigenvalues --    4.32324   4.34642   4.40234   4.41454   4.42572
 Alpha virt. eigenvalues --    4.46789   4.47936   4.51615   4.52546   4.54418
 Alpha virt. eigenvalues --    4.61782   4.62646   4.72551   4.72624   4.74361
 Alpha virt. eigenvalues --    4.82988   4.98018   5.05689   5.07405   5.22421
 Alpha virt. eigenvalues --    5.23543   5.29644   5.34979   5.41614   5.43405
 Alpha virt. eigenvalues --    5.61015   5.61408   5.62029   5.65532   5.72222
 Alpha virt. eigenvalues --    5.75356   5.87444   5.90329   5.99227   5.99453
 Alpha virt. eigenvalues --    6.13756   6.19032  32.75308  32.90594
          Condensed to atoms (all electrons):
               1          2          3          4          5          6
     1  C    4.688078   0.316408   0.241386  -0.037439   0.430775   0.430775
     2  C    0.316408   4.688078  -0.037439   0.241386  -0.037578  -0.037578
     3  Cl   0.241386  -0.037439  17.022998   0.006974  -0.042208  -0.042208
     4  Cl  -0.037439   0.241386   0.006974  17.022998   0.005067   0.005067
     5  H    0.430775  -0.037578  -0.042208   0.005067   0.602559  -0.033587
     6  H    0.430775  -0.037578  -0.042208   0.005067  -0.033587   0.602559
     7  H   -0.037578   0.430775   0.005067  -0.042208  -0.013833   0.011572
     8  H   -0.037578   0.430775   0.005067  -0.042208   0.011572  -0.013833
               7          8
     1  C   -0.037578  -0.037578
     2  C    0.430775   0.430775
     3  Cl   0.005067   0.005067
     4  Cl  -0.042208  -0.042208
     5  H   -0.013833   0.011572
     6  H    0.011572  -0.013833
     7  H    0.602559  -0.033587
     8  H   -0.033587   0.602559
 Mulliken charges:
               1
     1  C    0.005173
     2  C    0.005173
     3  Cl  -0.159637
     4  Cl  -0.159637
     5  H    0.077232
     6  H    0.077232
     7  H    0.077232
     8  H    0.077232
 Sum of Mulliken charges =   0.00000
 Mulliken charges with hydrogens summed into heavy atoms:
               1
     1  C    0.159637
     2  C    0.159637
     3  Cl  -0.159637
     4  Cl  -0.159637
 APT charges:
               1
     1  C    0.357428
     2  C    0.357428
     3  Cl  -0.343087
     4  Cl  -0.343087
     5  H   -0.007170
     6  H   -0.007170
     7  H   -0.007170
     8  H   -0.007170
 Sum of APT charges =   0.00000
 APT charges with hydrogens summed into heavy atoms:
               1
     1  C    0.343087
     2  C    0.343087
     3  Cl  -0.343087
     4  Cl  -0.343087
 Electronic spatial extent (au):  <R**2>=            724.0328
 Charge=             -0.0000 electrons
 Dipole moment (field-independent basis, Debye):
    X=              0.0000    Y=             -0.0000    Z=              0.0000  Tot=              0.0000
 Quadrupole moment (field-independent basis, Debye-Ang):
   XX=            -37.6470   YY=            -45.5742   ZZ=            -37.8825
   XY=              2.0878   XZ=              0.0000   YZ=              0.0000
 Traceless Quadrupole moment (field-independent basis, Debye-Ang):
   XX=              2.7209   YY=             -5.2063   ZZ=              2.4854
   XY=              2.0878   XZ=              0.0000   YZ=              0.0000
 Octapole moment (field-independent basis, Debye-Ang**2):
  XXX=              0.0000  YYY=              0.0000  ZZZ=             -0.0000  XYY=             -0.0000
  XXY=              0.0000  XXZ=             -0.0000  XZZ=              0.0000  YZZ=             -0.0000
  YYZ=              0.0000  XYZ=              0.0000
 Hexadecapole moment (field-independent basis, Debye-Ang**3):
 XXXX=           -113.4044 YYYY=           -772.5236 ZZZZ=            -55.8866 XXXY=             64.5716
 XXXZ=              0.0000 YYYX=             49.9951 YYYZ=             -0.0000 ZZZX=              0.0000
 ZZZY=             -0.0000 XXYY=           -142.6051 XXZZ=            -26.1243 YYZZ=           -141.7905
 XXYZ=             -0.0000 YYXZ=             -0.0000 ZZXY=             23.9531
 N-N= 1.936376390974D+02 E-N=-2.759200971813D+03  KE= 9.979602429739D+02
 Symmetry AG   KE= 4.525454957932D+02
 Symmetry BG   KE= 4.821528416434D+01
 Symmetry AU   KE= 4.810975352051D+01
 Symmetry BU   KE= 4.490897094959D+02
  Exact polarizability:  42.900  -9.383  66.976   0.000   0.000  36.278
 Approx polarizability:  64.292 -16.536  90.628  -0.000  -0.000  54.161
 Calling FoFJK, ICntrl=    100127 FMM=F ISym2X=1 I1Cent= 0 IOpClX= 0 NMat=1 NMatS=1 NMatT=0.
 Full mass-weighted force constant matrix:
 Low frequencies ---  -17.2926   -4.4260   -3.5985   -0.0033   -0.0021    0.0016
 Low frequencies ---  114.4447  214.0832  296.3921
 Diagonal vibrational polarizability:
        3.6541738       8.3622850      14.4582275
 Harmonic frequencies (cm**-1), IR intensities (KM/Mole), Raman scattering
 activities (A**4/AMU), depolarization ratios for plane and unpolarized
 incident light, reduced masses (AMU), force constants (mDyne/A),
 and normal coordinates:
                      1                      2                      3
                     AU                     BU                     AG
 Frequencies --    114.4447               214.0832               296.3920
 Red. masses --      4.0527                 5.2763                16.9349
 Frc consts  --      0.0313                 0.1425                 0.8765
 IR Inten    --      6.9692                 9.6119                 0.0000
  Atom  AN      X      Y      Z        X      Y      Z        X      Y      Z
     1   6    -0.00  -0.00   0.30     0.31   0.18   0.00    -0.14   0.17   0.00
     2   6     0.00   0.00   0.30     0.31   0.18  -0.00     0.14  -0.17   0.00
     3  17     0.00  -0.00  -0.13    -0.12  -0.08  -0.00    -0.07   0.46  -0.00
     4  17    -0.00   0.00  -0.13    -0.12  -0.08   0.00     0.07  -0.46  -0.00
     5   1    -0.14   0.14   0.40     0.30   0.30   0.01    -0.14   0.31  -0.00
     6   1     0.14  -0.14   0.40     0.30   0.30  -0.01    -0.14   0.31   0.00
     7   1     0.14  -0.14   0.40     0.30   0.30  -0.01     0.14  -0.31  -0.00
     8   1    -0.14   0.14   0.40     0.30   0.30   0.01     0.14  -0.31   0.00
                      4                      5                      6
                     BU                     AG                     AU
 Frequencies --    702.5293               747.6690               779.4204
 Red. masses --      8.8476                 5.2959                 1.1082
 Frc consts  --      2.5728                 1.7443                 0.3967
 IR Inten    --    102.9209                 0.0000                 2.3919
  Atom  AN      X      Y      Z        X      Y      Z        X      Y      Z
     1   6    -0.25   0.43   0.00     0.28  -0.28  -0.00     0.00  -0.00   0.07
     2   6    -0.25   0.43  -0.00    -0.28   0.28  -0.00    -0.00   0.00   0.07
     3  17     0.10  -0.16  -0.00    -0.08   0.07   0.00    -0.00   0.00  -0.01
     4  17     0.10  -0.16   0.00     0.08  -0.07   0.00     0.00  -0.00  -0.01
     5   1    -0.20   0.26  -0.03     0.20  -0.35   0.05     0.42   0.12  -0.23
     6   1    -0.20   0.26   0.03     0.20  -0.35  -0.05    -0.42  -0.12  -0.23
     7   1    -0.20   0.26   0.03    -0.20   0.35   0.05    -0.42  -0.12  -0.23
     8   1    -0.20   0.26  -0.03    -0.20   0.35  -0.05     0.42   0.12  -0.23
                      7                      8                      9
                     BG                     AG                     AU
 Frequencies --   1005.3010              1058.7193              1138.5868
 Red. masses --      1.3580                 4.2511                 1.0425
 Frc consts  --      0.8086                 2.8075                 0.7962
 IR Inten    --      0.0000                 0.0000                 1.2460
  Atom  AN      X      Y      Z        X      Y      Z        X      Y      Z
     1   6    -0.00  -0.00   0.12     0.29   0.26  -0.00     0.00   0.00  -0.03
     2   6    -0.00  -0.00  -0.12    -0.29  -0.26  -0.00    -0.00  -0.00  -0.03
     3  17     0.00   0.00  -0.02    -0.00  -0.01  -0.00    -0.00   0.00   0.01
     4  17     0.00   0.00   0.02     0.00   0.01  -0.00     0.00  -0.00   0.01
     5   1     0.38  -0.29  -0.13     0.30   0.29  -0.00    -0.09   0.49   0.01
     6   1    -0.38   0.29  -0.13     0.30   0.29   0.00     0.09  -0.49   0.01
     7   1     0.38  -0.29   0.13    -0.30  -0.29  -0.00     0.09  -0.49   0.01
     8   1    -0.38   0.29   0.13    -0.30  -0.29   0.00    -0.09   0.49   0.01
                     10                     11                     12
                     BU                     BG                     AG
 Frequencies --   1258.4437              1296.8808              1332.3653
 Red. masses --      1.1444                 1.1649                 1.2325
 Frc consts  --      1.0679                 1.1543                 1.2891
 IR Inten    --     38.2438                 0.0000                 0.0000
  Atom  AN      X      Y      Z        X      Y      Z        X      Y      Z
     1   6    -0.02  -0.07  -0.00    -0.00  -0.00   0.08     0.02  -0.10   0.00
     2   6    -0.02  -0.07   0.00    -0.00  -0.00  -0.08    -0.02   0.10   0.00
     3  17     0.01  -0.00  -0.00     0.00   0.00   0.00     0.01  -0.00   0.00
     4  17     0.01  -0.00   0.00     0.00   0.00  -0.00    -0.01   0.00   0.00
     5   1    -0.06   0.49   0.01     0.17   0.46  -0.05    -0.08   0.49   0.05
     6   1    -0.06   0.49  -0.01    -0.17  -0.46  -0.05    -0.08   0.49  -0.05
     7   1    -0.06   0.49  -0.01     0.17   0.46   0.05     0.08  -0.49   0.05
     8   1    -0.06   0.49   0.01    -0.17  -0.46   0.05     0.08  -0.49  -0.05
                     13                     14                     15
                     AG                     BU                     AG
 Frequencies --   1491.8391              1496.1054              3097.1892
 Red. masses --      1.0967                 1.0943                 1.0568
 Frc consts  --      1.4380                 1.4432                 5.9728
 IR Inten    --      0.0000                 5.8993                 0.0000
  Atom  AN      X      Y      Z        X      Y      Z        X      Y      Z
     1   6    -0.06  -0.03  -0.00    -0.06  -0.01   0.00    -0.05  -0.00  -0.00
     2   6     0.06   0.03  -0.00    -0.06  -0.01  -0.00     0.05   0.00  -0.00
     3  17    -0.00   0.00   0.00    -0.00   0.00  -0.00    -0.00   0.00  -0.00
     4  17     0.00  -0.00   0.00    -0.00   0.00   0.00     0.00  -0.00  -0.00
     5   1     0.39   0.07  -0.30     0.39   0.04  -0.30     0.27   0.01   0.42
     6   1     0.39   0.07   0.30     0.39   0.04   0.30     0.27   0.01  -0.42
     7   1    -0.39  -0.07  -0.30     0.39   0.04   0.30    -0.27  -0.01   0.42
     8   1    -0.39  -0.07   0.30     0.39   0.04  -0.30    -0.27  -0.01  -0.42
                     16                     17                     18
                     BU                     BG                     AU
 Frequencies --   3105.5761              3150.2980              3173.9002
 Red. masses --      1.0558                 1.1113                 1.1128
 Frc consts  --      5.9998                 6.4980                 6.6048
 IR Inten    --     14.2998                 0.0000                 2.5872
  Atom  AN      X      Y      Z        X      Y      Z        X      Y      Z
     1   6    -0.05  -0.00   0.00    -0.00  -0.00  -0.07     0.00   0.00  -0.07
     2   6    -0.05  -0.00  -0.00    -0.00  -0.00   0.07    -0.00  -0.00  -0.07
     3  17     0.00   0.00  -0.00     0.00   0.00   0.00     0.00  -0.00   0.00
     4  17     0.00   0.00   0.00     0.00   0.00  -0.00    -0.00   0.00   0.00
     5   1     0.28   0.01   0.42     0.29   0.01   0.41     0.29   0.01   0.41
     6   1     0.28   0.01  -0.42    -0.29  -0.01   0.41    -0.29  -0.01   0.41
     7   1     0.28   0.01  -0.42     0.29   0.01  -0.41    -0.29  -0.01   0.41
     8   1     0.28   0.01   0.42    -0.29  -0.01  -0.41     0.29   0.01   0.41

 -------------------
 - Thermochemistry -
 -------------------
 Temperature   298.150 Kelvin.  Pressure   1.00000 Atm.
 Atom     1 has atomic number  6 and mass  12.00000
 Atom     2 has atomic number  6 and mass  12.00000
 Atom     3 has atomic number 17 and mass  34.96885
 Atom     4 has atomic number 17 and mass  34.96885
 Atom     5 has atomic number  1 and mass   1.00783
 Atom     6 has atomic number  1 and mass   1.00783
 Atom     7 has atomic number  1 and mass   1.00783
 Atom     8 has atomic number  1 and mass   1.00783
 Molecular mass:    97.96901 amu.
 Principal axes and moments of inertia in atomic units:
                           1         2         3
     Eigenvalues --    61.476051217.317121256.11180
           X           -0.19303   0.98119   0.00000
           Y            0.98119   0.19303   0.00000
           Z           -0.00000   0.00000   1.00000
 This molecule is an asymmetric top.
 Rotational symmetry number  2.
 Rotational temperatures (Kelvin)      1.40891     0.07115     0.06895
 Rotational constants (GHZ):          29.35682     1.48256     1.43677
 Zero-point vibrational energy     152283.1 (Joules/Mol)
                                   36.39653 (Kcal/Mol)
 Warning -- explicit consideration of   3 degrees of freedom as
           vibrations may cause significant error
 Vibrational temperatures:    164.66   308.02   426.44  1010.78  1075.73
          (Kelvin)           1121.41  1446.40  1523.26  1638.17  1810.62
                             1865.92  1916.98  2146.42  2152.56  4456.16
                             4468.23  4532.58  4566.53
 
[...]
 NBsUse=   302 1.00D-06 EigRej= -1.00D+00 NBFU=    94    57    57    94
 Initial guess from the checkpoint file:  "ch2clch2cl.chk"
 B after Tr=    -0.000000    0.000000    0.000000
         Rot=    1.000000   -0.000000   -0.000000   -0.000000 Ang=   0.00 deg.
 Initial guess orbital symmetries:
       Occupied  (BU) (AG) (AG) (BU) (AG) (BU) (AG) (BU) (BU) (AG)
                 (AU) (BG) (AG) (BU) (AG) (BU) (AU) (BU) (AG) (BG)
                 (AG) (BU) (BG) (AU) (AG)
       Virtual   (BU) (AG) (BU) (AU) (AG) (BG) (BU) (AG) (BU) (AG)
                 (AU) (BG) (AG) (BU) (BU) (AU) (AG) (BG) (BU) (AU)
                 (AG) (BG) (BU) (BU) (AG) (AU) (BU) (BG) (AG) (AU)
                 (BU) (AG) (AG) (BU) (BG) (AU) (BG) (AG) (BU) (AU)
                 (AG) (BG) (BU) (BG) (AG) (AU) (BU) (BU) (AG) (BU)
                 (BG) (AG) (AU) (AG) (AU) (BU) (BG) (BU) (AG) (AU)
                 (BU) (AG) (BG) (AG) (BU) (AG) (BU) (AU) (BG) (AG)
                 (AU) (BG) (BU) (BG) (BU) (AG) (AU) (AG) (BU) (AG)
                 (BG) (BU) (AG) (AU) (BU) (AG) (BG) (AG) (AU) (BU)
                 (AG) (BU) (AU) (BU) (AG) (AU) (BG) (BU) (BG) (AU)
                 (AG) (BG) (BU) (AU) (BU) (BG) (AG) (BG) (AU) (AU)
                 (AG) (BU) (AG) (BG) (AU) (AG) (BG) (BU) (BU) (AG)
                 (AU) (BU) (BG) (BU) (AU) (AG) (BU) (BU) (AG) (BG)
                 (AU) (BG) (BU) (AG) (AU) (AG) (BU) (AG) (BG) (BU)
                 (AU) (AG) (AG) (AG) (BG) (BU) (AU) (AG) (BG) (BG)
                 (BU) (BU) (BG) (AG) (AU) (AU) (BU) (AG) (BU) (AG)
                 (AG) (AG) (AG) (AG) (AG) (AG) (AG) (AG) (AG) (AG)
                 (AG) (AG) (AG) (AG) (AG) (AG) (AG) (AG) (AG) (AG)
                 (AG) (AG) (AG) (AG) (AG) (AG) (AG) (AG) (AG) (AG)
                 (AG) (AG) (AG) (AG) (AG) (AG) (BG) (BG) (BG) (BG)
                 (BG) (BG) (BG) (BG) (BG) (BG) (BG) (BG) (BG) (BG)
                 (BG) (BG) (BG) (BG) (BG) (BG) (BG) (BG) (AU) (AU)
                 (AU) (AU) (AU) (AU) (AU) (AU) (AU) (AU) (AU) (AU)
                 (AU) (AU) (AU) (AU) (AU) (AU) (AU) (AU) (AU) (AU)
                 (BU) (BU) (BU) (BU) (BU) (BU) (BU) (BU) (BU) (BU)
                 (BU) (BU) (BU) (BU) (BU) (BU) (BU) (BU) (BU) (BU)
                 (BU) (BU) (BU) (BU) (BU) (BU) (BU) (BU) (BU) (BU)
                 (BU) (BU) (BU) (BU) (BU) (BU) (BU)
 Requested convergence on RMS density matrix=1.00D-08 within 128 cycles.
 Requested convergence on MAX density matrix=1.00D-06.
 Requested convergence on             energy=1.00D-06.
 No special actions if energy rises.
 SCF Done:  E(ROHF) =  -997.148894152     A.U. after   11 cycles
            NFock= 11  Conv=0.14D-08     -V/T= 2.0001
 <Sx>= 0.0000 <Sy>= 0.0000 <Sz>= 0.0000 <S**2>=-0.0000 S=-0.0000
 <L.S>=  0.00000000000    
 Annihilation of the first spin contaminant:
 S**2 before annihilation    -0.0000,   after     0.0000

 **********************************************************************

            Population analysis using the SCF Density.

 **********************************************************************

 Orbital symmetries:
       Occupied  (AG) (BU) (AG) (BU) (AG) (BU) (AG) (BU) (BU) (AG)
                 (AU) (BG) (AG) (BU) (AG) (BU) (AU) (AG) (BU) (BG)
                 (AG) (BU) (BG) (AU) (AG)
       Virtual   (BU) (AG) (BU) (AU) (AG) (BG) (AG) (AG) (BG) (BU)
                 (BU) (AU) (BU) (AG) (BU) (AG) (AU) (AG) (BU) (BG)
                 (AG) (BU) (BU) (AG) (AU) (BG) (AG) (AU) (BU) (BU)
                 (AU) (BU) (AG) (BG) (AG) (AU) (BG) (AG) (BU) (BG)
                 (BU) (BU) (AG) (AU) (BU) (AG) (BG) (AU) (AG) (BG)
                 (BU) (BU) (AG) (AG) (BG) (AU) (AG) (BU) (AG) (AU)
                 (BG) (BU) (BU) (AU) (AG) (BU) (BG) (AG) (BU) (AG)
                 (AU) (BU) (BU) (AG) (BG) (AU) (BU) (AG) (BG) (AU)
                 (BG) (AG) (BU) (AG) (AU) (BG) (BU) (AG) (BG) (BU)
                 (AU) (AU) (AG) (BU) (AG) (BU) (AU) (BG) (BU) (AG)
                 (BG) (BU) (AG) (AU) (AG) (BU) (BG) (AU) (AG) (BU)
                 (BG) (AU) (BG) (AU) (AG) (BU) (BG) (AG) (AU) (BU)
                 (AG) (BU) (BU) (BG) (AG) (BG) (AG) (AU) (BU) (AG)
                 (BG) (BU) (AU) (BU) (AG) (BU) (AU) (AG) (BG) (BU)
                 (BG) (AG) (BU) (AU) (AG) (BG) (AG) (BU) (AU) (AU)
                 (BU) (AU) (AG) (BG) (BG) (BU) (AG) (AG) (AU) (BU)
                 (AG) (BG) (BU) (AU) (AG) (AG) (BG) (BU) (AU) (AG)
                 (BU) (BG) (AG) (AU) (BU) (AG) (BU) (AG) (BG) (BU)
                 (BG) (AU) (AG) (BU) (AG) (BG) (BU) (AU) (BU) (BU)
                 (AG) (AU) (BG) (AU) (BU) (AG) (BG) (BU) (AG) (AU)
                 (BG) (BU) (AU) (AG) (AG) (AU) (BG) (BU) (BU) (BG)
                 (AG) (BU) (AG) (AU) (BU) (BG) (AG) (BG) (BU) (AG)
                 (AU) (AU) (AG) (BU) (BG) (BU) (AG) (AU) (AG) (BG)
                 (AG) (BU) (BU) (AG) (BG) (AU) (BU) (AU) (BU) (BG)
                 (AG) (AG) (BU) (AU) (AG) (BG) (BU) (AU) (BU) (AG)
                 (BG) (BU) (AG) (AG) (AU) (BG) (BU) (AU) (AG) (BU)
                 (BG) (AU) (AG) (BG) (BU) (BU) (AG) (AG) (BU) (AG)
                 (BU) (AU) (BG) (AG) (BU) (BU) (AG)
 The electronic state is 1-AG.
 Alpha  occ. eigenvalues -- -104.83742-104.83742 -11.31385 -11.31319 -10.56253
 Alpha  occ. eigenvalues --  -10.56253  -8.02946  -8.02945  -8.02798  -8.02798
 Alpha  occ. eigenvalues --   -8.02794  -8.02794  -1.17239  -1.11804  -0.97824
 Alpha  occ. eigenvalues --   -0.85691  -0.68928  -0.61066  -0.60215  -0.57899
 Alpha  occ. eigenvalues --   -0.52179  -0.46190  -0.45122  -0.44783  -0.44254
 Alpha virt. eigenvalues --    0.05056   0.05197   0.05992   0.06953   0.08388
 Alpha virt. eigenvalues --    0.09077   0.10138   0.11192   0.11498   0.12746
 Alpha virt. eigenvalues --    0.13854   0.14098   0.16636   0.17039   0.18213
 Alpha virt. eigenvalues --    0.20830   0.21957   0.24049   0.24267   0.24603
 Alpha virt. eigenvalues --    0.26059   0.27081   0.29698   0.33149   0.35004
 Alpha virt. eigenvalues --    0.37969   0.39941   0.40713   0.41600   0.44473
 Alpha virt. eigenvalues --    0.44572   0.46413   0.46997   0.47378   0.48321
 Alpha virt. eigenvalues --    0.49714   0.50981   0.51640   0.52164   0.53495
 Alpha virt. eigenvalues --    0.54473   0.55021   0.57217   0.59993   0.61382
 Alpha virt. eigenvalues --    0.61741   0.62653   0.67676   0.71888   0.72580
 Alpha virt. eigenvalues --    0.73334   0.74897   0.76155   0.78036   0.81334
 Alpha virt. eigenvalues --    0.83500   0.86454   0.88298   0.89441   0.90184
 Alpha virt. eigenvalues --    0.90967   0.94714   0.95984   0.97265   0.99328
 Alpha virt. eigenvalues --    1.01339   1.03396   1.05243   1.06727   1.09667
 Alpha virt. eigenvalues --    1.10096   1.11680   1.12689   1.17539   1.17959
 Alpha virt. eigenvalues --    1.25367   1.29718   1.31110   1.32005   1.33040
 Alpha virt. eigenvalues --    1.33747   1.35891   1.39111   1.39374   1.43294
 Alpha virt. eigenvalues --    1.44908   1.45335   1.48722   1.49518   1.51131
 Alpha virt. eigenvalues --    1.52140   1.55768   1.58644   1.59995   1.61163
 Alpha virt. eigenvalues --    1.64142   1.66119   1.66412   1.67572   1.68706
 Alpha virt. eigenvalues --    1.71266   1.71416   1.72610   1.73509   1.75067
 Alpha virt. eigenvalues --    1.77884   1.77969   1.78140   1.80272   1.83348
 Alpha virt. eigenvalues --    1.84195   1.90682   1.91271   1.92985   1.93549
 Alpha virt. eigenvalues --    1.96306   1.96517   1.98964   1.99066   2.01966
 Alpha virt. eigenvalues --    2.05191   2.09777   2.11507   2.14727   2.15665
 Alpha virt. eigenvalues --    2.22986   2.23684   2.24189   2.24321   2.26299
 Alpha virt. eigenvalues --    2.29311   2.29848   2.32974   2.36148   2.37700
 Alpha virt. eigenvalues --    2.41113   2.42087   2.42838   2.53854   2.55467
 Alpha virt. eigenvalues --    2.56030   2.56694   2.59228   2.59960   2.60613
 Alpha virt. eigenvalues --    2.64964   2.65448   2.70951   2.71984   2.77044
 Alpha virt. eigenvalues --    2.77148   2.88754   2.89390   2.95115   2.97420
 Alpha virt. eigenvalues --    2.97432   3.03309   3.09717   3.18329   3.19202
 Alpha virt. eigenvalues --    3.23730   3.24648   3.34324   3.36444   3.38059
 Alpha virt. eigenvalues --    3.43619   3.44774   3.46260   3.51194   3.53298
 Alpha virt. eigenvalues --    3.55070   3.55861   3.56167   3.57252   3.58807
 Alpha virt. eigenvalues --    3.62306   3.63012   3.66062   3.68378   3.68789
 Alpha virt. eigenvalues --    3.71497   3.72592   3.72937   3.77573   3.79533
 Alpha virt. eigenvalues --    3.84857   3.85960   3.90700   4.12996   4.67754
 Alpha virt. eigenvalues --    4.72104   4.79588   4.87228   4.88170   4.88833
 Alpha virt. eigenvalues --    4.91971   4.93260   4.94032   4.97687   5.02577
 Alpha virt. eigenvalues --    5.03346   5.06899   5.08511   5.14518   5.18552
 Alpha virt. eigenvalues --    5.26411   5.32680   5.35953   5.49152   5.57120
 Alpha virt. eigenvalues --    5.62434   5.67571   5.68300   5.84444   6.01418
 Alpha virt. eigenvalues --    6.06306   6.06445   6.08594   6.09739   6.12320
 Alpha virt. eigenvalues --    6.12445   6.14371   6.17678   6.24805   6.29815
 Alpha virt. eigenvalues --    6.32663   6.33750   6.35663   6.37042   6.40937
 Alpha virt. eigenvalues --    6.75190   6.79151   6.93691   7.07667   7.11859
 Alpha virt. eigenvalues --    7.19604   7.20156   8.20199   8.24778   8.34437
 Alpha virt. eigenvalues --    8.36272   8.57642   8.61109   8.69173   8.75357
 Alpha virt. eigenvalues --    8.92286   9.41999   9.46950   9.57059   9.61119
 Alpha virt. eigenvalues --    9.63468  21.23145  21.30720  21.34495  21.55003
 Alpha virt. eigenvalues --   21.57223  21.87570  22.20461  22.20961  22.21095
 Alpha virt. eigenvalues --   22.21283  22.29068  22.33457  22.33576  22.35059
 Alpha virt. eigenvalues --   22.38115  22.38593  22.79576  23.32172  24.43638
 Alpha virt. eigenvalues --   24.54095  28.42850  28.44024  28.45441  28.46997
 Alpha virt. eigenvalues --   28.82076  28.86247
          Condensed to atoms (all electrons):
               1          2          3          4          5          6
     1  C    4.902437   0.294868   0.253914  -0.038756   0.403383   0.403383
     2  C    0.294868   4.902437  -0.038756   0.253914  -0.021882  -0.021882
     3  Cl   0.253914  -0.038756  16.986428   0.006524  -0.046944  -0.046944
     4  Cl  -0.038756   0.253914   0.006524  16.986428  -0.004556  -0.004556
     5  H    0.403383  -0.021882  -0.046944  -0.004556   0.564735  -0.030359
     6  H    0.403383  -0.021882  -0.046944  -0.004556  -0.030359   0.564735
     7  H   -0.021882   0.403383  -0.004556  -0.046944  -0.010898   0.006234
     8  H   -0.021882   0.403383  -0.004556  -0.046944   0.006234  -0.010898
               7          8
     1  C   -0.021882  -0.021882
     2  C    0.403383   0.403383
     3  Cl  -0.004556  -0.004556
     4  Cl  -0.046944  -0.046944
     5  H   -0.010898   0.006234
     6  H    0.006234  -0.010898
     7  H    0.564735  -0.030359
     8  H   -0.030359   0.564735
          Atomic-Atomic Spin Densities.
               1          2          3          4          5          6
     1  C    0.000000   0.000000   0.000000   0.000000   0.000000   0.000000
     2  C    0.000000   0.000000   0.000000   0.000000   0.000000   0.000000
     3  Cl   0.000000   0.000000   0.000000   0.000000   0.000000   0.000000
     4  Cl   0.000000   0.000000   0.000000   0.000000   0.000000   0.000000
     5  H    0.000000   0.000000   0.000000   0.000000   0.000000   0.000000
     6  H    0.000000   0.000000   0.000000   0.000000   0.000000   0.000000
     7  H    0.000000   0.000000   0.000000   0.000000   0.000000   0.000000
     8  H    0.000000   0.000000   0.000000   0.000000   0.000000   0.000000
               7          8
     1  C    0.000000   0.000000
     2  C    0.000000   0.000000
     3  Cl   0.000000   0.000000
     4  Cl   0.000000   0.000000
     5  H    0.000000   0.000000
     6  H    0.000000   0.000000
     7  H    0.000000   0.000000
     8  H    0.000000   0.000000
 Mulliken charges and spin densities:
               1          2
     1  C   -0.175465   0.000000
     2  C   -0.175465   0.000000
     3  Cl  -0.105110   0.000000
     4  Cl  -0.105110   0.000000
     5  H    0.140288   0.000000
     6  H    0.140288   0.000000
     7  H    0.140288   0.000000
     8  H    0.140288   0.000000
 Sum of Mulliken charges =  -0.00000   0.00000
 Mulliken charges and spin densities with hydrogens summed into heavy atoms:
               1          2
     1  C    0.105110   0.000000
     2  C    0.105110   0.000000
     3  Cl  -0.105110   0.000000
     4  Cl  -0.105110   0.000000
 Electronic spatial extent (au):  <R**2>=            724.6064
 Charge=              0.0000 electrons
 Dipole moment (field-independent basis, Debye):
    X=             -0.0000    Y=              0.0000    Z=              0.0000  Tot=              0.0000
 Quadrupole moment (field-independent basis, Debye-Ang):
   XX=            -37.6253   YY=            -46.3925   ZZ=            -37.8574
   XY=              2.3791   XZ=              0.0000   YZ=              0.0000
 Traceless Quadrupole moment (field-independent basis, Debye-Ang):
   XX=              2.9998   YY=             -5.7675   ZZ=              2.7677
   XY=              2.3791   XZ=              0.0000   YZ=              0.0000
 Octapole moment (field-independent basis, Debye-Ang**2):
  XXX=              0.0000  YYY=              0.0000  ZZZ=             -0.0000  XYY=             -0.0000
  XXY=              0.0000  XXZ=             -0.0000  XZZ=              0.0000  YZZ=             -0.0000
  YYZ=              0.0000  XYZ=             -0.0000
 Hexadecapole moment (field-independent basis, Debye-Ang**3):
 XXXX=           -112.0592 YYYY=           -777.4269 ZZZZ=            -54.5293 XXXY=             65.7446
 XXXZ=             -0.0000 YYYX=             49.9957 YYYZ=             -0.0000 ZZZX=             -0.0000
 ZZZY=              0.0000 XXYY=           -142.7089 XXZZ=            -25.6272 YYZZ=           -142.6925
 XXYZ=             -0.0000 YYXZ=             -0.0000 ZZXY=             24.5877
 N-N= 1.936376390974D+02 E-N=-2.757547996773D+03  KE= 9.970341665246D+02
 Symmetry AG   KE= 4.522800294581D+02
 Symmetry BG   KE= 4.793405800992D+01
 Symmetry AU   KE= 4.778298766045D+01
 Symmetry BU   KE= 4.490370913961D+02
 Symmetry AG   SP= 0.000000000000D+00
 Symmetry BG   SP= 0.000000000000D+00
 Symmetry AU   SP= 0.000000000000D+00
 Symmetry BU   SP= 0.000000000000D+00
                          Isotropic Fermi Contact Couplings
        Atom                 a.u.       MegaHertz       Gauss      10(-4) cm-1
     1  C(13)              0.00000       0.00000       0.00000       0.00000
     2  C(13)              0.00000       0.00000       0.00000       0.00000
     3  Cl(35)             0.00000       0.00000       0.00000       0.00000
     4  Cl(35)             0.00000       0.00000       0.00000       0.00000
     5  H(1)               0.00000       0.00000       0.00000       0.00000
     6  H(1)               0.00000       0.00000       0.00000       0.00000
     7  H(1)               0.00000       0.00000       0.00000       0.00000
     8  H(1)               0.00000       0.00000       0.00000       0.00000
 --------------------------------------------------------
       Center         ----  Spin Dipole Couplings  ----
                      3XX-RR        3YY-RR        3ZZ-RR
 --------------------------------------------------------
     1   Atom        0.000000      0.000000      0.000000
     2   Atom        0.000000      0.000000      0.000000
     3   Atom        0.000000      0.000000      0.000000
     4   Atom        0.000000      0.000000      0.000000
     5   Atom        0.000000      0.000000      0.000000
     6   Atom        0.000000      0.000000      0.000000
     7   Atom        0.000000      0.000000      0.000000
     8   Atom        0.000000      0.000000      0.000000
 --------------------------------------------------------
                        XY            XZ            YZ
 --------------------------------------------------------
     1   Atom        0.000000      0.000000      0.000000
     2   Atom        0.000000      0.000000      0.000000
     3   Atom        0.000000      0.000000      0.000000
     4   Atom        0.000000      0.000000      0.000000
     5   Atom        0.000000      0.000000      0.000000
     6   Atom        0.000000      0.000000      0.000000
     7   Atom        0.000000      0.000000      0.000000
     8   Atom        0.000000      0.000000      0.000000
 --------------------------------------------------------


 ---------------------------------------------------------------------------------
              Anisotropic Spin Dipole Couplings in Principal Axis System
 ---------------------------------------------------------------------------------

       Atom             a.u.   MegaHertz   Gauss  10(-4) cm-1        Axes

              Baa     0.0000     0.000     0.000     0.000  1.0000  0.0000  0.0000
     1 C(13)  Bbb     0.0000     0.000     0.000     0.000 -0.0000  1.0000  0.0000
              Bcc     0.0000     0.000     0.000     0.000  0.0000  0.0000  1.0000
 
              Baa     0.0000     0.000     0.000     0.000  1.0000  0.0000  0.0000
     2 C(13)  Bbb     0.0000     0.000     0.000     0.000 -0.0000  1.0000  0.0000
              Bcc     0.0000     0.000     0.000     0.000  0.0000  0.0000  1.0000
 
              Baa     0.0000     0.000     0.000     0.000  1.0000  0.0000  0.0000
     3 Cl(35) Bbb     0.0000     0.000     0.000     0.000 -0.0000  1.0000  0.0000
              Bcc     0.0000     0.000     0.000     0.000  0.0000  0.0000  1.0000
 
              Baa     0.0000     0.000     0.000     0.000  1.0000  0.0000  0.0000
     4 Cl(35) Bbb     0.0000     0.000     0.000     0.000 -0.0000  1.0000  0.0000
              Bcc     0.0000     0.000     0.000     0.000  0.0000  0.0000  1.0000
 
              Baa     0.0000     0.000     0.000     0.000  1.0000  0.0000  0.0000
     5 H(1)   Bbb     0.0000     0.000     0.000     0.000 -0.0000  1.0000  0.0000
              Bcc     0.0000     0.000     0.000     0.000  0.0000  0.0000  1.0000
 
              Baa     0.0000     0.000     0.000     0.000  1.0000  0.0000  0.0000
     6 H(1)   Bbb     0.0000     0.000     0.000     0.000 -0.0000  1.0000  0.0000
              Bcc     0.0000     0.000     0.000     0.000  0.0000  0.0000  1.0000
 
              Baa     0.0000     0.000     0.000     0.000  1.0000  0.0000  0.0000
     7 H(1)   Bbb     0.0000     0.000     0.000     0.000 -0.0000  1.0000  0.0000
              Bcc     0.0000     0.000     0.000     0.000  0.0000  0.0000  1.0000
 
              Baa     0.0000     0.000     0.000     0.000  1.0000  0.0000  0.0000
     8 H(1)   Bbb     0.0000     0.000     0.000     0.000 -0.0000  1.0000  0.0000
              Bcc     0.0000     0.000     0.000     0.000  0.0000  0.0000  1.0000
 

 ---------------------------------------------------------------------------------

 1\1\GINC-GAMBA\SP\ROHF\Gen\C2H4Cl2\IRIKURA\29-Sep-2023\0\\# rohf/gen g
 eom=check guess=check\\1,2-dichloroethane, ROHF/cc-pVTZ-F12\\0,1\C,0,0
 .475325,0.587726,0.\C,0,-0.475325,-0.587726,0.\Cl,0,-0.475325,2.125363
 ,0.\Cl,0,0.475325,-2.125363,0.\H,0,1.099705,0.597185,0.887561\H,0,1.09
 9705,0.597185,-0.887561\H,0,-1.099705,-0.597185,0.887561\H,0,-1.099705
 ,-0.597185,-0.887561\\Version=ES64L-G16RevB.01\State=1-AG\HF=-997.1488
 942\RMSD=1.407e-09\Dipole=0.,0.,0.\Quadrupole=2.2302537,-4.2879669,2.0
 577131,1.7688254,0.,0.\PG=C02H [SGH(C2Cl2),X(H4)]\\@


 HE THAT IS UNAWARE OF HIS IGNORANCE WILL BE MISLED BY HIS KNOWLEDGE.

                                        -- WHATLEY
 Job cpu time:       0 days  0 hours  2 minutes 40.0 seconds.
 Elapsed time:       0 days  0 hours  0 minutes 40.1 seconds.
 File lengths (MBytes):  RWF=     68 Int=      0 D2E=      0 Chk=      9 Scr=      1
 Normal termination of Gaussian 16 at Fri Sep 29 18:34:28 2023.
