 Entering Gaussian System, Link 0=g16
 AtFile(1): pcseg2.gbs
            -H     0
            S   4   1.00
                  0.754732D+02           0.427821D-02
                  0.113575D+02           0.328672D-01
                  0.260081D+01           0.159578D+00
                  0.735503D+00           0.500000D+00
            S   1   1.00
                  0.231761D+00           1.0000000
            S   1   1.00
                  0.741675D-01           1.0000000
            P   1   1.00
                  0.160000D+01           1.0000000
            P   1   1.00
                  0.450000D+00           1.0000000
            D   1   1.00
                  0.125000D+01           1.0000000
            ****
            -C     0
            S   7   1.00
                  0.731999D+04           0.695369D-03
                  0.109818D+04           0.537138D-02
                  0.250014D+03           0.274734D-01
                  0.707586D+02           0.105078D+00
                  0.228595D+02           0.291262D+00
                  0.803936D+01           0.500000D+00
                  0.289309D+01           0.362224D+00
            S   2   1.00
                  0.521640D+01          -0.957844D-01
                  0.556124D+00           0.500000D+00
            S   1   1.00
                  0.228813D+00           1.0000000
            S   1   1.00
                  0.936338D-01           1.0000000
            P   4   1.00
                  0.339855D+02           0.818395D-02
                  0.772957D+01           0.586921D-01
                  0.224954D+01           0.222514D+00
                  0.767681D+00           0.500000D+00
            P   1   1.00
                  0.263283D+00           1.0000000
            P   1   1.00
                  0.848744D-01           1.0000000
            D   1   1.00
                  0.140000D+01           1.0000000
            D   1   1.00
                  0.450000D+00           1.0000000
            F   1   1.00
                  0.950000D+00           1.0000000
            ****
            -O     0
            S   7   1.00
                  0.135887D+05           0.665492D-03
                  0.203847D+04           0.514222D-02
                  0.464041D+03           0.263472D-01
                  0.131339D+03           0.101500D+00
                  0.425340D+02           0.285877D+00
                  0.150429D+02           0.500000D+00
                  0.546616D+01           0.368211D+00
            S   2   1.00
                  0.100915D+02          -0.100084D+00
                  0.110429D+01           0.500000D+00
            S   1   1.00
                  0.448082D+00           1.0000000
            S   1   1.00
                  0.175325D+00           1.0000000
            P   4   1.00
                  0.608220D+02           0.908253D-02
                  0.140332D+02           0.645878D-01
                  0.418244D+01           0.241502D+00
                  0.142490D+01           0.500000D+00
            P   1   1.00
                  0.478741D+00           1.0000000
            P   1   1.00
                  0.146257D+00           1.0000000
            D   1   1.00
                  0.220000D+01           1.0000000
            D   1   1.00
                  0.650000D+00           1.0000000
            F   1   1.00
                  0.110000D+01           1.0000000
            ****
            -N     0
            S   7   1.00
                  0.101643D+05           0.682757D-03
                  0.152481D+04           0.527488D-02
                  0.347119D+03           0.270037D-01
                  0.982389D+02           0.103673D+00
                  0.317799D+02           0.289575D+00
                  0.112240D+02           0.500000D+00
                  0.406611D+01           0.364621D+00
            S   2   1.00
                  0.747898D+01          -0.975681D-01
                  0.805040D+00           0.500000D+00
            S   1   1.00
                  0.324626D+00           1.0000000
            S   1   1.00
                  0.128132D+00           1.0000000
            P   4   1.00
                  0.482704D+02           0.829547D-02
                  0.110815D+02           0.596223D-01
                  0.326643D+01           0.227889D+00
                  0.111680D+01           0.500000D+00
            P   1   1.00
                  0.382049D+00           1.0000000
            P   1   1.00
                  0.121222D+00           1.0000000
            D   1   1.00
                  0.180000D+01           1.0000000
            D   1   1.00
                  0.550000D+00           1.0000000
            F   1   1.00
                  0.102000D+01           1.0000000
            ****
            -F     0
            S   7   1.00
                  0.174507D+05           0.655972D-03
                  0.261768D+04           0.506944D-02
                  0.595857D+03           0.259899D-01
                  0.168651D+03           0.100353D+00
                  0.546654D+02           0.284095D+00
                  0.193717D+02           0.500000D+00
                  0.706202D+01           0.370721D+00
            S   2   1.00
                  0.131197D+02          -0.101997D+00
                  0.145046D+01           0.500000D+00
            S   1   1.00
                  0.588255D+00           1.0000000
            S   1   1.00
                  0.227960D+00           1.0000000
            P   4   1.00
                  0.779407D+02           0.931135D-02
                  0.180425D+02           0.663964D-01
                  0.542342D+01           0.246386D+00
                  0.184876D+01           0.500000D+00
            P   1   1.00
                  0.617455D+00           1.0000000
            P   1   1.00
                  0.185496D+00           1.0000000
            D   1   1.00
                  0.280000D+01           1.0000000
            D   1   1.00
                  0.800000D+00           1.0000000
            F   1   1.00
                  0.120000D+01           1.0000000
            ****
            -Cl     0
            S   8   1.00
                  0.154272D+06           0.222473D-03
                  0.231232D+05           0.172590D-02
                  0.526257D+04           0.899286D-02
                  0.148995D+04           0.367724D-01
                  0.485417D+03           0.121446D+00
                  0.174634D+03           0.304148D+00
                  0.672393D+02           0.500000D+00
                  0.265780D+02           0.360252D+00
            S   3   1.00
                  0.131826D+03          -0.531330D-01
                  0.400703D+02          -0.233346D+00
                  0.789448D+01           0.500000D+00
            S   2   1.00
                  0.427711D+01           0.500000D+00
                  0.196233D+01           0.370517D+00
            S   1   1.00
                  0.520793D+00           1.0000000
            S   1   1.00
                  0.181633D+00           1.0000000
            P   7   1.00
                  0.124440D+04           0.988206D-03
                  0.295109D+03           0.829674D-02
                  0.947224D+02           0.430906D-01
                  0.352588D+02           0.148443D+00
                  0.144211D+02           0.344744D+00
                  0.610371D+01           0.500000D+00
                  0.258886D+01           0.348278D+00
            P   2   1.00
                  0.109447D+02          -0.196768D-01
                  0.104413D+01           0.500000D+00
            P   1   1.00
                  0.376184D+00           1.0000000
            P   1   1.00
                  0.120613D+00           1.0000000
            D   1   1.00
                  0.231000D+01           1.0000000
            D   1   1.00
                  0.520000D+00           1.0000000
            F   1   1.00
                  0.720000D+00           1.0000000
            ****
            -S     0
            S   8   1.00
                  0.134700D+06           0.226231D-03
                  0.201904D+05           0.175488D-02
                  0.459528D+04           0.914190D-02
                  0.130109D+04           0.373551D-01
                  0.423902D+03           0.123121D+00
                  0.152485D+03           0.306801D+00
                  0.586925D+02           0.500000D+00
                  0.231461D+02           0.354358D+00
            S   3   1.00
                  0.116327D+03          -0.491772D-01
                  0.352841D+02          -0.215962D+00
                  0.677831D+01           0.500000D+00
            S   2   1.00
                  0.360404D+01           0.500000D+00
                  0.164871D+01           0.366278D+00
            S   1   1.00
                  0.421821D+00           1.0000000
            S   1   1.00
                  0.147554D+00           1.0000000
            P   7   1.00
                  0.104863D+04           0.105273D-02
                  0.248717D+03           0.879338D-02
                  0.797887D+02           0.453358D-01
                  0.296023D+02           0.154476D+00
                  0.120627D+02           0.352366D+00
                  0.507628D+01           0.500000D+00
                  0.213375D+01           0.346429D+00
            P   2   1.00
                  0.928958D+01          -0.185932D-01
                  0.837819D+00           0.500000D+00
            P   1   1.00
                  0.301495D+00           1.0000000
            P   1   1.00
                  0.974740D-01           1.0000000
            D   1   1.00
                  0.210000D+01           1.0000000
            D   1   1.00
                  0.480000D+00           1.0000000
            F   1   1.00
                  0.660000D+00           1.0000000
            ****
            -Br     0
            S    10   1.00
                  0.233625D+07           0.532336D-04
                  0.349961D+06           0.413715D-03
                  0.796444D+05           0.217123D-02
                  0.225555D+05           0.910109D-02
                  0.735546D+04           0.323789D-01
                  0.265352D+04           0.988755D-01
                  0.103517D+04           0.248138D+00
                  0.422205D+03           0.474328D+00
                  0.180035D+03           0.500000D+00
                  0.793308D+02           0.187769D+00
            S    4   1.00
                  0.620834D+03          -0.226511D-01
                  0.190829D+03          -0.109497D+00
                  0.312505D+02           0.500000D+00
                  0.135270D+02           0.492812D+00
            S    2   1.00
                  0.216097D+02          -0.165418D+00
                  0.372566D+01           0.500000D+00
            S    1   1.00
                  0.169770D+01           1.0000000
            S    1   1.00
                  0.489332D+00           1.0000000
            S    1   1.00
                  0.175712D+00           1.0000000
            P    8   1.00
                  0.960829D+04           0.478974D-03
                  0.227618D+04           0.417853D-02
                  0.736723D+03           0.229315D-01
                  0.281579D+03           0.892653D-01
                  0.118395D+03           0.255288D+00
                  0.527481D+02           0.479074D+00
                  0.245098D+02           0.500000D+00
                  0.112009D+02           0.200944D+00
            P    4   1.00
                  0.587849D+02          -0.189674D-01
                  0.918962D+01           0.264104D+00
                  0.413895D+01           0.500000D+00
                  0.184225D+01           0.319316D+00
            P    1   1.00
                  0.713862D+00           1.0000000
            P    1   1.00
                  0.274232D+00           1.0000000
            P    1   1.00
                  0.944411D-01           1.0000000
            D    7   1.00
                  0.398470D+03           0.204066D-02
                  0.118967D+03           0.175171D-01
                  0.450197D+02           0.829708D-01
                  0.190320D+02           0.236284D+00
                  0.855686D+01           0.428468D+00
                  0.382950D+01           0.500000D+00
                  0.166291D+01           0.349360D+00
            D    1   1.00
                  0.672953D+00           1.0000000
            D    1   1.00
                  0.252000D+00           1.0000000
            F    1   1.00
                  0.530000D+00           1.0000000
            ****
            -Si     0
            S    8   1.00
                  0.996133D+05           0.235546D-03
                  0.149311D+05           0.182707D-02
                  0.339820D+04           0.951425D-02
                  0.962140D+03           0.388172D-01
                  0.313430D+03           0.127328D+00
                  0.112683D+03           0.313522D+00
                  0.433372D+02           0.500000D+00
                  0.170029D+02           0.340347D+00
            S    3   1.00
                  0.884208D+02          -0.404451D-01
                  0.266756D+02          -0.178059D+00
                  0.479640D+01           0.500000D+00
            S    2   1.00
                  0.239385D+01           0.500000D+00
                  0.108333D+01           0.338016D+00
            S    1   1.00
                  0.252420D+00           1.0000000
            S    1   1.00
                  0.891210D-01           1.0000000
            P    7   1.00
                  0.709901D+03           0.123028D-02
                  0.168426D+03           0.101366D-01
                  0.539946D+02           0.511840D-01
                  0.198646D+02           0.169967D+00
                  0.801369D+01           0.370717D+00
                  0.331870D+01           0.500000D+00
                  0.136112D+01           0.344128D+00
            P    2   1.00
                  0.622158D+01          -0.166609D-01
                  0.503049D+00           0.500000D+00
            P    1   1.00
                  0.179848D+00           1.0000000
            P    1   1.00
                  0.591912D-01           1.0000000
            D    1   1.00
                  0.168000D+01           1.0000000
            D    1   1.00
                  0.380000D+00           1.0000000
            F    1   1.00
                  0.540000D+00           1.0000000
            ****
            -P     0
            S    8   1.00
                  0.116416D+06           0.230715D-03
                  0.174500D+05           0.178960D-02
                  0.397149D+04           0.932116D-02
                  0.112447D+04           0.380591D-01
                  0.366347D+03           0.125148D+00
                  0.131757D+03           0.310022D+00
                  0.506988D+02           0.500000D+00
                  0.199436D+02           0.347528D+00
            S    3   1.00
                  0.101878D+03          -0.446755D-01
                  0.308249D+02          -0.196376D+00
                  0.573688D+01           0.500000D+00
            S    2   1.00
                  0.296868D+01           0.500000D+00
                  0.135315D+01           0.355098D+00
            S    1   1.00
                  0.332196D+00           1.0000000
            S    1   1.00
                  0.116229D+00           1.0000000
            P    7   1.00
                  0.873928D+03           0.112375D-02
                  0.207298D+03           0.933330D-02
                  0.664628D+02           0.477213D-01
                  0.245665D+02           0.160733D+00
                  0.996820D+01           0.359760D+00
                  0.416536D+01           0.500000D+00
                  0.173022D+01           0.346593D+00
            P    2   1.00
                  0.772530D+01          -0.175718D-01
                  0.657252D+00           0.500000D+00
            P    1   1.00
                  0.239903D+00           1.0000000
            P    1   1.00
                  0.800988D-01           1.0000000
            D    1   1.00
                  0.189000D+01           1.0000000
            D    1   1.00
                  0.430000D+00           1.0000000
            F    1   1.00
                  0.600000D+00           1.0000000
            ****
            
 Initial command:
 /usr/local/apps/g16_b01_avx/g16/l1.exe "/wrk/irikura/Gau-5719.inp" -scrdir="/wrk/irikura/"
 Entering Link 1 = /usr/local/apps/g16_b01_avx/g16/l1.exe PID=      5721.
  
 Copyright (c) 1988-2017, Gaussian, Inc.  All Rights Reserved.
  
 This is part of the Gaussian(R) 16 program.  It is based on
 the Gaussian(R) 09 system (copyright 2009, Gaussian, Inc.),
 the Gaussian(R) 03 system (copyright 2003, Gaussian, Inc.),
 the Gaussian(R) 98 system (copyright 1998, Gaussian, Inc.),
 the Gaussian(R) 94 system (copyright 1995, Gaussian, Inc.),
 the Gaussian 92(TM) system (copyright 1992, Gaussian, Inc.),
 the Gaussian 90(TM) system (copyright 1990, Gaussian, Inc.),
 the Gaussian 88(TM) system (copyright 1988, Gaussian, Inc.),
 the Gaussian 86(TM) system (copyright 1986, Carnegie Mellon
 University), and the Gaussian 82(TM) system (copyright 1983,
 Carnegie Mellon University). Gaussian is a federally registered
 trademark of Gaussian, Inc.
  
 This software contains proprietary and confidential information,
 including trade secrets, belonging to Gaussian, Inc.
  
 This software is provided under written license and may be
 used, copied, transmitted, or stored only in accord with that
 written license.
  
 The following legend is applicable only to US Government
 contracts under FAR:
  
                    RESTRICTED RIGHTS LEGEND
  
 Use, reproduction and disclosure by the US Government is
 subject to restrictions as set forth in subparagraphs (a)
 and (c) of the Commercial Computer Software - Restricted
 Rights clause in FAR 52.227-19.
  
 Gaussian, Inc.
 340 Quinnipiac St., Bldg. 40, Wallingford CT 06492
  
  
 ---------------------------------------------------------------
 Warning -- This program may not be used in any manner that
 competes with the business of Gaussian, Inc. or will provide
 assistance to any competitor of Gaussian, Inc.  The licensee
 of this program is prohibited from giving any competitor of
 Gaussian, Inc. access to this program.  By using this program,
 the user acknowledges that Gaussian, Inc. is engaged in the
 business of creating and licensing software in the field of
 computational chemistry and represents and warrants to the
 licensee that it is not a competitor of Gaussian, Inc. and that
 it will not use this program in any manner prohibited above.
 ---------------------------------------------------------------
  

 Cite this work as:
 Gaussian 16, Revision B.01,
 M. J. Frisch, G. W. Trucks, H. B. Schlegel, G. E. Scuseria, 
 M. A. Robb, J. R. Cheeseman, G. Scalmani, V. Barone, 
 G. A. Petersson, H. Nakatsuji, X. Li, M. Caricato, A. V. Marenich, 
 J. Bloino, B. G. Janesko, R. Gomperts, B. Mennucci, H. P. Hratchian, 
 J. V. Ortiz, A. F. Izmaylov, J. L. Sonnenberg, D. Williams-Young, 
 F. Ding, F. Lipparini, F. Egidi, J. Goings, B. Peng, A. Petrone, 
 T. Henderson, D. Ranasinghe, V. G. Zakrzewski, J. Gao, N. Rega, 
 G. Zheng, W. Liang, M. Hada, M. Ehara, K. Toyota, R. Fukuda, 
 J. Hasegawa, M. Ishida, T. Nakajima, Y. Honda, O. Kitao, H. Nakai, 
 T. Vreven, K. Throssell, J. A. Montgomery, Jr., J. E. Peralta, 
 F. Ogliaro, M. J. Bearpark, J. J. Heyd, E. N. Brothers, K. N. Kudin, 
 V. N. Staroverov, T. A. Keith, R. Kobayashi, J. Normand, 
 K. Raghavachari, A. P. Rendell, J. C. Burant, S. S. Iyengar, 
 J. Tomasi, M. Cossi, J. M. Millam, M. Klene, C. Adamo, R. Cammi, 
 J. W. Ochterski, R. L. Martin, K. Morokuma, O. Farkas, 
 J. B. Foresman, and D. J. Fox, Gaussian, Inc., Wallingford CT, 2016.
 
 ******************************************
 Gaussian 16:  ES64L-G16RevB.01 20-Dec-2017
                20-Jun-2022 
 ******************************************
 %mem=1000mw
 %nprocs=12
 Will use up to   12 processors via shared memory.
 --------------------
 # b3lyp/gen opt freq
 --------------------
 1/18=20,19=15,26=3,38=1/1,3;
 2/9=110,12=2,17=6,18=5,40=1/2;
 3/5=7,11=2,25=1,30=1,71=1,74=-5/1,2,3;
 4//1;
 5/5=2,38=5/2;
 6/7=2,8=2,9=2,10=2,28=1/1;
 7//1,2,3,16;
 1/18=20,19=15,26=3/3(2);
 2/9=110/2;
 99//99;
 2/9=110/2;
 3/5=7,6=1,11=2,25=1,30=1,71=1,74=-5,82=7/1,2,3;
 4/5=5,16=3,69=1/1;
 5/5=2,38=5/2;
 7//1,2,3,16;
 1/18=20,19=15,26=3/3(-5);
 2/9=110/2;
 6/7=2,8=2,9=2,10=2,19=2,28=1/1;
 99/9=1/99;
 ----------------------------------
 butadienylacetylene, B3LYP/pcseg-2
 ----------------------------------
 Symbolic Z-matrix:
 Charge =  0 Multiplicity = 1
 C                     0.62517  -0.5651    0. 
 C                    -0.48997   0.19359   0. 
 C                     1.94271  -0.05588   0. 
 C                     3.07894   0.34887   0. 
 H                     4.0756    0.71467   0. 
 H                     0.52558  -1.64958   0. 
 H                    -0.39165   1.2767    0. 
 C                    -1.83176  -0.34725   0. 
 C                    -2.94416   0.39718   0. 
 H                    -1.914    -1.4331    0. 
 H                    -2.90009   1.4822    0. 
 H                    -3.93115  -0.05049   0. 
 

 GradGradGradGradGradGradGradGradGradGradGradGradGradGradGradGradGradGrad
 Berny optimization.
 Initialization pass.
                           ----------------------------
                           !    Initial Parameters    !
                           ! (Angstroms and Degrees)  !
 --------------------------                            --------------------------
 ! Name  Definition              Value          Derivative Info.                !
 --------------------------------------------------------------------------------
 ! R1    R(1,2)                  1.3488         estimate D2E/DX2                !
 ! R2    R(1,3)                  1.4125         estimate D2E/DX2                !
 ! R3    R(1,6)                  1.089          estimate D2E/DX2                !
 ! R4    R(2,7)                  1.0876         estimate D2E/DX2                !
 ! R5    R(2,8)                  1.4467         estimate D2E/DX2                !
 ! R6    R(3,4)                  1.2062         estimate D2E/DX2                !
 ! R7    R(4,5)                  1.0617         estimate D2E/DX2                !
 ! R8    R(8,9)                  1.3385         estimate D2E/DX2                !
 ! R9    R(8,10)                 1.089          estimate D2E/DX2                !
 ! R10   R(9,11)                 1.0859         estimate D2E/DX2                !
 ! R11   R(9,12)                 1.0838         estimate D2E/DX2                !
 ! A1    A(2,1,3)              124.6393         estimate D2E/DX2                !
 ! A2    A(2,1,6)              118.9827         estimate D2E/DX2                !
 ! A3    A(3,1,6)              116.378          estimate D2E/DX2                !
 ! A4    A(1,2,7)              119.0424         estimate D2E/DX2                !
 ! A5    A(1,2,8)              123.8175         estimate D2E/DX2                !
 ! A6    A(7,2,8)              117.1401         estimate D2E/DX2                !
 ! A7    A(2,8,9)              124.2562         estimate D2E/DX2                !
 ! A8    A(2,8,10)             116.2844         estimate D2E/DX2                !
 ! A9    A(9,8,10)             119.4594         estimate D2E/DX2                !
 ! A10   A(8,9,11)             121.4648         estimate D2E/DX2                !
 ! A11   A(8,9,12)             121.8114         estimate D2E/DX2                !
 ! A12   A(11,9,12)            116.7238         estimate D2E/DX2                !
 ! A13   L(1,3,4,7,-1)         181.5239         estimate D2E/DX2                !
 ! A14   L(3,4,5,7,-1)         179.4533         estimate D2E/DX2                !
 ! A15   L(1,3,4,7,-2)         180.0            estimate D2E/DX2                !
 ! A16   L(3,4,5,7,-2)         180.0            estimate D2E/DX2                !
 ! D1    D(3,1,2,7)              0.0            estimate D2E/DX2                !
 ! D2    D(3,1,2,8)            180.0            estimate D2E/DX2                !
 ! D3    D(6,1,2,7)            180.0            estimate D2E/DX2                !
 ! D4    D(6,1,2,8)              0.0            estimate D2E/DX2                !
 ! D5    D(1,2,8,9)            180.0            estimate D2E/DX2                !
 ! D6    D(1,2,8,10)             0.0            estimate D2E/DX2                !
 ! D7    D(7,2,8,9)              0.0            estimate D2E/DX2                !
 ! D8    D(7,2,8,10)           180.0            estimate D2E/DX2                !
 ! D9    D(2,8,9,11)             0.0            estimate D2E/DX2                !
 ! D10   D(2,8,9,12)           180.0            estimate D2E/DX2                !
 ! D11   D(10,8,9,11)          180.0            estimate D2E/DX2                !
 ! D12   D(10,8,9,12)            0.0            estimate D2E/DX2                !
 --------------------------------------------------------------------------------
 Trust Radius=3.00D-01 FncErr=1.00D-07 GrdErr=1.00D-06 EigMax=2.50D+02 EigMin=1.00D-04
 Number of steps in this run=     49 maximum allowed number of steps=    100.
 GradGradGradGradGradGradGradGradGradGradGradGradGradGradGradGradGradGrad

                          Input orientation:                          
 ---------------------------------------------------------------------
 Center     Atomic      Atomic             Coordinates (Angstroms)
 Number     Number       Type             X           Y           Z
 ---------------------------------------------------------------------
      1          6           0        0.625173   -0.565102    0.000000
      2          6           0       -0.489972    0.193590    0.000000
      3          6           0        1.942710   -0.055883    0.000000
      4          6           0        3.078940    0.348873    0.000000
      5          1           0        4.075604    0.714665    0.000000
      6          1           0        0.525584   -1.649580    0.000000
      7          1           0       -0.391647    1.276704    0.000000
      8          6           0       -1.831759   -0.347247    0.000000
      9          6           0       -2.944158    0.397182    0.000000
     10          1           0       -1.914004   -1.433100    0.000000
     11          1           0       -2.900086    1.482200    0.000000
     12          1           0       -3.931153   -0.050493    0.000000
 ---------------------------------------------------------------------
                    Distance matrix (angstroms):
                    1          2          3          4          5
     1  C    0.000000
     2  C    1.348763   0.000000
     3  C    1.412518   2.445440   0.000000
     4  C    2.618458   3.572289   1.206170   0.000000
     5  H    3.680119   4.595215   2.267814   1.061670   0.000000
     6  H    1.089041   2.104431   2.132631   3.242444   4.265243
     7  H    2.103847   1.087568   2.687938   3.592471   4.502468
     8  C    2.466572   1.446685   3.785698   4.959793   6.002049
     9  C    3.696771   2.462616   4.907825   6.023292   7.026938
    10  H    2.683438   2.161941   4.095237   5.301407   6.363042
    11  H    4.076628   2.732977   5.081178   6.085489   7.017789
    12  H    4.585295   3.449827   5.873865   7.021460   8.043235
                    6          7          8          9         10
     6  H    0.000000
     7  H    3.066668   0.000000
     8  C    2.693165   2.170516   0.000000
     9  C    4.028442   2.699791   1.338509   0.000000
    10  H    2.449174   3.108152   1.088963   2.100274   0.000000
    11  H    4.641472   2.516842   2.118537   1.085913   3.077553
    12  H    4.734932   3.780153   2.120264   1.083777   2.445504
                   11         12
    11  H    0.000000
    12  H    1.847227   0.000000
 Stoichiometry    C6H6
 Framework group  CS[SG(C6H6)]
 Deg. of freedom    21
 Full point group                 CS      NOp   2
 Largest Abelian subgroup         CS      NOp   2
 Largest concise Abelian subgroup C1      NOp   1
                         Standard orientation:                         
 ---------------------------------------------------------------------
 Center     Atomic      Atomic             Coordinates (Angstroms)
 Number     Number       Type             X           Y           Z
 ---------------------------------------------------------------------
      1          6           0       -0.251568   -0.849300    0.000000
      2          6           0        0.000000    0.475794   -0.000000
      3          6           0        0.740430   -1.854859    0.000000
      4          6           0        1.564377   -2.735743    0.000000
      5          1           0        2.296979   -3.504142    0.000000
      6          1           0       -1.285931   -1.190043    0.000000
      7          1           0        1.032608    0.817152   -0.000000
      8          6           0       -1.030660    1.490997   -0.000000
      9          6           0       -0.791080    2.807890   -0.000000
     10          1           0       -2.059373    1.133799    0.000000
     11          1           0        0.221658    3.199768   -0.000000
     12          1           0       -1.594933    3.534796   -0.000000
 ---------------------------------------------------------------------
 Rotational constants (GHZ):          27.6069242           1.4203358           1.3508372
 General basis read from cards:  (5D, 7F)
 There are   210 symmetry adapted cartesian basis functions of A'  symmetry.
 There are    90 symmetry adapted cartesian basis functions of A"  symmetry.
 There are   180 symmetry adapted basis functions of A'  symmetry.
 There are    84 symmetry adapted basis functions of A"  symmetry.
   264 basis functions,   414 primitive gaussians,   300 cartesian basis functions
    21 alpha electrons       21 beta electrons
       nuclear repulsion energy       177.9231778658 Hartrees.
 NAtoms=   12 NActive=   12 NUniq=   12 SFac= 1.00D+00 NAtFMM=   60 NAOKFM=F Big=F
 Integral buffers will be    131072 words long.
 Raffenetti 2 integral format.
 Two-electron integral symmetry is turned on.
 One-electron integrals computed using PRISM.
 NBasis=   264 RedAO= T EigKep=  4.29D-05  NBF=   180    84
 NBsUse=   264 1.00D-06 EigRej= -1.00D+00 NBFU=   180    84
 ExpMin= 7.42D-02 ExpMax= 7.32D+03 ExpMxC= 2.50D+02 IAcc=3 IRadAn=         5 AccDes= 0.00D+00
 Harris functional with IExCor=  402 and IRadAn=       5 diagonalized for initial guess.
 HarFok:  IExCor=  402 AccDes= 0.00D+00 IRadAn=         5 IDoV= 1 UseB2=F ITyADJ=14
 ICtDFT=  3500011 ScaDFX=  1.000000  1.000000  1.000000  1.000000
 FoFCou: FMM=F IPFlag=           0 FMFlag=      100000 FMFlg1=           0
         NFxFlg=           0 DoJE=T BraDBF=F KetDBF=T FulRan=T
         wScrn=  0.000000 ICntrl=       500 IOpCl=  0 I1Cent=   200000004 NGrid=           0
         NMat0=    1 NMatS0=      1 NMatT0=    0 NMatD0=    1 NMtDS0=    0 NMtDT0=    0
 Petite list used in FoFCou.
 Initial guess orbital symmetries:
       Occupied  (A') (A') (A') (A') (A') (A') (A') (A') (A') (A')
                 (A') (A') (A') (A') (A') (A') (A') (A") (A") (A')
                 (A")
       Virtual   (A") (A') (A") (A") (A') (A') (A') (A') (A') (A')
                 (A') (A') (A") (A') (A') (A") (A') (A') (A') (A")
                 (A') (A") (A') (A') (A') (A") (A') (A') (A') (A')
                 (A') (A") (A') (A') (A') (A') (A') (A') (A') (A')
                 (A') (A') (A') (A") (A') (A") (A") (A") (A') (A")
                 (A") (A') (A') (A') (A') (A') (A") (A') (A') (A')
                 (A') (A") (A') (A') (A") (A") (A') (A') (A') (A")
                 (A") (A') (A') (A") (A') (A") (A') (A") (A') (A")
                 (A") (A') (A') (A") (A') (A') (A") (A') (A') (A')
                 (A") (A") (A') (A') (A') (A') (A') (A') (A") (A")
                 (A') (A') (A') (A') (A') (A') (A') (A') (A') (A")
                 (A') (A') (A') (A') (A') (A') (A') (A') (A") (A')
                 (A") (A') (A") (A") (A') (A") (A") (A') (A') (A")
                 (A') (A') (A') (A") (A") (A') (A") (A') (A') (A')
                 (A") (A') (A') (A") (A') (A') (A') (A") (A') (A")
                 (A') (A") (A') (A') (A") (A") (A') (A") (A") (A")
                 (A') (A") (A') (A') (A") (A') (A") (A') (A') (A")
                 (A') (A') (A') (A') (A") (A') (A") (A') (A") (A')
                 (A') (A") (A") (A') (A") (A") (A") (A') (A") (A')
                 (A") (A') (A') (A") (A") (A') (A") (A') (A") (A')
                 (A') (A") (A') (A") (A') (A") (A') (A') (A') (A')
                 (A') (A") (A') (A') (A') (A") (A') (A') (A") (A')
                 (A') (A") (A') (A') (A") (A') (A') (A") (A') (A')
                 (A") (A') (A') (A') (A') (A') (A') (A') (A') (A')
                 (A') (A') (A')
 The electronic state of the initial guess is 1-A'.
 Keep R1 ints in memory in symmetry-blocked form, NReq=923427879.
 Requested convergence on RMS density matrix=1.00D-08 within 128 cycles.
 Requested convergence on MAX density matrix=1.00D-06.
 Requested convergence on             energy=1.00D-06.
 No special actions if energy rises.
 Integral accuracy reduced to 1.0D-05 until final iterations.
 Initial convergence to 1.0D-05 achieved.  Increase integral accuracy.
 SCF Done:  E(RB3LYP) =  -232.238999596     A.U. after   14 cycles
            NFock= 14  Conv=0.24D-08     -V/T= 2.0042

 **********************************************************************

            Population analysis using the SCF Density.

 **********************************************************************

 Orbital symmetries:
       Occupied  (A') (A') (A') (A') (A') (A') (A') (A') (A') (A')
                 (A') (A') (A') (A') (A') (A') (A') (A") (A") (A')
                 (A")
       Virtual   (A") (A') (A") (A') (A') (A') (A') (A') (A") (A')
                 (A') (A') (A') (A") (A") (A') (A') (A') (A') (A")
                 (A") (A') (A') (A') (A") (A') (A') (A') (A') (A")
                 (A') (A') (A') (A') (A') (A') (A') (A') (A') (A')
                 (A') (A') (A') (A') (A") (A") (A") (A") (A') (A")
                 (A") (A') (A') (A') (A') (A') (A") (A') (A') (A')
                 (A') (A") (A') (A') (A") (A') (A") (A') (A') (A")
                 (A') (A') (A") (A') (A") (A") (A') (A") (A') (A')
                 (A") (A") (A') (A') (A") (A') (A") (A') (A') (A')
                 (A") (A") (A') (A') (A') (A') (A') (A') (A") (A")
                 (A') (A') (A') (A') (A') (A') (A') (A') (A') (A")
                 (A') (A') (A') (A') (A') (A') (A') (A') (A") (A')
                 (A") (A') (A") (A") (A') (A") (A") (A') (A') (A")
                 (A') (A') (A") (A') (A") (A') (A") (A') (A') (A")
                 (A') (A') (A') (A") (A') (A') (A') (A") (A") (A')
                 (A') (A") (A') (A") (A") (A') (A") (A') (A") (A')
                 (A") (A") (A') (A") (A') (A') (A") (A') (A') (A")
                 (A') (A') (A') (A') (A") (A') (A") (A') (A') (A")
                 (A") (A') (A") (A') (A") (A") (A') (A") (A") (A')
                 (A") (A') (A') (A") (A") (A') (A') (A") (A") (A')
                 (A') (A") (A') (A") (A") (A') (A') (A') (A') (A')
                 (A') (A") (A') (A') (A') (A") (A') (A') (A") (A')
                 (A') (A") (A') (A') (A") (A') (A') (A") (A') (A')
                 (A") (A') (A') (A') (A') (A') (A') (A') (A') (A')
                 (A') (A') (A')
 The electronic state is 1-A'.
 Alpha  occ. eigenvalues --  -10.20290 -10.19555 -10.19110 -10.18276 -10.18223
 Alpha  occ. eigenvalues --  -10.17444  -0.83348  -0.78246  -0.73257  -0.64193
 Alpha  occ. eigenvalues --   -0.57217  -0.54154  -0.49943  -0.48640  -0.42369
 Alpha  occ. eigenvalues --   -0.41200  -0.36740  -0.36262  -0.31000  -0.28734
 Alpha  occ. eigenvalues --   -0.23440
 Alpha virt. eigenvalues --   -0.06702   0.01552   0.02602   0.02897   0.03532
 Alpha virt. eigenvalues --    0.03990   0.05627   0.07862   0.08270   0.08911
 Alpha virt. eigenvalues --    0.13293   0.14684   0.15048   0.15320   0.18376
 Alpha virt. eigenvalues --    0.19569   0.20422   0.21559   0.22660   0.22942
 Alpha virt. eigenvalues --    0.25435   0.25848   0.26784   0.28440   0.29250
 Alpha virt. eigenvalues --    0.31339   0.32062   0.32784   0.34161   0.34726
 Alpha virt. eigenvalues --    0.36212   0.37337   0.37931   0.40449   0.41077
 Alpha virt. eigenvalues --    0.47527   0.48817   0.50286   0.52708   0.54169
 Alpha virt. eigenvalues --    0.55978   0.57767   0.62034   0.64358   0.65568
 Alpha virt. eigenvalues --    0.72148   0.74204   0.76738   0.81522   0.82392
 Alpha virt. eigenvalues --    0.86228   0.87246   0.88509   0.90600   0.91586
 Alpha virt. eigenvalues --    0.94093   0.94636   0.96371   1.00262   1.02401
 Alpha virt. eigenvalues --    1.04116   1.06195   1.08365   1.11052   1.11976
 Alpha virt. eigenvalues --    1.14414   1.14678   1.16574   1.18299   1.19437
 Alpha virt. eigenvalues --    1.20127   1.21677   1.23652   1.25509   1.26061
 Alpha virt. eigenvalues --    1.28516   1.30591   1.30794   1.33403   1.34963
 Alpha virt. eigenvalues --    1.36010   1.36765   1.39050   1.41846   1.42787
 Alpha virt. eigenvalues --    1.48256   1.51277   1.51346   1.54231   1.60608
 Alpha virt. eigenvalues --    1.61099   1.61986   1.63705   1.65962   1.66163
 Alpha virt. eigenvalues --    1.70534   1.75714   1.77212   1.79041   1.81579
 Alpha virt. eigenvalues --    1.83319   1.84191   1.92252   1.97235   1.99653
 Alpha virt. eigenvalues --    2.00540   2.08074   2.10072   2.12282   2.16306
 Alpha virt. eigenvalues --    2.21471   2.24507   2.34400   2.40543   2.53454
 Alpha virt. eigenvalues --    2.59169   2.70727   2.80767   2.88484   2.92068
 Alpha virt. eigenvalues --    2.95824   3.02899   3.04810   3.15844   3.18895
 Alpha virt. eigenvalues --    3.20620   3.22812   3.24584   3.28889   3.31729
 Alpha virt. eigenvalues --    3.33553   3.34463   3.38183   3.40028   3.41153
 Alpha virt. eigenvalues --    3.42379   3.46302   3.49236   3.55693   3.57321
 Alpha virt. eigenvalues --    3.58300   3.59948   3.61651   3.64422   3.70646
 Alpha virt. eigenvalues --    3.76577   3.79259   3.81756   3.86208   3.86658
 Alpha virt. eigenvalues --    3.90717   3.91349   3.93370   3.93560   3.94437
 Alpha virt. eigenvalues --    3.95613   3.96549   3.99017   3.99732   4.03707
 Alpha virt. eigenvalues --    4.04342   4.08966   4.09207   4.11371   4.11468
 Alpha virt. eigenvalues --    4.12814   4.14718   4.16793   4.17227   4.19357
 Alpha virt. eigenvalues --    4.19613   4.26061   4.27496   4.29534   4.30038
 Alpha virt. eigenvalues --    4.31017   4.32631   4.33265   4.34859   4.35351
 Alpha virt. eigenvalues --    4.38209   4.38271   4.39623   4.42294   4.44364
 Alpha virt. eigenvalues --    4.45904   4.49009   4.49725   4.49838   4.50841
 Alpha virt. eigenvalues --    4.53360   4.54206   4.57054   4.59466   4.66119
 Alpha virt. eigenvalues --    4.66468   4.67790   4.68853   4.71911   4.73650
 Alpha virt. eigenvalues --    4.75669   4.85121   4.86234   4.93651   4.97486
 Alpha virt. eigenvalues --    4.98129   5.01854   5.06437   5.09264   5.14998
 Alpha virt. eigenvalues --    5.20089   5.21059   5.28919   5.30474   5.34691
 Alpha virt. eigenvalues --    5.36986   5.39868   5.41516   5.46367   5.51331
 Alpha virt. eigenvalues --    5.53054   5.53856   5.58536   5.61283   5.61991
 Alpha virt. eigenvalues --    5.64862   5.70118   5.72435   5.81657   5.82685
 Alpha virt. eigenvalues --    5.92986   5.94630   5.98796   6.06427   6.11707
 Alpha virt. eigenvalues --    6.18079   6.28165   6.40788   6.66811   6.90215
 Alpha virt. eigenvalues --    7.05197   7.24305   9.02284
          Condensed to atoms (all electrons):
               1          2          3          4          5          6
     1  C    4.852273   0.584711   0.344216  -0.118573   0.000493   0.466612
     2  C    0.584711   4.812887  -0.058303  -0.005421  -0.000129  -0.075809
     3  C    0.344216  -0.058303   4.921089   0.824526  -0.078883  -0.057043
     4  C   -0.118573  -0.005421   0.824526   5.060908   0.485240  -0.008680
     5  H    0.000493  -0.000129  -0.078883   0.485240   0.534054  -0.000305
     6  H    0.466612  -0.075809  -0.057043  -0.008680  -0.000305   0.622409
     7  H   -0.040861   0.448481  -0.000585  -0.003084  -0.000176   0.005187
     8  C   -0.038262   0.366556   0.001498  -0.001044   0.000007   0.002599
     9  C   -0.001431  -0.074683  -0.002021   0.000069  -0.000001   0.001035
    10  H    0.002349  -0.052608   0.000018  -0.000338  -0.000004   0.002995
    11  H    0.000737  -0.006090  -0.000273  -0.000034  -0.000001   0.000016
    12  H   -0.000892   0.007875   0.000091   0.000001   0.000000  -0.000047
               7          8          9         10         11         12
     1  C   -0.040861  -0.038262  -0.001431   0.002349   0.000737  -0.000892
     2  C    0.448481   0.366556  -0.074683  -0.052608  -0.006090   0.007875
     3  C   -0.000585   0.001498  -0.002021   0.000018  -0.000273   0.000091
     4  C   -0.003084  -0.001044   0.000069  -0.000338  -0.000034   0.000001
     5  H   -0.000176   0.000007  -0.000001  -0.000004  -0.000001   0.000000
     6  H    0.005187   0.002599   0.001035   0.002995   0.000016  -0.000047
     7  H    0.597839  -0.055945   0.000538   0.004347   0.002415   0.000298
     8  C   -0.055945   4.800008   0.600353   0.435162  -0.056470  -0.032470
     9  C    0.000538   0.600353   4.765876  -0.035638   0.438755   0.424427
    10  H    0.004347   0.435162  -0.035638   0.621275   0.006941  -0.008364
    11  H    0.002415  -0.056470   0.438755   0.006941   0.598272  -0.030752
    12  H    0.000298  -0.032470   0.424427  -0.008364  -0.030752   0.586452
 Mulliken charges:
               1
     1  C   -0.051372
     2  C    0.052533
     3  C    0.105671
     4  C   -0.233571
     5  H    0.059706
     6  H    0.041030
     7  H    0.041546
     8  C   -0.021992
     9  C   -0.117279
    10  H    0.023865
    11  H    0.046484
    12  H    0.053380
 Sum of Mulliken charges =  -0.00000
 Mulliken charges with hydrogens summed into heavy atoms:
               1
     1  C   -0.010343
     2  C    0.094079
     3  C    0.105671
     4  C   -0.173865
     8  C    0.001873
     9  C   -0.017415
 Electronic spatial extent (au):  <R**2>=            840.6488
 Charge=             -0.0000 electrons
 Dipole moment (field-independent basis, Debye):
    X=             -0.2760    Y=              0.5862    Z=             -0.0000  Tot=              0.6479
 Quadrupole moment (field-independent basis, Debye-Ang):
   XX=            -32.1774   YY=            -32.3232   ZZ=            -40.3723
   XY=             -2.0899   XZ=              0.0000   YZ=              0.0000
 Traceless Quadrupole moment (field-independent basis, Debye-Ang):
   XX=              2.7802   YY=              2.6345   ZZ=             -5.4147
   XY=             -2.0899   XZ=              0.0000   YZ=              0.0000
 Octapole moment (field-independent basis, Debye-Ang**2):
  XXX=             -0.9990  YYY=              0.6477  ZZZ=              0.0000  XYY=             12.0968
  XXY=             -6.3898  XXZ=              0.0000  XZZ=             -0.2884  YZZ=              0.1818
  YYZ=             -0.0000  XYZ=             -0.0000
 Hexadecapole moment (field-independent basis, Debye-Ang**3):
 XXXX=           -233.5136 YYYY=           -821.3974 ZZZZ=            -50.1854 XXXY=            143.3604
 XXXZ=              0.0000 YYYX=            101.4280 YYYZ=              0.0000 ZZZX=             -0.0000
 ZZZY=              0.0000 XXYY=           -137.3384 XXZZ=            -56.1684 YYZZ=           -180.3119
 XXYZ=              0.0000 YYXZ=              0.0000 ZZXY=             66.4534
 N-N= 1.779231778658D+02 E-N=-8.941384476132D+02  KE= 2.312659194783D+02
 Symmetry A'   KE= 2.247308109008D+02
 Symmetry A"   KE= 6.535108577571D+00
 Calling FoFJK, ICntrl=      2127 FMM=F ISym2X=1 I1Cent= 0 IOpClX= 0 NMat=1 NMatS=1 NMatT=0.
 ***** Axes restored to original set *****
 -------------------------------------------------------------------
 Center     Atomic                   Forces (Hartrees/Bohr)
 Number     Number              X              Y              Z
 -------------------------------------------------------------------
      1        6          -0.003363859   -0.001455293    0.000000000
      2        6           0.001084175    0.001212984    0.000000000
      3        6           0.004754957    0.002035636   -0.000000000
      4        6          -0.004138587   -0.001441881    0.000000000
      5        1          -0.000315792   -0.000192479    0.000000000
      6        1           0.000391829    0.002140329    0.000000000
      7        1          -0.000026847   -0.002034679   -0.000000000
      8        6          -0.000629863   -0.001164424   -0.000000000
      9        6           0.000189068    0.000232224    0.000000000
     10        1          -0.000304195    0.002234976    0.000000000
     11        1           0.000146315   -0.002091912   -0.000000000
     12        1           0.002212798    0.000524518   -0.000000000
 -------------------------------------------------------------------
 Cartesian Forces:  Max     0.004754957 RMS     0.001559483

 GradGradGradGradGradGradGradGradGradGradGradGradGradGradGradGradGradGrad
 Berny optimization.
 FormGI is forming the generalized inverse of G from B-inverse, IUseBI=4.
 Internal  Forces:  Max     0.004744424 RMS     0.001303172
 Search for a local minimum.
 Step number   1 out of a maximum of   49
 All quantities printed in internal units (Hartrees-Bohrs-Radians)
 Mixed Optimization -- RFO/linear search
 Second derivative matrix not updated -- first step.
 ITU=  0
     Eigenvalues ---    0.00610   0.00610   0.01471   0.02130   0.02208
     Eigenvalues ---    0.02767   0.02767   0.02902   0.02902   0.04653
     Eigenvalues ---    0.04653   0.16000   0.16000   0.16000   0.16000
     Eigenvalues ---    0.16000   0.22000   0.22000   0.22000   0.34924
     Eigenvalues ---    0.34933   0.35095   0.35289   0.35542   0.38303
     Eigenvalues ---    0.38683   0.43607   0.55285   0.57540   1.01783
 RFO step:  Lambda=-1.38384175D-04 EMin= 6.09583410D-03
 Linear search not attempted -- first point.
 Iteration  1 RMS(Cart)=  0.00894898 RMS(Int)=  0.00010476
 Iteration  2 RMS(Cart)=  0.00010372 RMS(Int)=  0.00000000
 Iteration  3 RMS(Cart)=  0.00000000 RMS(Int)=  0.00000000
 ClnCor:  largest displacement from symmetrization is 2.07D-09 for atom     4.
 Variable       Old X    -DE/DX   Delta X   Delta X   Delta X     New X
                                 (Linear)    (Quad)   (Total)
    R1        2.54879  -0.00282   0.00000  -0.00510  -0.00510   2.54369
    R2        2.66927   0.00043   0.00000   0.00097   0.00097   2.67025
    R3        2.05799  -0.00217   0.00000  -0.00620  -0.00620   2.05179
    R4        2.05521  -0.00203   0.00000  -0.00578  -0.00578   2.04943
    R5        2.73384  -0.00140   0.00000  -0.00361  -0.00361   2.73023
    R6        2.27933  -0.00474   0.00000  -0.00466  -0.00466   2.27467
    R7        2.00627  -0.00036   0.00000  -0.00095  -0.00095   2.00532
    R8        2.52942  -0.00286   0.00000  -0.00497  -0.00497   2.52445
    R9        2.05784  -0.00221   0.00000  -0.00631  -0.00631   2.05153
   R10        2.05208  -0.00208   0.00000  -0.00590  -0.00590   2.04617
   R11        2.04804  -0.00223   0.00000  -0.00628  -0.00628   2.04176
    A1        2.17537  -0.00044   0.00000  -0.00202  -0.00202   2.17335
    A2        2.07664   0.00042   0.00000   0.00226   0.00226   2.07890
    A3        2.03118   0.00002   0.00000  -0.00024  -0.00024   2.03094
    A4        2.07768   0.00012   0.00000   0.00025   0.00025   2.07794
    A5        2.16102  -0.00056   0.00000  -0.00252  -0.00252   2.15850
    A6        2.04448   0.00044   0.00000   0.00227   0.00227   2.04675
    A7        2.16868  -0.00056   0.00000  -0.00255  -0.00255   2.16613
    A8        2.02955   0.00077   0.00000   0.00431   0.00431   2.03385
    A9        2.08496  -0.00020   0.00000  -0.00176  -0.00176   2.08320
   A10        2.11996  -0.00002   0.00000  -0.00011  -0.00011   2.11985
   A11        2.12601  -0.00044   0.00000  -0.00274  -0.00274   2.12327
   A12        2.03721   0.00046   0.00000   0.00285   0.00285   2.04006
   A13        3.16819   0.00024   0.00000   0.00524   0.00524   3.17343
   A14        3.13205   0.00014   0.00000   0.02304   0.02304   3.15509
   A15        3.14159   0.00000   0.00000   0.00000   0.00000   3.14159
   A16        3.14159  -0.00000   0.00000  -0.00000   0.00000   3.14159
    D1        0.00000  -0.00000   0.00000  -0.00000   0.00000   0.00000
    D2        3.14159  -0.00000   0.00000  -0.00000   0.00000   3.14159
    D3        3.14159   0.00000   0.00000   0.00000   0.00000   3.14159
    D4        0.00000  -0.00000   0.00000   0.00000  -0.00000   0.00000
    D5        3.14159  -0.00000   0.00000   0.00000   0.00000   3.14159
    D6       -0.00000  -0.00000   0.00000   0.00000   0.00000   0.00000
    D7       -0.00000   0.00000   0.00000   0.00000   0.00000   0.00000
    D8        3.14159   0.00000   0.00000   0.00000   0.00000   3.14159
    D9        0.00000   0.00000   0.00000   0.00000  -0.00000   0.00000
   D10        3.14159   0.00000   0.00000   0.00000   0.00000   3.14159
   D11        3.14159   0.00000   0.00000   0.00000   0.00000   3.14159
   D12       -0.00000   0.00000   0.00000   0.00000   0.00000   0.00000
         Item               Value     Threshold  Converged?
 Maximum Force            0.004744     0.000450     NO 
 RMS     Force            0.001303     0.000300     NO 
 Maximum Displacement     0.037984     0.001800     NO 
 RMS     Displacement     0.008960     0.001200     NO 
 Predicted change in Energy=-6.925416D-05
 GradGradGradGradGradGradGradGradGradGradGradGradGradGradGradGradGradGrad

                          Input orientation:                          
 ---------------------------------------------------------------------
 Center     Atomic      Atomic             Coordinates (Angstroms)
 Number     Number       Type             X           Y           Z
 ---------------------------------------------------------------------
      1          6           0        0.621631   -0.559704   -0.000000
      2          6           0       -0.491852    0.196633    0.000000
      3          6           0        1.938232   -0.046648   -0.000000
      4          6           0        3.073133    0.354477   -0.000000
      5          1           0        4.078330    0.694565   -0.000000
      6          1           0        0.525599   -1.641207   -0.000000
      7          1           0       -0.394889    1.276800    0.000000
      8          6           0       -1.830090   -0.347875    0.000000
      9          6           0       -2.940841    0.394287    0.000000
     10          1           0       -1.913201   -1.430312   -0.000000
     11          1           0       -2.897558    1.476210    0.000000
     12          1           0       -3.923261   -0.055418    0.000000
 ---------------------------------------------------------------------
                    Distance matrix (angstroms):
                    1          2          3          4          5
     1  C    0.000000
     2  C    1.346064   0.000000
     3  C    1.413034   2.442231   0.000000
     4  C    2.616408   3.568478   1.203704   0.000000
     5  H    3.677222   4.597227   2.264821   1.061169   0.000000
     6  H    1.085758   2.100682   2.130294   3.236153   4.251791
     7  H    2.099061   1.084510   2.682343   3.588573   4.510951
     8  C    2.460854   1.444773   3.780342   4.953271   5.999675
     9  C    3.687994   2.456952   4.898956   6.014106   7.025591
    10  H    2.680173   2.160367   4.092439   5.296131   6.357164
    11  H    4.065665   2.724837   5.069907   6.075149   7.019543
    12  H    4.572783   3.440654   5.861499   7.008391   8.036661
                    6          7          8          9         10
     6  H    0.000000
     7  H    3.059749   0.000000
     8  C    2.687374   2.167803   0.000000
     9  C    4.019881   2.694569   1.335879   0.000000
    10  H    2.447901   3.103825   1.085624   2.094089   0.000000
    11  H    4.629934   2.510601   2.113474   1.082788   3.068685
    12  H    4.723037   3.771500   2.113503   1.080455   2.435298
                   11         12
    11  H    0.000000
    12  H    1.843353   0.000000
 Stoichiometry    C6H6
 Framework group  CS[SG(C6H6)]
 Deg. of freedom    21
 Full point group                 CS      NOp   2
 Largest Abelian subgroup         CS      NOp   2
 Largest concise Abelian subgroup C1      NOp   1
                         Standard orientation:                         
 ---------------------------------------------------------------------
 Center     Atomic      Atomic             Coordinates (Angstroms)
 Number     Number       Type             X           Y           Z
 ---------------------------------------------------------------------
      1          6           0       -0.248979   -0.846214   -0.000000
      2          6           0       -0.000000    0.476623    0.000000
      3          6           0        0.746993   -1.848564    0.000000
      4          6           0        1.567808   -2.728999    0.000000
      5          1           0        2.280882   -3.514877    0.000000
      6          1           0       -1.278912   -1.189884   -0.000000
      7          1           0        1.029079    0.818906    0.000000
      8          6           0       -1.033447    1.486255   -0.000000
      9          6           0       -0.796375    2.800930   -0.000000
     10          1           0       -2.059079    1.130366   -0.000000
     11          1           0        0.212887    3.193131    0.000000
     12          1           0       -1.600862    3.522167   -0.000000
 ---------------------------------------------------------------------
 Rotational constants (GHZ):          27.8009902           1.4244610           1.3550321
 Basis read from rwf:  (5D, 7F)
 There are   210 symmetry adapted cartesian basis functions of A'  symmetry.
 There are    90 symmetry adapted cartesian basis functions of A"  symmetry.
 There are   180 symmetry adapted basis functions of A'  symmetry.
 There are    84 symmetry adapted basis functions of A"  symmetry.
   264 basis functions,   414 primitive gaussians,   300 cartesian basis functions
    21 alpha electrons       21 beta electrons
       nuclear repulsion energy       178.2220145670 Hartrees.
 NAtoms=   12 NActive=   12 NUniq=   12 SFac= 1.00D+00 NAtFMM=   60 NAOKFM=F Big=F
 Integral buffers will be    131072 words long.
 Raffenetti 2 integral format.
 Two-electron integral symmetry is turned on.
 One-electron integrals computed using PRISM.
 NBasis=   264 RedAO= T EigKep=  4.27D-05  NBF=   180    84
 NBsUse=   264 1.00D-06 EigRej= -1.00D+00 NBFU=   180    84
 Initial guess from the checkpoint file:  "/wrk/irikura/Gau-5721.chk"
 B after Tr=     0.000000   -0.000000    0.000000
         Rot=    1.000000   -0.000000   -0.000000   -0.000966 Ang=  -0.11 deg.
 Initial guess orbital symmetries:
       Occupied  (A') (A') (A') (A') (A') (A') (A') (A') (A') (A')
                 (A') (A') (A') (A') (A') (A') (A') (A") (A") (A')
                 (A")
       Virtual   (A") (A') (A") (A') (A') (A') (A') (A') (A") (A')
                 (A') (A') (A') (A") (A") (A') (A') (A') (A') (A")
                 (A") (A') (A') (A') (A") (A') (A') (A') (A') (A")
                 (A') (A') (A') (A') (A') (A') (A') (A') (A') (A')
                 (A') (A') (A') (A') (A") (A") (A") (A") (A') (A")
                 (A") (A') (A') (A') (A') (A') (A") (A') (A') (A')
                 (A') (A") (A') (A') (A") (A') (A") (A') (A') (A")
                 (A') (A') (A") (A') (A") (A") (A') (A") (A') (A')
                 (A") (A") (A') (A') (A") (A') (A") (A') (A') (A')
                 (A") (A") (A') (A') (A') (A') (A') (A') (A") (A")
                 (A') (A') (A') (A') (A') (A') (A') (A') (A') (A")
                 (A') (A') (A') (A') (A') (A') (A') (A') (A") (A')
                 (A") (A') (A") (A") (A') (A") (A") (A') (A') (A")
                 (A') (A') (A") (A') (A") (A') (A") (A') (A') (A")
                 (A') (A') (A') (A") (A') (A') (A') (A") (A") (A')
                 (A') (A") (A') (A") (A") (A') (A") (A') (A") (A')
                 (A") (A") (A') (A") (A') (A') (A") (A') (A') (A")
                 (A') (A') (A') (A') (A") (A') (A") (A') (A') (A")
                 (A") (A') (A") (A') (A") (A") (A') (A") (A") (A')
                 (A") (A') (A') (A") (A") (A') (A') (A") (A") (A')
                 (A') (A") (A') (A") (A") (A') (A') (A') (A') (A')
                 (A') (A") (A') (A') (A') (A") (A') (A') (A") (A')
                 (A') (A") (A') (A') (A") (A') (A') (A") (A') (A')
                 (A") (A') (A') (A') (A') (A') (A') (A') (A') (A')
                 (A') (A') (A')
 ExpMin= 7.42D-02 ExpMax= 7.32D+03 ExpMxC= 2.50D+02 IAcc=3 IRadAn=         5 AccDes= 0.00D+00
 Harris functional with IExCor=  402 and IRadAn=       5 diagonalized for initial guess.
 HarFok:  IExCor=  402 AccDes= 0.00D+00 IRadAn=         5 IDoV= 1 UseB2=F ITyADJ=14
 ICtDFT=  3500011 ScaDFX=  1.000000  1.000000  1.000000  1.000000
 FoFCou: FMM=F IPFlag=           0 FMFlag=      100000 FMFlg1=           0
         NFxFlg=           0 DoJE=T BraDBF=F KetDBF=T FulRan=T
         wScrn=  0.000000 ICntrl=       500 IOpCl=  0 I1Cent=   200000004 NGrid=           0
         NMat0=    1 NMatS0=      1 NMatT0=    0 NMatD0=    1 NMtDS0=    0 NMtDT0=    0
 Petite list used in FoFCou.
 Keep R1 ints in memory in symmetry-blocked form, NReq=923427879.
 Requested convergence on RMS density matrix=1.00D-08 within 128 cycles.
 Requested convergence on MAX density matrix=1.00D-06.
 Requested convergence on             energy=1.00D-06.
 No special actions if energy rises.
 Integral accuracy reduced to 1.0D-05 until final iterations.
 Initial convergence to 1.0D-05 achieved.  Increase integral accuracy.
 SCF Done:  E(RB3LYP) =  -232.239049667     A.U. after   10 cycles
            NFock= 10  Conv=0.54D-08     -V/T= 2.0040
 Calling FoFJK, ICntrl=      2127 FMM=F ISym2X=1 I1Cent= 0 IOpClX= 0 NMat=1 NMatS=1 NMatT=0.
 ***** Axes restored to original set *****
 -------------------------------------------------------------------
 Center     Atomic                   Forces (Hartrees/Bohr)
 Number     Number              X              Y              Z
 -------------------------------------------------------------------
      1        6          -0.000673696   -0.000045616    0.000000000
      2        6           0.000146724    0.000281297    0.000000000
      3        6           0.000500221    0.000000734   -0.000000000
      4        6           0.000385604   -0.000805559   -0.000000000
      5        1          -0.000206608    0.000625428    0.000000000
      6        1           0.000213904    0.000063366   -0.000000000
      7        1          -0.000029820   -0.000046335   -0.000000000
      8        6           0.000182698   -0.000397843   -0.000000000
      9        6          -0.000474557    0.000389590    0.000000000
     10        1          -0.000054275    0.000043054    0.000000000
     11        1           0.000045222   -0.000008878   -0.000000000
     12        1          -0.000035417   -0.000099238   -0.000000000
 -------------------------------------------------------------------
 Cartesian Forces:  Max     0.000805559 RMS     0.000272731

 GradGradGradGradGradGradGradGradGradGradGradGradGradGradGradGradGradGrad
 Berny optimization.
 Using GEDIIS/GDIIS optimizer.
 FormGI is forming the generalized inverse of G from B-inverse, IUseBI=4.
 Internal  Forces:  Max     0.001321466 RMS     0.000293142
 Search for a local minimum.
 Step number   2 out of a maximum of   49
 All quantities printed in internal units (Hartrees-Bohrs-Radians)
 Mixed Optimization -- En-DIIS/RFO-DIIS
 Update second derivatives using D2CorX and points    1    2
 DE= -5.01D-05 DEPred=-6.93D-05 R= 7.23D-01
 TightC=F SS=  1.41D+00  RLast= 2.99D-02 DXNew= 5.0454D-01 8.9815D-02
 Trust test= 7.23D-01 RLast= 2.99D-02 DXMaxT set to 3.00D-01
 ITU=  1  0
 Use linear search instead of GDIIS.
     Eigenvalues ---    0.00610   0.00856   0.01471   0.02130   0.02205
     Eigenvalues ---    0.02767   0.02767   0.02902   0.02902   0.04653
     Eigenvalues ---    0.04887   0.15457   0.16000   0.16000   0.16000
     Eigenvalues ---    0.16067   0.21983   0.22000   0.22050   0.31409
     Eigenvalues ---    0.34930   0.35040   0.35233   0.35505   0.38294
     Eigenvalues ---    0.38967   0.43661   0.55188   0.58495   0.99243
 RFO step:  Lambda=-1.73536360D-04 EMin= 6.09583410D-03
 Quartic linear search produced a step of -0.21721.
 Iteration  1 RMS(Cart)=  0.04016372 RMS(Int)=  0.00285169
 Iteration  2 RMS(Cart)=  0.00285258 RMS(Int)=  0.00000319
 Iteration  3 RMS(Cart)=  0.00000513 RMS(Int)=  0.00000000
 Iteration  4 RMS(Cart)=  0.00000000 RMS(Int)=  0.00000000
 ClnCor:  largest displacement from symmetrization is 4.69D-09 for atom     3.
 Variable       Old X    -DE/DX   Delta X   Delta X   Delta X     New X
                                 (Linear)    (Quad)   (Total)
    R1        2.54369   0.00027   0.00111  -0.00716  -0.00605   2.53764
    R2        2.67025   0.00057  -0.00021   0.00246   0.00225   2.67250
    R3        2.05179  -0.00008   0.00135  -0.00936  -0.00802   2.04377
    R4        2.04943  -0.00005   0.00126  -0.00866  -0.00740   2.04202
    R5        2.73023   0.00034   0.00078  -0.00466  -0.00387   2.72635
    R6        2.27467   0.00011   0.00101  -0.00681  -0.00580   2.26887
    R7        2.00532   0.00000   0.00021  -0.00139  -0.00119   2.00413
    R8        2.52445   0.00054   0.00108  -0.00661  -0.00553   2.51891
    R9        2.05153  -0.00004   0.00137  -0.00943  -0.00805   2.04348
   R10        2.04617  -0.00001   0.00128  -0.00875  -0.00747   2.03870
   R11        2.04176   0.00007   0.00136  -0.00913  -0.00776   2.03400
    A1        2.17335   0.00006   0.00044  -0.00278  -0.00234   2.17101
    A2        2.07890   0.00018  -0.00049   0.00428   0.00379   2.08269
    A3        2.03094  -0.00024   0.00005  -0.00151  -0.00145   2.02949
    A4        2.07794  -0.00002  -0.00006   0.00035   0.00030   2.07824
    A5        2.15850   0.00008   0.00055  -0.00344  -0.00289   2.15561
    A6        2.04675  -0.00007  -0.00049   0.00308   0.00259   2.04934
    A7        2.16613   0.00004   0.00055  -0.00362  -0.00306   2.16306
    A8        2.03385   0.00004  -0.00094   0.00659   0.00565   2.03950
    A9        2.08320  -0.00008   0.00038  -0.00297  -0.00259   2.08062
   A10        2.11985  -0.00001   0.00002  -0.00022  -0.00019   2.11966
   A11        2.12327  -0.00007   0.00059  -0.00440  -0.00381   2.11947
   A12        2.04006   0.00008  -0.00062   0.00462   0.00400   2.04406
   A13        3.17343  -0.00080  -0.00114  -0.00570  -0.00684   3.16659
   A14        3.15509  -0.00132  -0.00500  -0.13132  -0.13633   3.01877
   A15        3.14159  -0.00000   0.00000  -0.00000   0.00000   3.14159
   A16        3.14159  -0.00000   0.00000  -0.00000   0.00000   3.14159
    D1        0.00000   0.00000   0.00000   0.00000  -0.00000   0.00000
    D2        3.14159  -0.00000   0.00000   0.00000   0.00000   3.14159
    D3        3.14159   0.00000   0.00000   0.00000   0.00000   3.14159
    D4        0.00000  -0.00000   0.00000   0.00000   0.00000   0.00000
    D5        3.14159   0.00000   0.00000   0.00000   0.00000   3.14159
    D6        0.00000   0.00000   0.00000   0.00000  -0.00000   0.00000
    D7       -0.00000  -0.00000   0.00000   0.00000   0.00000   0.00000
    D8        3.14159  -0.00000   0.00000   0.00000   0.00000   3.14159
    D9        0.00000   0.00000   0.00000   0.00000  -0.00000   0.00000
   D10        3.14159   0.00000   0.00000   0.00000   0.00000   3.14159
   D11        3.14159   0.00000   0.00000   0.00000   0.00000   3.14159
   D12       -0.00000  -0.00000   0.00000  -0.00000   0.00000   0.00000
         Item               Value     Threshold  Converged?
 Maximum Force            0.001321     0.000450     NO 
 RMS     Force            0.000293     0.000300     YES
 Maximum Displacement     0.179687     0.001800     NO 
 RMS     Displacement     0.040875     0.001200     NO 
 Predicted change in Energy=-9.321516D-05
 GradGradGradGradGradGradGradGradGradGradGradGradGradGradGradGradGradGrad

                          Input orientation:                          
 ---------------------------------------------------------------------
 Center     Atomic      Atomic             Coordinates (Angstroms)
 Number     Number       Type             X           Y           Z
 ---------------------------------------------------------------------
      1          6           0        0.616947   -0.581835   -0.000000
      2          6           0       -0.485485    0.184925    0.000000
      3          6           0        1.939079   -0.079837   -0.000000
      4          6           0        3.071830    0.318156   -0.000000
      5          1           0        4.021799    0.789651   -0.000000
      6          1           0        0.513480   -1.658391   -0.000000
      7          1           0       -0.377314    1.260089    0.000000
      8          6           0       -1.826216   -0.347893    0.000000
      9          6           0       -2.926152    0.405032    0.000000
     10          1           0       -1.923878   -1.424835   -0.000000
     11          1           0       -2.870726    1.482442    0.000000
     12          1           0       -3.908132   -0.035695    0.000000
 ---------------------------------------------------------------------
                    Distance matrix (angstroms):
                    1          2          3          4          5
     1  C    0.000000
     2  C    1.342862   0.000000
     3  C    1.414226   2.438977   0.000000
     4  C    2.614658   3.559809   1.200634   0.000000
     5  H    3.670694   4.547671   2.256930   1.060542   0.000000
     6  H    1.081516   2.096603   2.127009   3.232939   4.277992
     7  H    2.093141   1.080591   2.676019   3.575448   4.424196
     8  C    2.454338   1.442724   3.774825   4.943124   5.957624
     9  C    3.677969   2.450572   4.889333   5.998612   6.958589
    10  H    2.677021   2.158773   4.090411   5.291041   6.344685
    11  H    4.052789   2.715313   5.057167   6.055538   6.927255
    12  H    4.557917   3.429750   5.847378   6.988926   7.972767
                    6          7          8          9         10
     6  H    0.000000
     7  H    3.051399   0.000000
     8  C    2.681712   2.164468   0.000000
     9  C    4.011083   2.688438   1.332950   0.000000
    10  H    2.448523   3.098495   1.081361   2.086376   0.000000
    11  H    4.617107   2.503307   2.107398   1.078835   3.057577
    12  H    4.709967   3.761081   2.105194   1.076348   2.422183
                   11         12
    11  H    0.000000
    12  H    1.838736   0.000000
 Stoichiometry    C6H6
 Framework group  CS[SG(C6H6)]
 Deg. of freedom    21
 Full point group                 CS      NOp   2
 Largest Abelian subgroup         CS      NOp   2
 Largest concise Abelian subgroup C1      NOp   1
                         Standard orientation:                         
 ---------------------------------------------------------------------
 Center     Atomic      Atomic             Coordinates (Angstroms)
 Number     Number       Type             X           Y           Z
 ---------------------------------------------------------------------
      1          6           0       -0.260227   -0.844732    0.000000
      2          6           0        0.000000    0.472675   -0.000000
      3          6           0        0.729901   -1.854524    0.000000
      4          6           0        1.548800   -2.732550    0.000000
      5          1           0        2.361720   -3.413659    0.000000
      6          1           0       -1.287899   -1.181732    0.000000
      7          1           0        1.028283    0.804807   -0.000000
      8          6           0       -1.025820    1.487143   -0.000000
      9          6           0       -0.777265    2.796715   -0.000000
     10          1           0       -2.051517    1.144671   -0.000000
     11          1           0        0.231921    3.178065   -0.000000
     12          1           0       -1.574840    3.519487   -0.000000
 ---------------------------------------------------------------------
 Rotational constants (GHZ):          27.4196383           1.4330229           1.3618491
 Basis read from rwf:  (5D, 7F)
 There are   210 symmetry adapted cartesian basis functions of A'  symmetry.
 There are    90 symmetry adapted cartesian basis functions of A"  symmetry.
 There are   180 symmetry adapted basis functions of A'  symmetry.
 There are    84 symmetry adapted basis functions of A"  symmetry.
   264 basis functions,   414 primitive gaussians,   300 cartesian basis functions
    21 alpha electrons       21 beta electrons
       nuclear repulsion energy       178.5992394336 Hartrees.
 NAtoms=   12 NActive=   12 NUniq=   12 SFac= 1.00D+00 NAtFMM=   60 NAOKFM=F Big=F
 Integral buffers will be    131072 words long.
 Raffenetti 2 integral format.
 Two-electron integral symmetry is turned on.
 One-electron integrals computed using PRISM.
 NBasis=   264 RedAO= T EigKep=  4.27D-05  NBF=   180    84
 NBsUse=   264 1.00D-06 EigRej= -1.00D+00 NBFU=   180    84
 Initial guess from the checkpoint file:  "/wrk/irikura/Gau-5721.chk"
 B after Tr=    -0.000000   -0.000000   -0.000000
         Rot=    0.999999    0.000000    0.000000    0.001658 Ang=   0.19 deg.
 Initial guess orbital symmetries:
       Occupied  (A') (A') (A') (A') (A') (A') (A') (A') (A') (A')
                 (A') (A') (A') (A') (A') (A') (A') (A") (A") (A')
                 (A")
       Virtual   (A") (A') (A") (A') (A') (A') (A') (A') (A") (A')
                 (A') (A') (A') (A") (A") (A') (A') (A') (A') (A")
                 (A") (A') (A') (A') (A") (A') (A') (A') (A') (A")
                 (A') (A') (A') (A') (A') (A') (A') (A') (A') (A')
                 (A') (A') (A') (A') (A") (A") (A") (A") (A') (A")
                 (A") (A') (A') (A') (A') (A') (A") (A') (A') (A')
                 (A') (A") (A') (A') (A") (A') (A") (A') (A') (A")
                 (A') (A') (A") (A') (A") (A") (A') (A") (A') (A')
                 (A") (A") (A') (A') (A") (A') (A") (A') (A') (A')
                 (A") (A") (A') (A') (A') (A') (A') (A') (A") (A")
                 (A') (A') (A') (A') (A') (A') (A') (A') (A') (A")
                 (A') (A') (A') (A') (A') (A') (A') (A') (A") (A')
                 (A") (A') (A") (A") (A') (A") (A") (A') (A') (A")
                 (A') (A') (A") (A') (A") (A') (A") (A') (A') (A")
                 (A') (A') (A') (A") (A') (A') (A') (A") (A") (A')
                 (A') (A") (A') (A") (A") (A') (A") (A') (A") (A')
                 (A") (A") (A') (A") (A') (A') (A") (A') (A') (A")
                 (A') (A') (A') (A') (A") (A') (A") (A') (A') (A")
                 (A') (A") (A") (A') (A") (A") (A') (A") (A") (A')
                 (A") (A') (A') (A") (A") (A') (A') (A") (A") (A')
                 (A') (A") (A') (A") (A") (A') (A') (A') (A') (A')
                 (A') (A") (A') (A') (A') (A") (A') (A') (A") (A')
                 (A') (A") (A') (A') (A") (A') (A') (A") (A') (A')
                 (A") (A') (A') (A') (A') (A') (A') (A') (A') (A')
                 (A') (A') (A')
 ExpMin= 7.42D-02 ExpMax= 7.32D+03 ExpMxC= 2.50D+02 IAcc=3 IRadAn=         5 AccDes= 0.00D+00
 Harris functional with IExCor=  402 and IRadAn=       5 diagonalized for initial guess.
 HarFok:  IExCor=  402 AccDes= 0.00D+00 IRadAn=         5 IDoV= 1 UseB2=F ITyADJ=14
 ICtDFT=  3500011 ScaDFX=  1.000000  1.000000  1.000000  1.000000
 FoFCou: FMM=F IPFlag=           0 FMFlag=      100000 FMFlg1=           0
         NFxFlg=           0 DoJE=T BraDBF=F KetDBF=T FulRan=T
         wScrn=  0.000000 ICntrl=       500 IOpCl=  0 I1Cent=   200000004 NGrid=           0
         NMat0=    1 NMatS0=      1 NMatT0=    0 NMatD0=    1 NMtDS0=    0 NMtDT0=    0
 Petite list used in FoFCou.
 Keep R1 ints in memory in symmetry-blocked form, NReq=923427879.
 Requested convergence on RMS density matrix=1.00D-08 within 128 cycles.
 Requested convergence on MAX density matrix=1.00D-06.
 Requested convergence on             energy=1.00D-06.
 No special actions if energy rises.
 Integral accuracy reduced to 1.0D-05 until final iterations.
 Initial convergence to 1.0D-05 achieved.  Increase integral accuracy.
 SCF Done:  E(RB3LYP) =  -232.238560987     A.U. after   11 cycles
            NFock= 11  Conv=0.38D-08     -V/T= 2.0037
 Calling FoFJK, ICntrl=      2127 FMM=F ISym2X=1 I1Cent= 0 IOpClX= 0 NMat=1 NMatS=1 NMatT=0.
 ***** Axes restored to original set *****
 -------------------------------------------------------------------
 Center     Atomic                   Forces (Hartrees/Bohr)
 Number     Number              X              Y              Z
 -------------------------------------------------------------------
      1        6           0.003938804   -0.000523403   -0.000000000
      2        6          -0.000749912   -0.000863768   -0.000000000
      3        6          -0.006218764   -0.002572687    0.000000000
      4        6           0.003965440    0.006697279    0.000000000
      5        1           0.002062199   -0.002767188   -0.000000000
      6        1          -0.000530787   -0.002722020   -0.000000000
      7        1           0.000005563    0.002570398    0.000000000
      8        6           0.001150919    0.000780056    0.000000000
      9        6          -0.000928429    0.000375688    0.000000000
     10        1           0.000258400   -0.002801523   -0.000000000
     11        1          -0.000076250    0.002675336    0.000000000
     12        1          -0.002877183   -0.000848168    0.000000000
 -------------------------------------------------------------------
 Cartesian Forces:  Max     0.006697279 RMS     0.002212258

 GradGradGradGradGradGradGradGradGradGradGradGradGradGradGradGradGradGrad
 Berny optimization.
 Using GEDIIS/GDIIS optimizer.
 FormGI is forming the generalized inverse of G from B-inverse, IUseBI=4.
 Internal  Forces:  Max     0.006989685 RMS     0.002168328
 Search for a local minimum.
 Step number   3 out of a maximum of   49
 All quantities printed in internal units (Hartrees-Bohrs-Radians)
 Mixed Optimization -- RFO/linear search
 Update second derivatives using D2CorX and points    1    3    2
 DE=  4.89D-04 DEPred=-9.32D-05 R=-5.24D+00
 Trust test=-5.24D+00 RLast= 1.38D-01 DXMaxT set to 1.50D-01
 ITU= -1  1  0
 Use linear search instead of GDIIS.
     Eigenvalues ---    0.00610   0.01471   0.02129   0.02202   0.02767
     Eigenvalues ---    0.02767   0.02902   0.02902   0.03313   0.04653
     Eigenvalues ---    0.08297   0.15613   0.16000   0.16000   0.16004
     Eigenvalues ---    0.16050   0.21983   0.22028   0.22083   0.33612
     Eigenvalues ---    0.34930   0.35045   0.35249   0.35557   0.38305
     Eigenvalues ---    0.39136   0.43511   0.55535   0.59556   1.02454
 RFO step:  Lambda=-9.09136674D-06 EMin= 6.09583410D-03
 Quartic linear search produced a step of -0.86314.
 Iteration  1 RMS(Cart)=  0.03339370 RMS(Int)=  0.00193822
 Iteration  2 RMS(Cart)=  0.00185416 RMS(Int)=  0.00000126
 Iteration  3 RMS(Cart)=  0.00000206 RMS(Int)=  0.00000000
 Iteration  4 RMS(Cart)=  0.00000000 RMS(Int)=  0.00000000
 ClnCor:  largest displacement from symmetrization is 1.05D-09 for atom    12.
 Variable       Old X    -DE/DX   Delta X   Delta X   Delta X     New X
                                 (Linear)    (Quad)   (Total)
    R1        2.53764   0.00372   0.00522   0.00123   0.00645   2.54409
    R2        2.67250   0.00030  -0.00194   0.00103  -0.00092   2.67158
    R3        2.04377   0.00276   0.00692   0.00086   0.00778   2.05155
    R4        2.04202   0.00256   0.00639   0.00085   0.00724   2.04926
    R5        2.72635   0.00223   0.00334   0.00138   0.00472   2.73108
    R6        2.26887   0.00699   0.00501   0.00098   0.00598   2.27485
    R7        2.00413   0.00062   0.00102   0.00022   0.00124   2.00538
    R8        2.51891   0.00445   0.00478   0.00168   0.00646   2.52537
    R9        2.04348   0.00277   0.00695   0.00095   0.00790   2.05138
   R10        2.03870   0.00267   0.00645   0.00097   0.00742   2.04612
   R11        2.03400   0.00297   0.00670   0.00124   0.00794   2.04194
    A1        2.17101  -0.00025   0.00202   0.00002   0.00204   2.17304
    A2        2.08269  -0.00015  -0.00327   0.00071  -0.00256   2.08013
    A3        2.02949   0.00040   0.00125  -0.00073   0.00052   2.03001
    A4        2.07824  -0.00011  -0.00026  -0.00002  -0.00028   2.07795
    A5        2.15561   0.00073   0.00249   0.00070   0.00319   2.15880
    A6        2.04934  -0.00062  -0.00223  -0.00068  -0.00291   2.04643
    A7        2.16306   0.00072   0.00265   0.00057   0.00321   2.16628
    A8        2.03950  -0.00088  -0.00488  -0.00044  -0.00532   2.03419
    A9        2.08062   0.00016   0.00223  -0.00012   0.00211   2.08272
   A10        2.11966   0.00002   0.00017  -0.00003   0.00013   2.11979
   A11        2.11947   0.00040   0.00329   0.00000   0.00329   2.12275
   A12        2.04406  -0.00042  -0.00345   0.00003  -0.00342   2.04064
   A13        3.16659   0.00292   0.00591  -0.00356   0.00235   3.16894
   A14        3.01877   0.00680   0.11767  -0.00260   0.11507   3.13384
   A15        3.14159   0.00000   0.00000   0.00000   0.00000   3.14159
   A16        3.14159   0.00000   0.00000  -0.00000   0.00000   3.14159
    D1       -0.00000  -0.00000   0.00000  -0.00000   0.00000   0.00000
    D2        3.14159   0.00000   0.00000   0.00000   0.00000   3.14159
    D3        3.14159  -0.00000   0.00000  -0.00000   0.00000   3.14159
    D4        0.00000  -0.00000   0.00000  -0.00000  -0.00000   0.00000
    D5        3.14159  -0.00000   0.00000   0.00000   0.00000   3.14159
    D6       -0.00000   0.00000   0.00000   0.00000   0.00000   0.00000
    D7        0.00000   0.00000   0.00000   0.00000  -0.00000   0.00000
    D8        3.14159   0.00000   0.00000   0.00000   0.00000   3.14159
    D9        0.00000  -0.00000   0.00000   0.00000   0.00000   0.00000
   D10        3.14159   0.00000   0.00000   0.00000   0.00000   3.14159
   D11        3.14159  -0.00000   0.00000  -0.00000   0.00000   3.14159
   D12        0.00000  -0.00000   0.00000  -0.00000  -0.00000   0.00000
         Item               Value     Threshold  Converged?
 Maximum Force            0.006990     0.000450     NO 
 RMS     Force            0.002168     0.000300     NO 
 Maximum Displacement     0.143223     0.001800     NO 
 RMS     Displacement     0.033377     0.001200     NO 
 Predicted change in Energy=-1.967286D-05
 GradGradGradGradGradGradGradGradGradGradGradGradGradGradGradGradGradGrad

                          Input orientation:                          
 ---------------------------------------------------------------------
 Center     Atomic      Atomic             Coordinates (Angstroms)
 Number     Number       Type             X           Y           Z
 ---------------------------------------------------------------------
      1          6           0        0.621657   -0.565265   -0.000000
      2          6           0       -0.490385    0.193563    0.000000
      3          6           0        1.939853   -0.054363   -0.000000
      4          6           0        3.073773    0.349817   -0.000000
      5          1           0        4.070577    0.713860   -0.000000
      6          1           0        0.524662   -1.646558   -0.000000
      7          1           0       -0.391148    1.273436    0.000000
[...]
      4        6          -0.000005666    0.000031117    0.000000000
      5        1           0.000003415   -0.000006294   -0.000000000
      6        1           0.000016635    0.000004562   -0.000000000
      7        1          -0.000001270    0.000000290    0.000000000
      8        6          -0.000002925    0.000001946    0.000000000
      9        6          -0.000010319    0.000012741    0.000000000
     10        1          -0.000002219   -0.000000608    0.000000000
     11        1           0.000006643   -0.000001937   -0.000000000
     12        1           0.000002213   -0.000007769   -0.000000000
 -------------------------------------------------------------------
 Cartesian Forces:  Max     0.000047882 RMS     0.000013111
 FormGI is forming the generalized inverse of G from B-inverse, IUseBI=4.

 GradGradGradGradGradGradGradGradGradGradGradGradGradGradGradGradGradGrad
 Berny optimization.
 Internal  Forces:  Max     0.000042459 RMS     0.000009688
 Search for a local minimum.
 Step number   1 out of a maximum of    2
 All quantities printed in internal units (Hartrees-Bohrs-Radians)
 Second derivative matrix not updated -- analytic derivatives used.
 ITU=  0
     Eigenvalues ---    0.00823   0.01425   0.02355   0.02435   0.02800
     Eigenvalues ---    0.03060   0.03973   0.04427   0.04557   0.05573
     Eigenvalues ---    0.09212   0.10476   0.10983   0.11344   0.12124
     Eigenvalues ---    0.13186   0.14878   0.16173   0.18890   0.34375
     Eigenvalues ---    0.34869   0.35015   0.35389   0.35730   0.36222
     Eigenvalues ---    0.39171   0.41252   0.57806   0.60118   1.06498
 Angle between quadratic step and forces=  30.79 degrees.
 Linear search not attempted -- first point.
 Iteration  1 RMS(Cart)=  0.00037707 RMS(Int)=  0.00000008
 Iteration  2 RMS(Cart)=  0.00000011 RMS(Int)=  0.00000000
 ClnCor:  largest displacement from symmetrization is 2.40D-14 for atom     9.
 Variable       Old X    -DE/DX   Delta X   Delta X   Delta X     New X
                                 (Linear)    (Quad)   (Total)
    R1        2.54394  -0.00000   0.00000  -0.00002  -0.00002   2.54393
    R2        2.67178   0.00002   0.00000   0.00008   0.00008   2.67186
    R3        2.05152  -0.00001   0.00000  -0.00002  -0.00002   2.05150
    R4        2.04926   0.00000   0.00000   0.00000   0.00000   2.04926
    R5        2.73106   0.00000   0.00000   0.00001   0.00001   2.73107
    R6        2.27474   0.00001   0.00000   0.00000   0.00000   2.27474
    R7        2.00533   0.00000   0.00000   0.00000   0.00000   2.00533
    R8        2.52537   0.00000   0.00000   0.00001   0.00001   2.52538
    R9        2.05137   0.00000   0.00000   0.00000   0.00000   2.05137
   R10        2.04611  -0.00000   0.00000  -0.00001  -0.00001   2.04610
   R11        2.04194   0.00000   0.00000   0.00000   0.00000   2.04194
    A1        2.17265  -0.00001   0.00000  -0.00010  -0.00010   2.17254
    A2        2.08054   0.00002   0.00000   0.00018   0.00018   2.08071
    A3        2.03000  -0.00001   0.00000  -0.00007  -0.00007   2.02993
    A4        2.07799  -0.00000   0.00000  -0.00004  -0.00004   2.07796
    A5        2.15877   0.00001   0.00000   0.00008   0.00008   2.15885
    A6        2.04643  -0.00001   0.00000  -0.00004  -0.00004   2.04638
    A7        2.16614  -0.00000   0.00000  -0.00002  -0.00002   2.16612
    A8        2.03436   0.00000   0.00000   0.00003   0.00003   2.03439
    A9        2.08269  -0.00000   0.00000  -0.00001  -0.00001   2.08268
   A10        2.11978  -0.00000   0.00000  -0.00003  -0.00003   2.11974
   A11        2.12250  -0.00001   0.00000  -0.00006  -0.00006   2.12244
   A12        2.04090   0.00001   0.00000   0.00010   0.00010   2.04100
   A13        3.17070  -0.00004   0.00000  -0.00063  -0.00063   3.17006
   A14        3.13319   0.00001   0.00000   0.00049   0.00049   3.13368
   A15        3.14159  -0.00000   0.00000  -0.00000   0.00000   3.14159
   A16        3.14159  -0.00000   0.00000  -0.00000   0.00000   3.14159
    D1       -0.00000   0.00000   0.00000   0.00000   0.00000   0.00000
    D2        3.14159   0.00000   0.00000   0.00000   0.00000   3.14159
    D3        3.14159  -0.00000   0.00000  -0.00000   0.00000   3.14159
    D4       -0.00000   0.00000   0.00000  -0.00000   0.00000   0.00000
    D5        3.14159  -0.00000   0.00000  -0.00000   0.00000   3.14159
    D6        0.00000  -0.00000   0.00000  -0.00000  -0.00000   0.00000
    D7       -0.00000   0.00000   0.00000  -0.00000   0.00000   0.00000
    D8        3.14159  -0.00000   0.00000  -0.00000   0.00000   3.14159
    D9        0.00000   0.00000   0.00000   0.00000  -0.00000   0.00000
   D10        3.14159   0.00000   0.00000  -0.00000   0.00000   3.14159
   D11        3.14159  -0.00000   0.00000   0.00000   0.00000   3.14159
   D12        0.00000  -0.00000   0.00000  -0.00000   0.00000   0.00000
         Item               Value     Threshold  Converged?
 Maximum Force            0.000042     0.000450     YES
 RMS     Force            0.000010     0.000300     YES
 Maximum Displacement     0.001086     0.001800     YES
 RMS     Displacement     0.000377     0.001200     YES
 Predicted change in Energy=-2.205315D-08
 Optimization completed.
    -- Stationary point found.
                           ----------------------------
                           !   Optimized Parameters   !
                           ! (Angstroms and Degrees)  !
 --------------------------                            --------------------------
 ! Name  Definition              Value          Derivative Info.                !
 --------------------------------------------------------------------------------
 ! R1    R(1,2)                  1.3462         -DE/DX =    0.0                 !
 ! R2    R(1,3)                  1.4138         -DE/DX =    0.0                 !
 ! R3    R(1,6)                  1.0856         -DE/DX =    0.0                 !
 ! R4    R(2,7)                  1.0844         -DE/DX =    0.0                 !
 ! R5    R(2,8)                  1.4452         -DE/DX =    0.0                 !
 ! R6    R(3,4)                  1.2037         -DE/DX =    0.0                 !
 ! R7    R(4,5)                  1.0612         -DE/DX =    0.0                 !
 ! R8    R(8,9)                  1.3364         -DE/DX =    0.0                 !
 ! R9    R(8,10)                 1.0855         -DE/DX =    0.0                 !
 ! R10   R(9,11)                 1.0828         -DE/DX =    0.0                 !
 ! R11   R(9,12)                 1.0805         -DE/DX =    0.0                 !
 ! A1    A(2,1,3)              124.4836         -DE/DX =    0.0                 !
 ! A2    A(2,1,6)              119.2059         -DE/DX =    0.0                 !
 ! A3    A(3,1,6)              116.3104         -DE/DX =    0.0                 !
 ! A4    A(1,2,7)              119.0603         -DE/DX =    0.0                 !
 ! A5    A(1,2,8)              123.6881         -DE/DX =    0.0                 !
 ! A6    A(7,2,8)              117.2516         -DE/DX =    0.0                 !
 ! A7    A(2,8,9)              124.1109         -DE/DX =    0.0                 !
 ! A8    A(2,8,10)             116.56           -DE/DX =    0.0                 !
 ! A9    A(9,8,10)             119.3292         -DE/DX =    0.0                 !
 ! A10   A(8,9,11)             121.4544         -DE/DX =    0.0                 !
 ! A11   A(8,9,12)             121.6104         -DE/DX =    0.0                 !
 ! A12   A(11,9,12)            116.9352         -DE/DX =    0.0                 !
 ! A13   L(1,3,4,7,-1)         181.6676         -DE/DX =    0.0                 !
 ! A14   L(3,4,5,7,-1)         179.5183         -DE/DX =    0.0                 !
 ! A15   L(1,3,4,7,-2)         180.0            -DE/DX =    0.0                 !
 ! A16   L(3,4,5,7,-2)         180.0            -DE/DX =    0.0                 !
 ! D1    D(3,1,2,7)              0.0            -DE/DX =    0.0                 !
 ! D2    D(3,1,2,8)            180.0            -DE/DX =    0.0                 !
 ! D3    D(6,1,2,7)            180.0            -DE/DX =    0.0                 !
 ! D4    D(6,1,2,8)              0.0            -DE/DX =    0.0                 !
 ! D5    D(1,2,8,9)            180.0            -DE/DX =    0.0                 !
 ! D6    D(1,2,8,10)             0.0            -DE/DX =    0.0                 !
 ! D7    D(7,2,8,9)              0.0            -DE/DX =    0.0                 !
 ! D8    D(7,2,8,10)           180.0            -DE/DX =    0.0                 !
 ! D9    D(2,8,9,11)             0.0            -DE/DX =    0.0                 !
 ! D10   D(2,8,9,12)           180.0            -DE/DX =    0.0                 !
 ! D11   D(10,8,9,11)          180.0            -DE/DX =    0.0                 !
 ! D12   D(10,8,9,12)            0.0            -DE/DX =    0.0                 !
 --------------------------------------------------------------------------------
 GradGradGradGradGradGradGradGradGradGradGradGradGradGradGradGradGradGrad


 ----------------------------------------------------------------------

 Electric dipole moment (input orientation):
 (Debye = 10**-18 statcoulomb cm , SI units = C m)
                  (au)            (Debye)         (10**-30 SI)
   Tot        0.255199D+00      0.648652D+00      0.216367D+01
   x         -0.254985D+00     -0.648108D+00     -0.216186D+01
   y         -0.104462D-01     -0.265516D-01     -0.885667D-01
   z          0.000000D+00      0.000000D+00      0.000000D+00

 Dipole polarizability, Alpha (input orientation).
 (esu units = cm**3 , SI units = C**2 m**2 J**-1)
 Alpha(0;0):
               (au)            (10**-24 esu)      (10**-40 SI)
   iso        0.845623D+02      0.125308D+02      0.139424D+02
   aniso      0.107574D+03      0.159408D+02      0.177365D+02
   xx         0.155321D+03      0.230161D+02      0.256089D+02
   yx        -0.502416D+01     -0.744504D+00     -0.828373D+00
   yy         0.579628D+02      0.858920D+01      0.955677D+01
   zx         0.000000D+00      0.000000D+00      0.000000D+00
   zy         0.000000D+00      0.000000D+00      0.000000D+00
   zz         0.404034D+02      0.598717D+01      0.666163D+01

 ----------------------------------------------------------------------

 Dipole orientation:
     6          0.04563090         -1.11382040         -1.12987186
     6         -0.01652516          0.40336820          0.91118857
     6          0.01026203         -0.25048940         -3.65807698
     6         -0.01727402          0.42164752         -5.83107255
     1         -0.04220713          1.03024837         -7.74165394
     1          0.12889960         -3.14635474         -0.86416387
     1         -0.09967423          2.43298248          0.64060888
     6          0.02109358         -0.51488055          3.48297173
     6         -0.03999516          0.97625567          5.52019885
     1          0.10445618         -2.54970679          3.72926685
     1         -0.12345971          3.01357051          5.35003199
     1         -0.00846155          0.20654093          7.41124602

 Electric dipole moment (dipole orientation):
 (Debye = 10**-18 statcoulomb cm , SI units = C m)
                  (au)            (Debye)         (10**-30 SI)
   Tot        0.255199D+00      0.648652D+00      0.216367D+01
   x          0.000000D+00      0.000000D+00      0.000000D+00
   y          0.000000D+00      0.000000D+00      0.000000D+00
   z          0.255199D+00      0.648652D+00      0.216367D+01

 Dipole polarizability, Alpha (dipole orientation).
 (esu units = cm**3 , SI units = C**2 m**2 J**-1)
 Alpha(0;0):
               (au)            (10**-24 esu)      (10**-40 SI)
   iso        0.845623D+02      0.125308D+02      0.139424D+02
   aniso      0.107574D+03      0.159408D+02      0.177365D+02
   xx         0.404338D+02      0.599167D+01      0.666664D+01
   yx        -0.741644D+00     -0.109900D+00     -0.122281D+00
   yy         0.585065D+02      0.866977D+01      0.964642D+01
   zx        -0.367960D+00     -0.545260D-01     -0.606684D-01
   zy         0.898166D+01      0.133094D+01      0.148088D+01
   zz         0.154746D+03      0.229311D+02      0.255142D+02

 ----------------------------------------------------------------------
 1\1\GINC-GAMBA\Freq\RB3LYP\Gen\C6H6\IRIKURA\20-Jun-2022\0\\#N Geom=All
 Check Guess=TCheck SCRF=Check GenChk RB3LYP/ChkBas Freq\\butadienylace
 tylene, B3LYP/pcseg-2\\0,1\C,0.6215481516,-0.5649340872,0.\C,-0.490520
 8341,0.1937158945,0.\C,1.9395789779,-0.0533152435,0.\C,3.0739434943,0.
 349433809,0.\H,4.0709382117,0.7128768415,0.\H,0.5251232836,-1.64626046
 93,0.\H,-0.3914568286,1.2736025772,0.\C,-1.8304022541,-0.3479081185,0.
 \C,-2.9398796455,0.397038574,0.\H,-1.9165132011,-1.4300268196,0.\H,-2.
 8940742294,1.4788251635,0.\H,-3.9230531262,-0.0512391217,0.\\Version=E
 S64L-G16RevB.01\State=1-A'\HF=-232.2390665\RMSD=2.344e-09\RMSF=1.311e-
 05\ZeroPoint=0.0945243\Thermal=0.1010467\Dipole=-0.2549853,-0.0104462,
 0.\DipoleDeriv=0.0469228,0.0286196,0.,0.1707947,0.1778509,0.,0.,0.,-0.
 1190955,0.133838,-0.0372903,0.,-0.0452431,0.0618,0.,0.,0.,-0.087463,0.
 2724618,0.1007566,0.,0.0679259,-0.1280593,0.,0.,0.,-0.051794,-0.689129
 4,-0.0163466,0.,-0.1684763,-0.2503377,0.,0.,0.,-0.261009,0.2557598,-0.
 0092495,0.,0.0144703,0.2215985,0.,0.,0.,0.229141,0.0067623,-0.0583694,
 0.,-0.0510667,-0.0491333,0.,0.,0.,0.1524396,0.0211477,-0.0034023,0.,-0
 .0348896,-0.0664388,0.,0.,0.,0.1348179,0.2088338,-0.0207179,0.,0.13189
 84,0.1014126,0.,0.,0.,-0.1413232,-0.2625949,0.0806185,0.,0.01622,0.084
 122,0.,0.,0.,-0.2935261,0.0184246,0.0191362,0.,-0.0437902,-0.0979781,0
 .,0.,0.,0.13944,0.0448428,-0.0533716,0.,0.0038842,-0.0819866,0.,0.,0.,
 0.1506488,-0.0572692,-0.0303834,0.,-0.0617276,0.0271499,0.,0.,0.,0.147
 7236\Polar=155.3205501,-5.0241642,57.9627676,0.,0.,40.4034359\Quadrupo
 le=3.0793076,0.9214964,-4.000804,1.0960474,0.,0.\PG=CS [SG(C6H6)]\NIma
 g=0\\0.72497331,-0.07275505,0.66867145,0.,0.,0.12128987,-0.33042470,0.
 17479678,0.,0.70439149,0.17448084,-0.24178871,0.,-0.08932589,0.7132193
 2,0.,0.,-0.05534023,0.,0.,0.13399637,-0.26270629,-0.09121802,0.,-0.066
 01063,-0.00190155,0.,1.24971593,-0.07479187,-0.11707102,0.,0.00435605,
 0.01697954,0.,0.41350506,0.25305851,0.,0.,-0.05313107,0.,0.,0.00436651
 ,0.,0.,0.07341995,-0.03112099,-0.00416184,0.,0.01318826,-0.00883201,0.
 ,-0.92559573,-0.31891674,0.,1.32159828,-0.01442014,0.00545441,0.,0.004
 96614,-0.00382752,0.,-0.31972132,-0.14716137,0.,0.45810822,0.21286753,
 0.,0.,0.00565410,0.,0.,0.00151387,0.,0.,-0.03304225,0.,0.,0.04453402,0
 .00167357,-0.00191584,0.,0.00016080,0.00037971,0.,0.00357646,0.0006175
 4,0.,-0.37112502,-0.12705403,0.,0.36588457,-0.00168182,0.00572817,0.,-
 0.00096809,-0.00051296,0.,0.00182163,0.00211595,0.,-0.12806380,-0.0685
 2958,0.,0.12804279,0.06105942,0.,0.,0.00488023,0.,0.,-0.00002112,0.,0.
 ,0.00172576,0.,0.,-0.01894084,0.,0.,0.01253528,-0.05634652,-0.02612419
 ,0.,0.00600921,0.02751577,0.,-0.00586941,-0.03131638,0.,-0.00220915,0.
 00032143,0.,-0.00029163,0.00089960,0.,0.06149571,-0.02009819,-0.320028
 94,0.,-0.00103899,-0.01903993,0.,-0.00709326,-0.00890246,0.,0.00125659
 ,0.00046851,0.,-0.00005982,0.00012552,0.,0.02576043,0.34529772,0.,0.,-
 0.03697749,0.,0.,0.00725147,0.,0.,0.00275252,0.,0.,0.00077091,0.,0.,0.
 00005952,0.,0.,0.02270687,0.00451991,0.02858411,0.,-0.06037772,-0.0271
 7256,0.,0.00157475,0.00065746,0.,-0.00025694,-0.00037211,0.,-0.0000291
 8,0.00002623,0.,-0.00364990,0.00253411,0.,0.06170385,-0.00302796,-0.01
 619761,0.,-0.02413859,-0.32608757,0.,-0.00114649,0.00107046,0.,0.00061
 202,0.00037102,0.,0.00004036,-0.00005881,0.,0.00241789,-0.00024597,0.,
 0.02618730,0.34906367,0.,0.,0.00695124,0.,0.,-0.04194156,0.,0.,-0.0067
 9943,0.,0.,0.00018966,0.,0.,0.00035661,0.,0.,0.00963684,0.,0.,0.026118
 15,-0.05859349,0.00217437,0.,-0.21049062,-0.07069466,0.,0.01072929,0.0
 0629505,0.,-0.00547729,-0.00218895,0.,-0.00001611,-0.00004729,0.,0.000
 97576,-0.00237989,0.,-0.00049847,0.00030180,0.,0.71566217,0.02014764,0
 .01199697,0.,-0.07292233,-0.14021306,0.,0.00296088,-0.00251794,0.,0.00
 184766,0.00116967,0.,-0.00016323,0.00011841,0.,0.00185529,0.00130790,0
 .,-0.02946380,-0.01047476,0.,-0.10754977,0.71466961,0.,0.,0.00566435,0
 .,0.,-0.06386654,0.,0.,0.01221196,0.,0.,-0.00069431,0.,0.,-0.00068433,
 0.,0.,-0.00708126,0.,0.,0.00358434,0.,0.,0.13441032,0.00734920,-0.0072
 2642,0.,-0.05548778,0.02001114,0.,-0.00529093,-0.00101691,0.,0.0010867
 5,0.00036239,0.,0.00012874,-0.00000616,0.,0.00004256,0.00022723,0.,0.0
 0159881,0.00093728,0.,-0.37796156,0.19310866,0.,0.77208137,-0.00983989
 ,0.00081602,0.,0.00417131,0.01391990,0.,0.00262675,0.00222616,0.,-0.00
 191978,-0.00086785,0.,0.00008285,-0.00002065,0.,-0.00023847,0.00036771
 ,0.,-0.00087424,0.00133234,0.,0.17982036,-0.24813737,0.,-0.07697674,0.
 68997203,0.,0.,0.00252255,0.,0.,0.00646132,0.,0.,-0.00001252,0.,0.,-0.
 00007817,0.,0.,-0.00002961,0.,0.,-0.00000875,0.,0.,-0.00148677,0.,0.,-
 0.05270700,0.,0.,0.10845923,0.00143233,-0.00120514,0.,-0.00118274,-0.0
 3022070,0.,0.00014377,0.00048493,0.,0.00005529,0.00006994,0.,0.0000239
 6,-0.00002201,0.,-0.00020396,0.00106976,0.,-0.00456392,-0.00138950,0.,
 -0.05972549,-0.02407358,0.,0.00448786,0.02943626,0.,0.06198749,0.00116
 967,0.00120970,0.,0.00013882,-0.01183892,0.,-0.00006747,0.00040151,0.,
 -0.00007139,-0.00003155,0.,0.00003640,-0.00002500,0.,-0.00079327,0.000
 59721,0.,-0.00161903,0.00042967,0.,-0.02275548,-0.32191545,0.,-0.00205
 152,-0.01639870,0.,0.02336980,0.34625312,0.,0.,-0.00140629,0.,0.,0.003
 34068,0.,0.,-0.00029199,0.,0.,0.00004835,0.,0.,0.00002076,0.,0.,0.0002
 7409,0.,0.,0.00327230,0.,0.,-0.04204029,0.,0.,0.00620496,0.,0.,0.02699
 167,-0.00002599,-0.00012811,0.,0.00167077,0.00169879,0.,-0.00005968,-0
 .00013970,0.,0.00004096,0.00000358,0.,-0.00001035,0.00000959,0.,0.0000
 4653,-0.00022545,0.,-0.00018888,-0.00073062,0.,0.00526328,0.02791896,0
 .,-0.05934270,-0.01824985,0.,-0.00354834,0.00248051,0.,0.05402565,0.00
 029481,0.00036009,0.,-0.00216263,0.00127315,0.,-0.00001665,-0.00004129
 ,0.,0.00007570,0.00003740,0.,0.,-0.00000576,0.,-0.00022124,0.00005691,
 0.,0.00108099,0.00049353,0.,-0.00215215,-0.01677837,0.,-0.01411075,-0.
 33300835,0.,0.00278150,0.00001180,0.,0.01271995,0.35530403,0.,0.,0.000
 10696,0.,0.,-0.00778841,0.,0.,0.00023094,0.,0.,-0.00003206,0.,0.,-0.00
 000515,0.,0.,0.00038401,0.,0.,0.00033765,0.,0.,0.00578586,0.,0.,-0.035
 26281,0.,0.,0.01076345,0.,0.,0.02255717,-0.00073034,-0.00082062,0.,-0.
 00144634,0.00406114,0.,-0.00020753,0.00026549,0.,-0.00018443,-0.000075
 15,0.,0.00002418,-0.00001066,0.,0.00000080,0.00004748,0.,0.00016768,-0
 .00006350,0.,-0.01986746,-0.01366637,0.,-0.28869233,-0.10803855,0.,0.0
 0109375,0.00016296,0.,0.00212874,0.00171046,0.,0.30771327,0.00052197,0
 .00084948,0.,0.00212743,-0.00208324,0.,0.00025045,-0.00015806,0.,0.000
 06538,0.00004932,0.,-0.00000674,0.00000530,0.,-0.00007687,-0.00000418,
 0.,0.00043154,0.00030403,0.,0.01917662,0.01077439,0.,-0.11325818,-0.11
 020125,0.,-0.00030126,0.00130661,0.,-0.02535764,-0.00770313,0.,0.11642
 731,0.10686072,0.,0.,-0.00021422,0.,0.,0.01202764,0.,0.,-0.00143041,0.
 ,0.,0.00007672,0.,0.,0.00010290,0.,0.,0.00023126,0.,0.,-0.00021903,0.,
 0.,0.00541690,0.,0.,-0.03406242,0.,0.,-0.00717769,0.,0.,0.00292239,0.,
 0.,0.02232595\\0.00004788,-0.00000054,0.,-0.00001200,0.00000086,0.,-0.
 00002938,0.00003373,0.,0.00000567,-0.00003112,0.,-0.00000342,0.0000062
 9,0.,-0.00001664,-0.00000456,0.,0.00000127,-0.00000029,0.,0.00000293,-
 0.00000195,0.,0.00001032,-0.00001274,0.,0.00000222,0.00000061,0.,-0.00
 000664,0.00000194,0.,-0.00000221,0.00000777,0.\\\@


 THE ONLY DIFFERENCE BETWEEN ECCENTRICS AND JOGGERS
 IS THAT JOGGERS WEAR SWEATBANDS WHEN THEY RUN IN THE RAIN.
 Job cpu time:       0 days  0 hours 27 minutes 25.2 seconds.
 Elapsed time:       0 days  0 hours  2 minutes 17.5 seconds.
 File lengths (MBytes):  RWF=     68 Int=      0 D2E=      0 Chk=      7 Scr=      1
 Normal termination of Gaussian 16 at Mon Jun 20 10:21:40 2022.
