 Entering Gaussian System, Link 0=g16
 AtFile(1): pcseg2.gbs
            -H     0
            S   4   1.00
                  0.754732D+02           0.427821D-02
                  0.113575D+02           0.328672D-01
                  0.260081D+01           0.159578D+00
                  0.735503D+00           0.500000D+00
            S   1   1.00
                  0.231761D+00           1.0000000
            S   1   1.00
                  0.741675D-01           1.0000000
            P   1   1.00
                  0.160000D+01           1.0000000
            P   1   1.00
                  0.450000D+00           1.0000000
            D   1   1.00
                  0.125000D+01           1.0000000
            ****
            -C     0
            S   7   1.00
                  0.731999D+04           0.695369D-03
                  0.109818D+04           0.537138D-02
                  0.250014D+03           0.274734D-01
                  0.707586D+02           0.105078D+00
                  0.228595D+02           0.291262D+00
                  0.803936D+01           0.500000D+00
                  0.289309D+01           0.362224D+00
            S   2   1.00
                  0.521640D+01          -0.957844D-01
                  0.556124D+00           0.500000D+00
            S   1   1.00
                  0.228813D+00           1.0000000
            S   1   1.00
                  0.936338D-01           1.0000000
            P   4   1.00
                  0.339855D+02           0.818395D-02
                  0.772957D+01           0.586921D-01
                  0.224954D+01           0.222514D+00
                  0.767681D+00           0.500000D+00
            P   1   1.00
                  0.263283D+00           1.0000000
            P   1   1.00
                  0.848744D-01           1.0000000
            D   1   1.00
                  0.140000D+01           1.0000000
            D   1   1.00
                  0.450000D+00           1.0000000
            F   1   1.00
                  0.950000D+00           1.0000000
            ****
            -O     0
            S   7   1.00
                  0.135887D+05           0.665492D-03
                  0.203847D+04           0.514222D-02
                  0.464041D+03           0.263472D-01
                  0.131339D+03           0.101500D+00
                  0.425340D+02           0.285877D+00
                  0.150429D+02           0.500000D+00
                  0.546616D+01           0.368211D+00
            S   2   1.00
                  0.100915D+02          -0.100084D+00
                  0.110429D+01           0.500000D+00
            S   1   1.00
                  0.448082D+00           1.0000000
            S   1   1.00
                  0.175325D+00           1.0000000
            P   4   1.00
                  0.608220D+02           0.908253D-02
                  0.140332D+02           0.645878D-01
                  0.418244D+01           0.241502D+00
                  0.142490D+01           0.500000D+00
            P   1   1.00
                  0.478741D+00           1.0000000
            P   1   1.00
                  0.146257D+00           1.0000000
            D   1   1.00
                  0.220000D+01           1.0000000
            D   1   1.00
                  0.650000D+00           1.0000000
            F   1   1.00
                  0.110000D+01           1.0000000
            ****
            -N     0
            S   7   1.00
                  0.101643D+05           0.682757D-03
                  0.152481D+04           0.527488D-02
                  0.347119D+03           0.270037D-01
                  0.982389D+02           0.103673D+00
                  0.317799D+02           0.289575D+00
                  0.112240D+02           0.500000D+00
                  0.406611D+01           0.364621D+00
            S   2   1.00
                  0.747898D+01          -0.975681D-01
                  0.805040D+00           0.500000D+00
            S   1   1.00
                  0.324626D+00           1.0000000
            S   1   1.00
                  0.128132D+00           1.0000000
            P   4   1.00
                  0.482704D+02           0.829547D-02
                  0.110815D+02           0.596223D-01
                  0.326643D+01           0.227889D+00
                  0.111680D+01           0.500000D+00
            P   1   1.00
                  0.382049D+00           1.0000000
            P   1   1.00
                  0.121222D+00           1.0000000
            D   1   1.00
                  0.180000D+01           1.0000000
            D   1   1.00
                  0.550000D+00           1.0000000
            F   1   1.00
                  0.102000D+01           1.0000000
            ****
            -F     0
            S   7   1.00
                  0.174507D+05           0.655972D-03
                  0.261768D+04           0.506944D-02
                  0.595857D+03           0.259899D-01
                  0.168651D+03           0.100353D+00
                  0.546654D+02           0.284095D+00
                  0.193717D+02           0.500000D+00
                  0.706202D+01           0.370721D+00
            S   2   1.00
                  0.131197D+02          -0.101997D+00
                  0.145046D+01           0.500000D+00
            S   1   1.00
                  0.588255D+00           1.0000000
            S   1   1.00
                  0.227960D+00           1.0000000
            P   4   1.00
                  0.779407D+02           0.931135D-02
                  0.180425D+02           0.663964D-01
                  0.542342D+01           0.246386D+00
                  0.184876D+01           0.500000D+00
            P   1   1.00
                  0.617455D+00           1.0000000
            P   1   1.00
                  0.185496D+00           1.0000000
            D   1   1.00
                  0.280000D+01           1.0000000
            D   1   1.00
                  0.800000D+00           1.0000000
            F   1   1.00
                  0.120000D+01           1.0000000
            ****
            -Cl     0
            S   8   1.00
                  0.154272D+06           0.222473D-03
                  0.231232D+05           0.172590D-02
                  0.526257D+04           0.899286D-02
                  0.148995D+04           0.367724D-01
                  0.485417D+03           0.121446D+00
                  0.174634D+03           0.304148D+00
                  0.672393D+02           0.500000D+00
                  0.265780D+02           0.360252D+00
            S   3   1.00
                  0.131826D+03          -0.531330D-01
                  0.400703D+02          -0.233346D+00
                  0.789448D+01           0.500000D+00
            S   2   1.00
                  0.427711D+01           0.500000D+00
                  0.196233D+01           0.370517D+00
            S   1   1.00
                  0.520793D+00           1.0000000
            S   1   1.00
                  0.181633D+00           1.0000000
            P   7   1.00
                  0.124440D+04           0.988206D-03
                  0.295109D+03           0.829674D-02
                  0.947224D+02           0.430906D-01
                  0.352588D+02           0.148443D+00
                  0.144211D+02           0.344744D+00
                  0.610371D+01           0.500000D+00
                  0.258886D+01           0.348278D+00
            P   2   1.00
                  0.109447D+02          -0.196768D-01
                  0.104413D+01           0.500000D+00
            P   1   1.00
                  0.376184D+00           1.0000000
            P   1   1.00
                  0.120613D+00           1.0000000
            D   1   1.00
                  0.231000D+01           1.0000000
            D   1   1.00
                  0.520000D+00           1.0000000
            F   1   1.00
                  0.720000D+00           1.0000000
            ****
            -S     0
            S   8   1.00
                  0.134700D+06           0.226231D-03
                  0.201904D+05           0.175488D-02
                  0.459528D+04           0.914190D-02
                  0.130109D+04           0.373551D-01
                  0.423902D+03           0.123121D+00
                  0.152485D+03           0.306801D+00
                  0.586925D+02           0.500000D+00
                  0.231461D+02           0.354358D+00
            S   3   1.00
                  0.116327D+03          -0.491772D-01
                  0.352841D+02          -0.215962D+00
                  0.677831D+01           0.500000D+00
            S   2   1.00
                  0.360404D+01           0.500000D+00
                  0.164871D+01           0.366278D+00
            S   1   1.00
                  0.421821D+00           1.0000000
            S   1   1.00
                  0.147554D+00           1.0000000
            P   7   1.00
                  0.104863D+04           0.105273D-02
                  0.248717D+03           0.879338D-02
                  0.797887D+02           0.453358D-01
                  0.296023D+02           0.154476D+00
                  0.120627D+02           0.352366D+00
                  0.507628D+01           0.500000D+00
                  0.213375D+01           0.346429D+00
            P   2   1.00
                  0.928958D+01          -0.185932D-01
                  0.837819D+00           0.500000D+00
            P   1   1.00
                  0.301495D+00           1.0000000
            P   1   1.00
                  0.974740D-01           1.0000000
            D   1   1.00
                  0.210000D+01           1.0000000
            D   1   1.00
                  0.480000D+00           1.0000000
            F   1   1.00
                  0.660000D+00           1.0000000
            ****
            -Br     0
            S    10   1.00
                  0.233625D+07           0.532336D-04
                  0.349961D+06           0.413715D-03
                  0.796444D+05           0.217123D-02
                  0.225555D+05           0.910109D-02
                  0.735546D+04           0.323789D-01
                  0.265352D+04           0.988755D-01
                  0.103517D+04           0.248138D+00
                  0.422205D+03           0.474328D+00
                  0.180035D+03           0.500000D+00
                  0.793308D+02           0.187769D+00
            S    4   1.00
                  0.620834D+03          -0.226511D-01
                  0.190829D+03          -0.109497D+00
                  0.312505D+02           0.500000D+00
                  0.135270D+02           0.492812D+00
            S    2   1.00
                  0.216097D+02          -0.165418D+00
                  0.372566D+01           0.500000D+00
            S    1   1.00
                  0.169770D+01           1.0000000
            S    1   1.00
                  0.489332D+00           1.0000000
            S    1   1.00
                  0.175712D+00           1.0000000
            P    8   1.00
                  0.960829D+04           0.478974D-03
                  0.227618D+04           0.417853D-02
                  0.736723D+03           0.229315D-01
                  0.281579D+03           0.892653D-01
                  0.118395D+03           0.255288D+00
                  0.527481D+02           0.479074D+00
                  0.245098D+02           0.500000D+00
                  0.112009D+02           0.200944D+00
            P    4   1.00
                  0.587849D+02          -0.189674D-01
                  0.918962D+01           0.264104D+00
                  0.413895D+01           0.500000D+00
                  0.184225D+01           0.319316D+00
            P    1   1.00
                  0.713862D+00           1.0000000
            P    1   1.00
                  0.274232D+00           1.0000000
            P    1   1.00
                  0.944411D-01           1.0000000
            D    7   1.00
                  0.398470D+03           0.204066D-02
                  0.118967D+03           0.175171D-01
                  0.450197D+02           0.829708D-01
                  0.190320D+02           0.236284D+00
                  0.855686D+01           0.428468D+00
                  0.382950D+01           0.500000D+00
                  0.166291D+01           0.349360D+00
            D    1   1.00
                  0.672953D+00           1.0000000
            D    1   1.00
                  0.252000D+00           1.0000000
            F    1   1.00
                  0.530000D+00           1.0000000
            ****
            -Si     0
            S    8   1.00
                  0.996133D+05           0.235546D-03
                  0.149311D+05           0.182707D-02
                  0.339820D+04           0.951425D-02
                  0.962140D+03           0.388172D-01
                  0.313430D+03           0.127328D+00
                  0.112683D+03           0.313522D+00
                  0.433372D+02           0.500000D+00
                  0.170029D+02           0.340347D+00
            S    3   1.00
                  0.884208D+02          -0.404451D-01
                  0.266756D+02          -0.178059D+00
                  0.479640D+01           0.500000D+00
            S    2   1.00
                  0.239385D+01           0.500000D+00
                  0.108333D+01           0.338016D+00
            S    1   1.00
                  0.252420D+00           1.0000000
            S    1   1.00
                  0.891210D-01           1.0000000
            P    7   1.00
                  0.709901D+03           0.123028D-02
                  0.168426D+03           0.101366D-01
                  0.539946D+02           0.511840D-01
                  0.198646D+02           0.169967D+00
                  0.801369D+01           0.370717D+00
                  0.331870D+01           0.500000D+00
                  0.136112D+01           0.344128D+00
            P    2   1.00
                  0.622158D+01          -0.166609D-01
                  0.503049D+00           0.500000D+00
            P    1   1.00
                  0.179848D+00           1.0000000
            P    1   1.00
                  0.591912D-01           1.0000000
            D    1   1.00
                  0.168000D+01           1.0000000
            D    1   1.00
                  0.380000D+00           1.0000000
            F    1   1.00
                  0.540000D+00           1.0000000
            ****
            -P     0
            S    8   1.00
                  0.116416D+06           0.230715D-03
                  0.174500D+05           0.178960D-02
                  0.397149D+04           0.932116D-02
                  0.112447D+04           0.380591D-01
                  0.366347D+03           0.125148D+00
                  0.131757D+03           0.310022D+00
                  0.506988D+02           0.500000D+00
                  0.199436D+02           0.347528D+00
            S    3   1.00
                  0.101878D+03          -0.446755D-01
                  0.308249D+02          -0.196376D+00
                  0.573688D+01           0.500000D+00
            S    2   1.00
                  0.296868D+01           0.500000D+00
                  0.135315D+01           0.355098D+00
            S    1   1.00
                  0.332196D+00           1.0000000
            S    1   1.00
                  0.116229D+00           1.0000000
            P    7   1.00
                  0.873928D+03           0.112375D-02
                  0.207298D+03           0.933330D-02
                  0.664628D+02           0.477213D-01
                  0.245665D+02           0.160733D+00
                  0.996820D+01           0.359760D+00
                  0.416536D+01           0.500000D+00
                  0.173022D+01           0.346593D+00
            P    2   1.00
                  0.772530D+01          -0.175718D-01
                  0.657252D+00           0.500000D+00
            P    1   1.00
                  0.239903D+00           1.0000000
            P    1   1.00
                  0.800988D-01           1.0000000
            D    1   1.00
                  0.189000D+01           1.0000000
            D    1   1.00
                  0.430000D+00           1.0000000
            F    1   1.00
                  0.600000D+00           1.0000000
            ****
            
 Initial command:
 /usr/local/apps/g16_b01_avx/g16/l1.exe "/wrk/irikura/Gau-456520.inp" -scrdir="/wrk/irikura/"
 Entering Link 1 = /usr/local/apps/g16_b01_avx/g16/l1.exe PID=    456522.
  
 Copyright (c) 1988-2017, Gaussian, Inc.  All Rights Reserved.
  
 This is part of the Gaussian(R) 16 program.  It is based on
 the Gaussian(R) 09 system (copyright 2009, Gaussian, Inc.),
 the Gaussian(R) 03 system (copyright 2003, Gaussian, Inc.),
 the Gaussian(R) 98 system (copyright 1998, Gaussian, Inc.),
 the Gaussian(R) 94 system (copyright 1995, Gaussian, Inc.),
 the Gaussian 92(TM) system (copyright 1992, Gaussian, Inc.),
 the Gaussian 90(TM) system (copyright 1990, Gaussian, Inc.),
 the Gaussian 88(TM) system (copyright 1988, Gaussian, Inc.),
 the Gaussian 86(TM) system (copyright 1986, Carnegie Mellon
 University), and the Gaussian 82(TM) system (copyright 1983,
 Carnegie Mellon University). Gaussian is a federally registered
 trademark of Gaussian, Inc.
  
 This software contains proprietary and confidential information,
 including trade secrets, belonging to Gaussian, Inc.
  
 This software is provided under written license and may be
 used, copied, transmitted, or stored only in accord with that
 written license.
  
 The following legend is applicable only to US Government
 contracts under FAR:
  
                    RESTRICTED RIGHTS LEGEND
  
 Use, reproduction and disclosure by the US Government is
 subject to restrictions as set forth in subparagraphs (a)
 and (c) of the Commercial Computer Software - Restricted
 Rights clause in FAR 52.227-19.
  
 Gaussian, Inc.
 340 Quinnipiac St., Bldg. 40, Wallingford CT 06492
  
  
 ---------------------------------------------------------------
 Warning -- This program may not be used in any manner that
 competes with the business of Gaussian, Inc. or will provide
 assistance to any competitor of Gaussian, Inc.  The licensee
 of this program is prohibited from giving any competitor of
 Gaussian, Inc. access to this program.  By using this program,
 the user acknowledges that Gaussian, Inc. is engaged in the
 business of creating and licensing software in the field of
 computational chemistry and represents and warrants to the
 licensee that it is not a competitor of Gaussian, Inc. and that
 it will not use this program in any manner prohibited above.
 ---------------------------------------------------------------
  

 Cite this work as:
 Gaussian 16, Revision B.01,
 M. J. Frisch, G. W. Trucks, H. B. Schlegel, G. E. Scuseria, 
 M. A. Robb, J. R. Cheeseman, G. Scalmani, V. Barone, 
 G. A. Petersson, H. Nakatsuji, X. Li, M. Caricato, A. V. Marenich, 
 J. Bloino, B. G. Janesko, R. Gomperts, B. Mennucci, H. P. Hratchian, 
 J. V. Ortiz, A. F. Izmaylov, J. L. Sonnenberg, D. Williams-Young, 
 F. Ding, F. Lipparini, F. Egidi, J. Goings, B. Peng, A. Petrone, 
 T. Henderson, D. Ranasinghe, V. G. Zakrzewski, J. Gao, N. Rega, 
 G. Zheng, W. Liang, M. Hada, M. Ehara, K. Toyota, R. Fukuda, 
 J. Hasegawa, M. Ishida, T. Nakajima, Y. Honda, O. Kitao, H. Nakai, 
 T. Vreven, K. Throssell, J. A. Montgomery, Jr., J. E. Peralta, 
 F. Ogliaro, M. J. Bearpark, J. J. Heyd, E. N. Brothers, K. N. Kudin, 
 V. N. Staroverov, T. A. Keith, R. Kobayashi, J. Normand, 
 K. Raghavachari, A. P. Rendell, J. C. Burant, S. S. Iyengar, 
 J. Tomasi, M. Cossi, J. M. Millam, M. Klene, C. Adamo, R. Cammi, 
 J. W. Ochterski, R. L. Martin, K. Morokuma, O. Farkas, 
 J. B. Foresman, and D. J. Fox, Gaussian, Inc., Wallingford CT, 2016.
 
 ******************************************
 Gaussian 16:  ES64L-G16RevB.01 20-Dec-2017
                30-Sep-2023 
 ******************************************
 %chk=ch2ccl2.chk
 %mem=500mw
 %nprocs=4
 Will use up to    4 processors via shared memory.
 ---------------------------------------
 # b3lyp/gen opt freq CPHF(Grid=OneStep)
 ---------------------------------------
 1/18=20,19=15,26=3,38=1/1,3;
 2/9=110,12=2,17=6,18=5,40=1/2;
 3/5=7,11=2,25=1,30=1,71=1,74=-5/1,2,3;
 4//1;
 5/5=2,38=5/2;
 6/7=2,8=2,9=2,10=2,28=1/1;
 7//1,2,3,16;
 1/18=20,19=15,26=3/3(2);
 2/9=110/2;
 99//99;
 2/9=110/2;
 3/5=7,6=1,11=2,25=1,30=1,71=1,74=-5,82=7/1,2,3;
 4/5=5,16=3,69=1/1;
 5/5=2,38=5/2;
 7//1,2,3,16;
 1/18=20,19=15,26=3/3(-5);
 2/9=110/2;
 6/7=2,8=2,9=2,10=2,19=2,28=1/1;
 99/9=1/99;
 -----------------------------------
 1,1-dichloroethylene, B3LYP/pcseg-2
 -----------------------------------
 Symbolic Z-matrix:
 Charge =  0 Multiplicity = 1
 C                     0.        0.        1.7456 
 C                     0.        0.        0.42409 
 H                     0.        0.92948   2.29336 
 H                     0.       -0.92948   2.29336 
 Cl                    0.        1.45747  -0.51779 
 Cl                    0.       -1.45747  -0.51779 
 

 GradGradGradGradGradGradGradGradGradGradGradGradGradGradGradGradGradGrad
 Berny optimization.
 Initialization pass.
                           ----------------------------
                           !    Initial Parameters    !
                           ! (Angstroms and Degrees)  !
 --------------------------                            --------------------------
 ! Name  Definition              Value          Derivative Info.                !
 --------------------------------------------------------------------------------
 ! R1    R(1,2)                  1.3215         estimate D2E/DX2                !
 ! R2    R(1,3)                  1.0789         estimate D2E/DX2                !
 ! R3    R(1,4)                  1.0789         estimate D2E/DX2                !
 ! R4    R(2,5)                  1.7353         estimate D2E/DX2                !
 ! R5    R(2,6)                  1.7353         estimate D2E/DX2                !
 ! A1    A(2,1,3)              120.5117         estimate D2E/DX2                !
 ! A2    A(2,1,4)              120.5117         estimate D2E/DX2                !
 ! A3    A(3,1,4)              118.9766         estimate D2E/DX2                !
 ! A4    A(1,2,5)              122.8724         estimate D2E/DX2                !
 ! A5    A(1,2,6)              122.8724         estimate D2E/DX2                !
 ! A6    A(5,2,6)              114.2551         estimate D2E/DX2                !
 ! D1    D(3,1,2,5)              0.0            estimate D2E/DX2                !
 ! D2    D(3,1,2,6)            180.0            estimate D2E/DX2                !
 ! D3    D(4,1,2,5)            180.0            estimate D2E/DX2                !
 ! D4    D(4,1,2,6)              0.0            estimate D2E/DX2                !
 --------------------------------------------------------------------------------
 Trust Radius=3.00D-01 FncErr=1.00D-07 GrdErr=1.00D-06 EigMax=2.50D+02 EigMin=1.00D-04
 Number of steps in this run=     25 maximum allowed number of steps=    100.
 GradGradGradGradGradGradGradGradGradGradGradGradGradGradGradGradGradGrad

                          Input orientation:                          
 ---------------------------------------------------------------------
 Center     Atomic      Atomic             Coordinates (Angstroms)
 Number     Number       Type             X           Y           Z
 ---------------------------------------------------------------------
      1          6           0        0.000000    0.000000    1.745600
      2          6           0        0.000000    0.000000    0.424094
      3          1           0        0.000000    0.929475    2.293358
      4          1           0        0.000000   -0.929475    2.293358
      5         17           0        0.000000    1.457469   -0.517791
      6         17           0        0.000000   -1.457469   -0.517791
 ---------------------------------------------------------------------
                    Distance matrix (angstroms):
                    1          2          3          4          5
     1  C    0.000000
     2  C    1.321506   0.000000
     3  H    1.078871   2.087600   0.000000
     4  H    1.078871   2.087600   1.858950   0.000000
     5  Cl   2.692054   1.735328   2.860304   3.687826   0.000000
     6  Cl   2.692054   1.735328   3.687826   2.860304   2.914938
                    6
     6  Cl   0.000000
 Stoichiometry    C2H2Cl2
 Framework group  C2V[C2(CC),SGV(H2Cl2)]
 Deg. of freedom     5
 Full point group                 C2V     NOp   4
 Largest Abelian subgroup         C2V     NOp   4
 Largest concise Abelian subgroup C2      NOp   2
                         Standard orientation:                         
 ---------------------------------------------------------------------
 Center     Atomic      Atomic             Coordinates (Angstroms)
 Number     Number       Type             X           Y           Z
 ---------------------------------------------------------------------
      1          6           0        0.000000   -0.000000    1.745600
      2          6           0        0.000000   -0.000000    0.424094
      3          1           0        0.000000    0.929475    2.293358
      4          1           0       -0.000000   -0.929475    2.293358
      5         17           0        0.000000    1.457469   -0.517791
      6         17           0       -0.000000   -1.457469   -0.517791
 ---------------------------------------------------------------------
 Rotational constants (GHZ):           7.4589932           3.3623756           2.3176307
 General basis read from cards:  (5D, 7F)
 There are    70 symmetry adapted cartesian basis functions of A1  symmetry.
 There are    22 symmetry adapted cartesian basis functions of A2  symmetry.
 There are    32 symmetry adapted cartesian basis functions of B1  symmetry.
 There are    54 symmetry adapted cartesian basis functions of B2  symmetry.
 There are    59 symmetry adapted basis functions of A1  symmetry.
 There are    21 symmetry adapted basis functions of A2  symmetry.
 There are    29 symmetry adapted basis functions of B1  symmetry.
 There are    47 symmetry adapted basis functions of B2  symmetry.
   156 basis functions,   278 primitive gaussians,   178 cartesian basis functions
    24 alpha electrons       24 beta electrons
       nuclear repulsion energy       189.5708561599 Hartrees.
 NAtoms=    6 NActive=    6 NUniq=    4 SFac= 2.25D+00 NAtFMM=   60 NAOKFM=F Big=F
 Integral buffers will be    131072 words long.
 Raffenetti 2 integral format.
 Two-electron integral symmetry is turned on.
 One-electron integrals computed using PRISM.
 NBasis=   156 RedAO= T EigKep=  4.95D-04  NBF=    59    21    29    47
 NBsUse=   156 1.00D-06 EigRej= -1.00D+00 NBFU=    59    21    29    47
 ExpMin= 7.42D-02 ExpMax= 1.54D+05 ExpMxC= 1.49D+03 IAcc=3 IRadAn=         5 AccDes= 0.00D+00
 Harris functional with IExCor=  402 and IRadAn=       5 diagonalized for initial guess.
 HarFok:  IExCor=  402 AccDes= 0.00D+00 IRadAn=         5 IDoV= 1 UseB2=F ITyADJ=14
 ICtDFT=  3500011 ScaDFX=  1.000000  1.000000  1.000000  1.000000
 FoFCou: FMM=F IPFlag=           0 FMFlag=      100000 FMFlg1=           0
         NFxFlg=           0 DoJE=T BraDBF=F KetDBF=T FulRan=T
         wScrn=  0.000000 ICntrl=       500 IOpCl=  0 I1Cent=   200000004 NGrid=           0
         NMat0=    1 NMatS0=      1 NMatT0=    0 NMatD0=    1 NMtDS0=    0 NMtDT0=    0
 Petite list used in FoFCou.
 Initial guess orbital symmetries:
       Occupied  (B2) (A1) (A1) (A1) (B2) (A1) (B2) (A1) (A1) (B2)
                 (B1) (A2) (A1) (A1) (B2) (A1) (B2) (A1) (B1) (B2)
                 (A1) (A2) (B1) (B2)
       Virtual   (B1) (A1) (B2) (A1) (B2) (A1) (B1) (A1) (B2) (A1)
                 (B1) (A1) (B2) (B2) (A1) (A1) (A2) (A1) (B2) (B1)
                 (A1) (B2) (A2) (B1) (A2) (A1) (B2) (B1) (A2) (A1)
                 (B2) (B2) (A1) (A1) (B1) (B2) (A1) (A1) (B2) (A2)
                 (B1) (B2) (A1) (B2) (B1) (A1) (B1) (A1) (A2) (A1)
                 (B1) (B2) (A1) (B2) (A1) (B2) (A1) (A2) (A1) (B1)
                 (B2) (B1) (A2) (B2) (A1) (B2) (A2) (B2) (B1) (A1)
                 (A1) (B2) (A2) (A1) (B1) (A1) (B2) (A1) (B2) (B1)
                 (A2) (A1) (B2) (B1) (A1) (B1) (B2) (A2) (A1) (A2)
                 (B1) (B2) (B2) (A1) (A1) (B2) (A2) (A1) (A2) (B1)
                 (A2) (A1) (B2) (B1) (B1) (A1) (B2) (A1) (A2) (B2)
                 (B1) (A1) (B1) (A1) (A2) (B2) (B1) (B2) (B2) (A1)
                 (A1) (B1) (A1) (B2) (A2) (A1) (B2) (A1) (A1) (B2)
                 (A1) (B2)
 The electronic state of the initial guess is 1-A1.
 Keep R1 ints in memory in symmetry-blocked form, NReq=94119889.
 Requested convergence on RMS density matrix=1.00D-08 within 128 cycles.
 Requested convergence on MAX density matrix=1.00D-06.
 Requested convergence on             energy=1.00D-06.
 No special actions if energy rises.
 Integral accuracy reduced to 1.0D-05 until final iterations.
 Initial convergence to 1.0D-05 achieved.  Increase integral accuracy.
 SCF Done:  E(RB3LYP) =  -997.892119513     A.U. after   13 cycles
            NFock= 13  Conv=0.28D-08     -V/T= 2.0011

 **********************************************************************

            Population analysis using the SCF Density.

 **********************************************************************

 Orbital symmetries:
       Occupied  (B2) (A1) (A1) (A1) (B2) (A1) (B2) (A1) (A2) (B1)
                 (B2) (A1) (A1) (B2) (A1) (A1) (B2) (A1) (B1) (B2)
                 (A1) (A2) (B2) (B1)
       Virtual   (B1) (A1) (B2) (A1) (B2) (A1) (A1) (B1) (B2) (A1)
                 (B1) (B2) (A1) (A1) (B2) (A1) (A2) (B2) (B1) (A1)
                 (A1) (B2) (A2) (B1) (A2) (A1) (B2) (B1) (B2) (A2)
                 (A1) (A1) (B2) (B1) (A1) (B2) (A1) (A1) (B2) (A2)
                 (B2) (B1) (A1) (B2) (A1) (B1) (B1) (A1) (A2) (A1)
                 (B1) (B2) (B2) (A1) (A1) (B2) (A1) (A2) (B1) (A1)
                 (B2) (B1) (A2) (B2) (A1) (B2) (A2) (B2) (B1) (A1)
                 (A1) (A2) (B2) (B1) (A1) (A1) (B2) (A1) (B2) (B1)
                 (A2) (A1) (B2) (B1) (A1) (B1) (B2) (A2) (A1) (A2)
                 (B1) (B2) (B2) (A1) (A1) (A2) (B2) (A1) (B1) (A2)
                 (A2) (A1) (B1) (B2) (A1) (B1) (B2) (A1) (B1) (A2)
                 (B2) (A1) (B1) (A1) (A2) (B2) (B1) (B2) (B2) (A1)
                 (A1) (B1) (A1) (B2) (A2) (A1) (B2) (A1) (A1) (B2)
                 (A1) (B2)
 The electronic state is 1-A1.
 Alpha  occ. eigenvalues -- -101.53544-101.53544 -10.30023 -10.19770  -9.48056
 Alpha  occ. eigenvalues --   -9.48056  -7.24238  -7.24238  -7.23334  -7.23334
 Alpha  occ. eigenvalues --   -7.23296  -7.23296  -0.92798  -0.84740  -0.76366
 Alpha  occ. eigenvalues --   -0.57978  -0.50488  -0.48320  -0.41884  -0.41284
 Alpha  occ. eigenvalues --   -0.35346  -0.34140  -0.32342  -0.27383
 Alpha virt. eigenvalues --   -0.03306  -0.01017   0.02113   0.02878   0.08733
 Alpha virt. eigenvalues --    0.09274   0.17072   0.17112   0.18388   0.21787
 Alpha virt. eigenvalues --    0.24114   0.26193   0.27527   0.30556   0.32373
 Alpha virt. eigenvalues --    0.32641   0.32712   0.34057   0.35593   0.36489
 Alpha virt. eigenvalues --    0.45466   0.45481   0.46113   0.52546   0.55911
 Alpha virt. eigenvalues --    0.58852   0.60080   0.60440   0.65953   0.66497
 Alpha virt. eigenvalues --    0.66696   0.73492   0.74492   0.90180   0.90455
 Alpha virt. eigenvalues --    0.93747   0.97259   0.99541   1.06130   1.08474
 Alpha virt. eigenvalues --    1.09050   1.14211   1.16228   1.23461   1.23825
 Alpha virt. eigenvalues --    1.24998   1.35213   1.46103   1.48313   1.49099
 Alpha virt. eigenvalues --    1.54865   1.72342   1.73837   1.73911   1.82016
 Alpha virt. eigenvalues --    1.84292   2.00835   2.06360   2.07467   2.09322
 Alpha virt. eigenvalues --    2.09861   2.09935   2.10239   2.11966   2.13043
 Alpha virt. eigenvalues --    2.13072   2.17637   2.19174   2.19413   2.22413
 Alpha virt. eigenvalues --    2.27600   2.33078   2.34746   2.34956   2.34981
 Alpha virt. eigenvalues --    2.50195   2.54344   2.68212   2.72199   3.06275
 Alpha virt. eigenvalues --    3.12994   3.18571   3.31054   3.31445   3.37735
 Alpha virt. eigenvalues --    3.40269   3.45393   3.46095   3.50379   3.51270
 Alpha virt. eigenvalues --    3.54535   3.55317   3.60700   3.65979   3.73475
 Alpha virt. eigenvalues --    3.81230   3.82861   3.88950   3.94881   4.01501
 Alpha virt. eigenvalues --    4.07700   4.08079   4.16154   4.16743   4.24105
 Alpha virt. eigenvalues --    4.27467   4.29963   4.34153   4.43784   4.44865
 Alpha virt. eigenvalues --    4.45654   4.48727   4.50761   4.54855   4.56656
 Alpha virt. eigenvalues --    4.62143   4.88537   4.91413   5.11208   5.15391
 Alpha virt. eigenvalues --    5.17869   5.35467   5.46720   5.49036   5.60740
 Alpha virt. eigenvalues --    5.74976   5.88715   5.96770   6.06723   6.44936
 Alpha virt. eigenvalues --   32.77339  33.40128
          Condensed to atoms (all electrons):
               1          2          3          4          5          6
     1  C    4.849007   0.557442   0.426147   0.426147  -0.085774  -0.085774
     2  C    0.557442   4.820000  -0.045108  -0.045108   0.319929   0.319929
     3  H    0.426147  -0.045108   0.554341  -0.019770  -0.005055   0.007674
     4  H    0.426147  -0.045108  -0.019770   0.554341   0.007674  -0.005055
     5  Cl  -0.085774   0.319929  -0.005055   0.007674  16.921130  -0.083273
     6  Cl  -0.085774   0.319929   0.007674  -0.005055  -0.083273  16.921130
 Mulliken charges:
               1
     1  C   -0.087195
     2  C    0.072916
     3  H    0.081771
     4  H    0.081771
     5  Cl  -0.074631
     6  Cl  -0.074631
 Sum of Mulliken charges =  -0.00000
 Mulliken charges with hydrogens summed into heavy atoms:
               1
     1  C    0.076346
     2  C    0.072916
     5  Cl  -0.074631
     6  Cl  -0.074631
 Electronic spatial extent (au):  <R**2>=            484.7920
 Charge=             -0.0000 electrons
 Dipole moment (field-independent basis, Debye):
    X=              0.0000    Y=             -0.0000    Z=              1.3638  Tot=              1.3638
 Quadrupole moment (field-independent basis, Debye-Ang):
   XX=            -38.7019   YY=            -36.6191   ZZ=            -34.2301
   XY=             -0.0000   XZ=             -0.0000   YZ=              0.0000
 Traceless Quadrupole moment (field-independent basis, Debye-Ang):
   XX=             -2.1848   YY=             -0.1021   ZZ=              2.2870
   XY=             -0.0000   XZ=             -0.0000   YZ=              0.0000
 Octapole moment (field-independent basis, Debye-Ang**2):
  XXX=              0.0000  YYY=             -0.0000  ZZZ=              2.3940  XYY=              0.0000
  XXY=              0.0000  XXZ=             -3.2856  XZZ=              0.0000  YZZ=              0.0000
  YYZ=             -2.6665  XYZ=              0.0000
 Hexadecapole moment (field-independent basis, Debye-Ang**3):
 XXXX=            -45.1444 YYYY=           -353.1717 ZZZZ=           -211.4453 XXXY=             -0.0000
 XXXZ=             -0.0000 YYYX=             -0.0000 YYYZ=              0.0000 ZZZX=             -0.0000
 ZZZY=             -0.0000 XXYY=            -70.7248 XXZZ=            -49.4480 YYZZ=            -88.1319
 XXYZ=              0.0000 YYXZ=             -0.0000 ZZXY=             -0.0000
 N-N= 1.895708561599D+02 E-N=-2.748260839124D+03  KE= 9.967741852749D+02
 Symmetry A1   KE= 4.845713483804D+02
 Symmetry A2   KE= 4.623081044891D+01
 Symmetry B1   KE= 4.815082248830D+01
 Symmetry B2   KE= 4.178212039572D+02
 Calling FoFJK, ICntrl=      2127 FMM=F ISym2X=1 I1Cent= 0 IOpClX= 0 NMat=1 NMatS=1 NMatT=0.
 ***** Axes restored to original set *****
 -------------------------------------------------------------------
 Center     Atomic                   Forces (Hartrees/Bohr)
 Number     Number              X              Y              Z
 -------------------------------------------------------------------
      1        6          -0.000000000   -0.000000000    0.000296581
      2        6          -0.000000000   -0.000000000   -0.000209055
      3        1           0.000000000    0.000044138    0.000029516
      4        1           0.000000000   -0.000044138    0.000029516
      5       17           0.000000000    0.000011007   -0.000073279
      6       17           0.000000000   -0.000011007   -0.000073279
 -------------------------------------------------------------------
 Cartesian Forces:  Max     0.000296581 RMS     0.000090764

 GradGradGradGradGradGradGradGradGradGradGradGradGradGradGradGradGradGrad
 Berny optimization.
 FormGI is forming the generalized inverse of G from B-inverse, IUseBI=4.
 Internal  Forces:  Max     0.000355612 RMS     0.000102973
 Search for a local minimum.
 Step number   1 out of a maximum of   25
 All quantities printed in internal units (Hartrees-Bohrs-Radians)
 Mixed Optimization -- En-DIIS/RFO-DIIS
 Second derivative matrix not updated -- first step.
 The second derivative matrix:
                          R1        R2        R3        R4        R5
           R1           0.61558
           R2           0.00000   0.36131
           R3           0.00000   0.00000   0.36131
           R4           0.00000   0.00000   0.00000   0.31953
           R5           0.00000   0.00000   0.00000   0.00000   0.31953
           A1           0.00000   0.00000   0.00000   0.00000   0.00000
           A2           0.00000   0.00000   0.00000   0.00000   0.00000
           A3           0.00000   0.00000   0.00000   0.00000   0.00000
           A4           0.00000   0.00000   0.00000   0.00000   0.00000
           A5           0.00000   0.00000   0.00000   0.00000   0.00000
           A6           0.00000   0.00000   0.00000   0.00000   0.00000
           D1           0.00000   0.00000   0.00000   0.00000   0.00000
           D2           0.00000   0.00000   0.00000   0.00000   0.00000
           D3           0.00000   0.00000   0.00000   0.00000   0.00000
           D4           0.00000   0.00000   0.00000   0.00000   0.00000
                          A1        A2        A3        A4        A5
           A1           0.16000
           A2           0.00000   0.16000
           A3           0.00000   0.00000   0.16000
           A4           0.00000   0.00000   0.00000   0.25000
           A5           0.00000   0.00000   0.00000   0.00000   0.25000
           A6           0.00000   0.00000   0.00000   0.00000   0.00000
           D1           0.00000   0.00000   0.00000   0.00000   0.00000
           D2           0.00000   0.00000   0.00000   0.00000   0.00000
           D3           0.00000   0.00000   0.00000   0.00000   0.00000
           D4           0.00000   0.00000   0.00000   0.00000   0.00000
                          A6        D1        D2        D3        D4
           A6           0.25000
           D1           0.00000   0.03127
           D2           0.00000   0.00000   0.03127
           D3           0.00000   0.00000   0.00000   0.03127
           D4           0.00000   0.00000   0.00000   0.00000   0.03127
 ITU=  0
     Eigenvalues ---    0.03127   0.03127   0.03127   0.16000   0.16000
     Eigenvalues ---    0.25000   0.25000   0.31953   0.31953   0.36131
     Eigenvalues ---    0.36131   0.61558
 RFO step:  Lambda=-3.24744430D-07 EMin= 3.12708095D-02
 Linear search not attempted -- first point.
 Iteration  1 RMS(Cart)=  0.00041286 RMS(Int)=  0.00000004
 Iteration  2 RMS(Cart)=  0.00000004 RMS(Int)=  0.00000000
 ClnCor:  largest displacement from symmetrization is 1.09D-12 for atom     6.
 Variable       Old X    -DE/DX   Delta X   Delta X   Delta X     New X
                                 (Linear)    (Quad)   (Total)
    R1        2.49728   0.00036   0.00000   0.00058   0.00058   2.49786
    R2        2.03877   0.00005   0.00000   0.00015   0.00015   2.03892
    R3        2.03877   0.00005   0.00000   0.00015   0.00015   2.03892
    R4        3.27929   0.00005   0.00000   0.00015   0.00015   3.27945
    R5        3.27929   0.00005   0.00000   0.00015   0.00015   3.27945
    A1        2.10333   0.00000   0.00000   0.00001   0.00001   2.10334
    A2        2.10333   0.00000   0.00000   0.00001   0.00001   2.10334
    A3        2.07653  -0.00000   0.00000  -0.00003  -0.00003   2.07651
    A4        2.14453   0.00006   0.00000   0.00024   0.00024   2.14477
    A5        2.14453   0.00006   0.00000   0.00024   0.00024   2.14477
    A6        1.99413  -0.00012   0.00000  -0.00049  -0.00049   1.99364
    D1       -0.00000   0.00000   0.00000   0.00000   0.00000   0.00000
    D2        3.14159  -0.00000   0.00000  -0.00000   0.00000   3.14159
    D3        3.14159   0.00000   0.00000   0.00000   0.00000   3.14159
    D4        0.00000  -0.00000   0.00000  -0.00000   0.00000   0.00000
         Item               Value     Threshold  Converged?
 Maximum Force            0.000356     0.000450     YES
 RMS     Force            0.000103     0.000300     YES
 Maximum Displacement     0.000823     0.001800     YES
 RMS     Displacement     0.000413     0.001200     YES
 Predicted change in Energy=-1.623722D-07
 Optimization completed.
    -- Stationary point found.
                           ----------------------------
                           !   Optimized Parameters   !
                           ! (Angstroms and Degrees)  !
 --------------------------                            --------------------------
 ! Name  Definition              Value          Derivative Info.                !
 --------------------------------------------------------------------------------
 ! R1    R(1,2)                  1.3215         -DE/DX =    0.0004              !
 ! R2    R(1,3)                  1.0789         -DE/DX =    0.0001              !
 ! R3    R(1,4)                  1.0789         -DE/DX =    0.0001              !
 ! R4    R(2,5)                  1.7353         -DE/DX =    0.0                 !
 ! R5    R(2,6)                  1.7353         -DE/DX =    0.0                 !
 ! A1    A(2,1,3)              120.5117         -DE/DX =    0.0                 !
 ! A2    A(2,1,4)              120.5117         -DE/DX =    0.0                 !
 ! A3    A(3,1,4)              118.9766         -DE/DX =    0.0                 !
 ! A4    A(1,2,5)              122.8724         -DE/DX =    0.0001              !
 ! A5    A(1,2,6)              122.8724         -DE/DX =    0.0001              !
 ! A6    A(5,2,6)              114.2551         -DE/DX =   -0.0001              !
 ! D1    D(3,1,2,5)              0.0            -DE/DX =    0.0                 !
 ! D2    D(3,1,2,6)            180.0            -DE/DX =    0.0                 !
 ! D3    D(4,1,2,5)            180.0            -DE/DX =    0.0                 !
 ! D4    D(4,1,2,6)              0.0            -DE/DX =    0.0                 !
 --------------------------------------------------------------------------------
 GradGradGradGradGradGradGradGradGradGradGradGradGradGradGradGradGradGrad

                          Input orientation:                          
 ---------------------------------------------------------------------
 Center     Atomic      Atomic             Coordinates (Angstroms)
 Number     Number       Type             X           Y           Z
 ---------------------------------------------------------------------
      1          6           0        0.000000    0.000000    1.745600
      2          6           0        0.000000    0.000000    0.424094
      3          1           0        0.000000    0.929475    2.293358
      4          1           0       -0.000000   -0.929475    2.293358
      5         17           0        0.000000    1.457469   -0.517791
      6         17           0       -0.000000   -1.457469   -0.517791
 ---------------------------------------------------------------------
                    Distance matrix (angstroms):
                    1          2          3          4          5
     1  C    0.000000
     2  C    1.321506   0.000000
     3  H    1.078871   2.087600   0.000000
     4  H    1.078871   2.087600   1.858950   0.000000
     5  Cl   2.692054   1.735328   2.860304   3.687826   0.000000
     6  Cl   2.692054   1.735328   3.687826   2.860304   2.914938
                    6
     6  Cl   0.000000
 Stoichiometry    C2H2Cl2
 Framework group  C2V[C2(CC),SGV(H2Cl2)]
 Deg. of freedom     5
 Full point group                 C2V     NOp   4
 Largest Abelian subgroup         C2V     NOp   4
 Largest concise Abelian subgroup C2      NOp   2
                         Standard orientation:                         
 ---------------------------------------------------------------------
 Center     Atomic      Atomic             Coordinates (Angstroms)
 Number     Number       Type             X           Y           Z
 ---------------------------------------------------------------------
      1          6           0        0.000000    0.000000    1.745600
      2          6           0        0.000000    0.000000    0.424094
      3          1           0        0.000000    0.929475    2.293358
      4          1           0       -0.000000   -0.929475    2.293358
      5         17           0        0.000000    1.457469   -0.517791
      6         17           0       -0.000000   -1.457469   -0.517791
 ---------------------------------------------------------------------
 Rotational constants (GHZ):           7.4589932           3.3623756           2.3176307
 1\1\GINC-GAMBA\FOpt\RB3LYP\Gen\C2H2Cl2\IRIKURA\30-Sep-2023\0\\# b3lyp/
 gen opt freq CPHF(Grid=OneStep)\\1,1-dichloroethylene, B3LYP/pcseg-2\\
 0,1\C,0.,0.,1.7456\C,0.,0.,0.424094\H,0.,0.929475,2.293358\H,0.,-0.929
 475,2.293358\Cl,0.,1.457469,-0.517791\Cl,0.,-1.457469,-0.517791\\Versi
 on=ES64L-G16RevB.01\State=1-A1\HF=-997.8921195\RMSD=2.846e-09\RMSF=9.0
 76e-05\Dipole=0.,0.,0.5365563\Quadrupole=-1.6243744,-0.0759181,1.70029
 25,0.,0.,0.\PG=C02V [C2(C1C1),SGV(H2Cl2)]\\@


 One man practicing sportsmanship is far better than 50 preaching it.
 -- Knute K. Rockne
 Job cpu time:       0 days  0 hours  0 minutes 34.9 seconds.
 Elapsed time:       0 days  0 hours  0 minutes  8.8 seconds.
 File lengths (MBytes):  RWF=     14 Int=      0 D2E=      0 Chk=      3 Scr=      1
 Normal termination of Gaussian 16 at Sat Sep 30 11:24:44 2023.
 Link1:  Proceeding to internal job step number  2.
 ------------------------------------------------------------------
 #N Geom=AllCheck Guess=TCheck SCRF=Check GenChk RB3LYP/ChkBas Freq
 ------------------------------------------------------------------
 1/10=4,29=7,30=1,38=1,40=1/1,3;
 2/12=2,40=1/2;
 3/5=7,6=2,11=2,14=-4,25=1,30=1,67=1,70=2,71=2,74=-5,82=7,116=1,140=1/1,2,3;
 4/5=101/1;
 5/5=2,38=6,98=1/2;
 8/6=4,10=90,11=11/1;
 11/6=1,8=1,9=11,15=111,16=1/1,2,10;
 10/6=1,60=-420/2;
 6/7=2,8=2,9=2,10=2,28=1/1;
 7/8=1,10=1,25=1/1,2,3,16;
 1/10=4,30=1/3;
 99//99;
 Structure from the checkpoint file:  "ch2ccl2.chk"
 -----------------------------------
 1,1-dichloroethylene, B3LYP/pcseg-2
 -----------------------------------
 Charge =  0 Multiplicity = 1
 Redundant internal coordinates found in file.  (old form).
 C,0,0.,0.,1.7456
 C,0,0.,0.,0.424094
 H,0,0.,0.929475,2.293358
 H,0,0.,-0.929475,2.293358
 Cl,0,0.,1.457469,-0.517791
 Cl,0,0.,-1.457469,-0.517791
 Recover connectivity data from disk.

 GradGradGradGradGradGradGradGradGradGradGradGradGradGradGradGradGradGrad
 Berny optimization.
 Initialization pass.
                           ----------------------------
                           !    Initial Parameters    !
                           ! (Angstroms and Degrees)  !
 --------------------------                            --------------------------
 ! Name  Definition              Value          Derivative Info.                !
 --------------------------------------------------------------------------------
 ! R1    R(1,2)                  1.3215         calculate D2E/DX2 analytically  !
 ! R2    R(1,3)                  1.0789         calculate D2E/DX2 analytically  !
 ! R3    R(1,4)                  1.0789         calculate D2E/DX2 analytically  !
 ! R4    R(2,5)                  1.7353         calculate D2E/DX2 analytically  !
 ! R5    R(2,6)                  1.7353         calculate D2E/DX2 analytically  !
 ! A1    A(2,1,3)              120.5117         calculate D2E/DX2 analytically  !
 ! A2    A(2,1,4)              120.5117         calculate D2E/DX2 analytically  !
 ! A3    A(3,1,4)              118.9766         calculate D2E/DX2 analytically  !
 ! A4    A(1,2,5)              122.8724         calculate D2E/DX2 analytically  !
 ! A5    A(1,2,6)              122.8724         calculate D2E/DX2 analytically  !
 ! A6    A(5,2,6)              114.2551         calculate D2E/DX2 analytically  !
 ! D1    D(3,1,2,5)              0.0            calculate D2E/DX2 analytically  !
 ! D2    D(3,1,2,6)            180.0            calculate D2E/DX2 analytically  !
 ! D3    D(4,1,2,5)            180.0            calculate D2E/DX2 analytically  !
 ! D4    D(4,1,2,6)              0.0            calculate D2E/DX2 analytically  !
 --------------------------------------------------------------------------------
 Trust Radius=3.00D-01 FncErr=1.00D-07 GrdErr=1.00D-07 EigMax=2.50D+02 EigMin=1.00D-04
 Number of steps in this run=      2 maximum allowed number of steps=      2.
 GradGradGradGradGradGradGradGradGradGradGradGradGradGradGradGradGradGrad

                          Input orientation:                          
 ---------------------------------------------------------------------
 Center     Atomic      Atomic             Coordinates (Angstroms)
 Number     Number       Type             X           Y           Z
 ---------------------------------------------------------------------
      1          6           0        0.000000   -0.000000    1.745600
      2          6           0       -0.000000   -0.000000    0.424094
      3          1           0        0.000000    0.929475    2.293358
      4          1           0       -0.000000   -0.929475    2.293358
      5         17           0        0.000000    1.457469   -0.517791
      6         17           0       -0.000000   -1.457469   -0.517791
 ---------------------------------------------------------------------
                    Distance matrix (angstroms):
                    1          2          3          4          5
     1  C    0.000000
     2  C    1.321506   0.000000
     3  H    1.078871   2.087600   0.000000
     4  H    1.078871   2.087600   1.858950   0.000000
     5  Cl   2.692054   1.735328   2.860304   3.687826   0.000000
     6  Cl   2.692054   1.735328   3.687826   2.860304   2.914938
                    6
     6  Cl   0.000000
 Stoichiometry    C2H2Cl2
 Framework group  C2V[C2(CC),SGV(H2Cl2)]
 Deg. of freedom     5
 Full point group                 C2V     NOp   4
 Largest Abelian subgroup         C2V     NOp   4
 Largest concise Abelian subgroup C2      NOp   2
                         Standard orientation:                         
 ---------------------------------------------------------------------
 Center     Atomic      Atomic             Coordinates (Angstroms)
 Number     Number       Type             X           Y           Z
 ---------------------------------------------------------------------
      1          6           0        0.000000    0.000000    1.745600
      2          6           0        0.000000    0.000000    0.424094
      3          1           0       -0.000000    0.929475    2.293358
      4          1           0       -0.000000   -0.929475    2.293358
      5         17           0       -0.000000    1.457469   -0.517791
      6         17           0       -0.000000   -1.457469   -0.517791
 ---------------------------------------------------------------------
 Rotational constants (GHZ):           7.4589932           3.3623756           2.3176307
 Basis read from chk: "ch2ccl2.chk" (5D, 7F)
 There are    70 symmetry adapted cartesian basis functions of A1  symmetry.
 There are    22 symmetry adapted cartesian basis functions of A2  symmetry.
 There are    32 symmetry adapted cartesian basis functions of B1  symmetry.
 There are    54 symmetry adapted cartesian basis functions of B2  symmetry.
 There are    59 symmetry adapted basis functions of A1  symmetry.
 There are    21 symmetry adapted basis functions of A2  symmetry.
 There are    29 symmetry adapted basis functions of B1  symmetry.
 There are    47 symmetry adapted basis functions of B2  symmetry.
   156 basis functions,   278 primitive gaussians,   178 cartesian basis functions
    24 alpha electrons       24 beta electrons
       nuclear repulsion energy       189.5708561599 Hartrees.
 NAtoms=    6 NActive=    6 NUniq=    4 SFac= 2.25D+00 NAtFMM=   60 NAOKFM=F Big=F
 Integral buffers will be    131072 words long.
 Raffenetti 2 integral format.
 Two-electron integral symmetry is turned on.
 One-electron integrals computed using PRISM.
 NBasis=   156 RedAO= T EigKep=  4.95D-04  NBF=    59    21    29    47
 NBsUse=   156 1.00D-06 EigRej= -1.00D+00 NBFU=    59    21    29    47
 Initial guess from the checkpoint file:  "ch2ccl2.chk"
 B after Tr=    -0.000000   -0.000000   -0.000000
         Rot=    1.000000    0.000000   -0.000000   -0.000000 Ang=   0.00 deg.
 Initial guess orbital symmetries:
       Occupied  (B2) (A1) (A1) (A1) (B2) (A1) (B2) (A1) (A2) (B1)
                 (B2) (A1) (A1) (B2) (A1) (A1) (B2) (A1) (B1) (B2)
                 (A1) (A2) (B2) (B1)
       Virtual   (B1) (A1) (B2) (A1) (B2) (A1) (A1) (B1) (B2) (A1)
                 (B1) (B2) (A1) (A1) (B2) (A1) (A2) (B2) (B1) (A1)
                 (A1) (B2) (A2) (B1) (A2) (A1) (B2) (B1) (B2) (A2)
                 (A1) (A1) (B2) (B1) (A1) (B2) (A1) (A1) (B2) (A2)
                 (B2) (B1) (A1) (B2) (A1) (B1) (B1) (A1) (A2) (A1)
                 (B1) (B2) (B2) (A1) (A1) (B2) (A1) (A2) (B1) (A1)
                 (B2) (B1) (A2) (B2) (A1) (B2) (A2) (B2) (B1) (A1)
                 (A1) (A2) (B2) (B1) (A1) (A1) (B2) (A1) (B2) (B1)
                 (A2) (A1) (B2) (B1) (A1) (B1) (B2) (A2) (A1) (A2)
                 (B1) (B2) (B2) (A1) (A1) (A2) (B2) (A1) (B1) (A2)
                 (A2) (A1) (B1) (B2) (A1) (B1) (B2) (A1) (B1) (A2)
                 (B2) (A1) (B1) (A1) (A2) (B2) (B1) (B2) (B2) (A1)
                 (A1) (B1) (A1) (B2) (A2) (A1) (B2) (A1) (A1) (B2)
                 (A1) (B2)
 Keep R1 ints in memory in symmetry-blocked form, NReq=94119889.
 Requested convergence on RMS density matrix=1.00D-08 within 128 cycles.
 Requested convergence on MAX density matrix=1.00D-06.
 Requested convergence on             energy=1.00D-06.
 No special actions if energy rises.
 SCF Done:  E(RB3LYP) =  -997.892119513     A.U. after    1 cycles
            NFock=  1  Conv=0.42D-09     -V/T= 2.0011
 DoSCS=F DFT=T ScalE2(SS,OS)=  1.000000  1.000000
 Range of M.O.s used for correlation:     1   156
 NBasis=   156 NAE=    24 NBE=    24 NFC=     0 NFV=     0
 NROrb=    156 NOA=    24 NOB=    24 NVA=   132 NVB=   132

 **** Warning!!: The largest alpha MO coefficient is  0.10842908D+02

 Symmetrizing basis deriv contribution to polar:
 IMax=3 JMax=2 DiffMx= 0.00D+00
 G2DrvN: will do     7 centers at a time, making    1 passes.
 Calling FoFCou, ICntrl=  3107 FMM=F I1Cent=   0 AccDes= 0.00D+00.
 End of G2Drv F.D. properties file   721 does not exist.
 End of G2Drv F.D. properties file   722 does not exist.
 End of G2Drv F.D. properties file   788 does not exist.
          IDoAtm=111111
          Differentiating once with respect to electric field.
                with respect to dipole field.
          Differentiating once with respect to nuclear coordinates.
 Keep R1 ints in memory in symmetry-blocked form, NReq=94123726.
          There are    15 degrees of freedom in the 1st order CPHF.  IDoFFX=4 NUNeed=    15.
     15 vectors produced by pass  0 Test12= 2.11D-14 6.67D-09 XBig12= 6.43D+01 6.40D+00.
 AX will form    15 AO Fock derivatives at one time.
     15 vectors produced by pass  1 Test12= 2.11D-14 6.67D-09 XBig12= 1.26D+01 9.39D-01.
     15 vectors produced by pass  2 Test12= 2.11D-14 6.67D-09 XBig12= 2.59D-01 1.45D-01.
     15 vectors produced by pass  3 Test12= 2.11D-14 6.67D-09 XBig12= 2.79D-03 1.19D-02.
     15 vectors produced by pass  4 Test12= 2.11D-14 6.67D-09 XBig12= 1.17D-05 8.20D-04.
     15 vectors produced by pass  5 Test12= 2.11D-14 6.67D-09 XBig12= 4.03D-08 5.81D-05.
     12 vectors produced by pass  6 Test12= 2.11D-14 6.67D-09 XBig12= 1.47D-10 2.53D-06.
      3 vectors produced by pass  7 Test12= 2.11D-14 6.67D-09 XBig12= 2.13D-13 8.71D-08.
 InvSVY:  IOpt=1 It=  1 EMax= 3.55D-15
 Solved reduced A of dimension   105 with    15 vectors.
 Isotropic polarizability for W=    0.000000       47.14 Bohr**3.
 End of Minotr F.D. properties file   721 does not exist.
 End of Minotr F.D. properties file   722 does not exist.
 End of Minotr F.D. properties file   788 does not exist.

 **********************************************************************

            Population analysis using the SCF Density.

 **********************************************************************

 Orbital symmetries:
       Occupied  (B2) (A1) (A1) (A1) (B2) (A1) (B2) (A1) (A2) (B1)
                 (B2) (A1) (A1) (B2) (A1) (A1) (B2) (A1) (B1) (B2)
                 (A1) (A2) (B2) (B1)
       Virtual   (B1) (A1) (B2) (A1) (B2) (A1) (A1) (B1) (B2) (A1)
                 (B1) (B2) (A1) (A1) (B2) (A1) (A2) (B2) (B1) (A1)
                 (A1) (B2) (A2) (B1) (A2) (A1) (B2) (B1) (B2) (A2)
                 (A1) (A1) (B2) (B1) (A1) (B2) (A1) (A1) (B2) (A2)
                 (B2) (B1) (A1) (B2) (A1) (B1) (B1) (A1) (A2) (A1)
                 (B1) (B2) (B2) (A1) (A1) (B2) (A1) (A2) (B1) (A1)
                 (B2) (B1) (A2) (B2) (A1) (B2) (A2) (B2) (B1) (A1)
                 (A1) (A2) (B2) (B1) (A1) (A1) (B2) (A1) (B2) (B1)
                 (A2) (A1) (B2) (B1) (A1) (B1) (B2) (A2) (A1) (A2)
                 (B1) (B2) (B2) (A1) (A1) (A2) (B2) (A1) (B1) (A2)
                 (A2) (A1) (B1) (B2) (A1) (B1) (B2) (A1) (B1) (A2)
                 (B2) (A1) (B1) (A1) (A2) (B2) (B1) (B2) (B2) (A1)
                 (A1) (B1) (A1) (B2) (A2) (A1) (B2) (A1) (A1) (B2)
                 (A1) (B2)
 The electronic state is 1-A1.
 Alpha  occ. eigenvalues -- -101.53544-101.53544 -10.30023 -10.19770  -9.48056
 Alpha  occ. eigenvalues --   -9.48056  -7.24238  -7.24238  -7.23334  -7.23334
 Alpha  occ. eigenvalues --   -7.23296  -7.23296  -0.92798  -0.84740  -0.76366
 Alpha  occ. eigenvalues --   -0.57978  -0.50488  -0.48320  -0.41884  -0.41284
 Alpha  occ. eigenvalues --   -0.35346  -0.34140  -0.32342  -0.27383
 Alpha virt. eigenvalues --   -0.03306  -0.01017   0.02113   0.02878   0.08733
 Alpha virt. eigenvalues --    0.09274   0.17072   0.17112   0.18388   0.21787
 Alpha virt. eigenvalues --    0.24114   0.26193   0.27527   0.30556   0.32373
 Alpha virt. eigenvalues --    0.32641   0.32712   0.34057   0.35593   0.36489
 Alpha virt. eigenvalues --    0.45466   0.45481   0.46113   0.52546   0.55911
 Alpha virt. eigenvalues --    0.58852   0.60080   0.60440   0.65953   0.66497
 Alpha virt. eigenvalues --    0.66696   0.73492   0.74492   0.90180   0.90455
 Alpha virt. eigenvalues --    0.93747   0.97259   0.99541   1.06130   1.08474
 Alpha virt. eigenvalues --    1.09050   1.14211   1.16228   1.23461   1.23825
 Alpha virt. eigenvalues --    1.24998   1.35213   1.46103   1.48313   1.49099
 Alpha virt. eigenvalues --    1.54865   1.72342   1.73837   1.73911   1.82016
 Alpha virt. eigenvalues --    1.84292   2.00835   2.06360   2.07467   2.09322
 Alpha virt. eigenvalues --    2.09861   2.09935   2.10239   2.11966   2.13043
 Alpha virt. eigenvalues --    2.13072   2.17637   2.19174   2.19413   2.22413
 Alpha virt. eigenvalues --    2.27600   2.33078   2.34746   2.34956   2.34981
 Alpha virt. eigenvalues --    2.50195   2.54344   2.68212   2.72199   3.06275
 Alpha virt. eigenvalues --    3.12994   3.18571   3.31054   3.31445   3.37735
 Alpha virt. eigenvalues --    3.40269   3.45393   3.46095   3.50379   3.51270
 Alpha virt. eigenvalues --    3.54535   3.55317   3.60700   3.65979   3.73475
 Alpha virt. eigenvalues --    3.81230   3.82861   3.88950   3.94881   4.01501
 Alpha virt. eigenvalues --    4.07700   4.08079   4.16154   4.16743   4.24105
 Alpha virt. eigenvalues --    4.27467   4.29963   4.34153   4.43784   4.44865
 Alpha virt. eigenvalues --    4.45654   4.48727   4.50761   4.54855   4.56656
 Alpha virt. eigenvalues --    4.62143   4.88537   4.91413   5.11208   5.15391
 Alpha virt. eigenvalues --    5.17869   5.35467   5.46720   5.49036   5.60740
 Alpha virt. eigenvalues --    5.74976   5.88715   5.96770   6.06723   6.44936
 Alpha virt. eigenvalues --   32.77339  33.40128
          Condensed to atoms (all electrons):
               1          2          3          4          5          6
     1  C    4.849007   0.557442   0.426147   0.426147  -0.085774  -0.085774
     2  C    0.557442   4.820000  -0.045108  -0.045108   0.319929   0.319929
     3  H    0.426147  -0.045108   0.554341  -0.019770  -0.005055   0.007674
     4  H    0.426147  -0.045108  -0.019770   0.554341   0.007674  -0.005055
     5  Cl  -0.085774   0.319929  -0.005055   0.007674  16.921130  -0.083273
     6  Cl  -0.085774   0.319929   0.007674  -0.005055  -0.083273  16.921130
 Mulliken charges:
               1
     1  C   -0.087195
     2  C    0.072916
     3  H    0.081771
     4  H    0.081771
     5  Cl  -0.074631
     6  Cl  -0.074631
 Sum of Mulliken charges =  -0.00000
 Mulliken charges with hydrogens summed into heavy atoms:
               1
     1  C    0.076346
     2  C    0.072916
     5  Cl  -0.074631
     6  Cl  -0.074631
 APT charges:
               1
     1  C   -0.310183
     2  C    0.750778
     3  H    0.078435
     4  H    0.078435
     5  Cl  -0.298732
     6  Cl  -0.298732
 Sum of APT charges =  -0.00000
 APT charges with hydrogens summed into heavy atoms:
               1
     1  C   -0.153314
     2  C    0.750778
     5  Cl  -0.298732
     6  Cl  -0.298732
 Electronic spatial extent (au):  <R**2>=            484.7920
 Charge=             -0.0000 electrons
 Dipole moment (field-independent basis, Debye):
    X=              0.0000    Y=              0.0000    Z=              1.3638  Tot=              1.3638
 Quadrupole moment (field-independent basis, Debye-Ang):
   XX=            -38.7019   YY=            -36.6191   ZZ=            -34.2301
   XY=             -0.0000   XZ=             -0.0000   YZ=              0.0000
 Traceless Quadrupole moment (field-independent basis, Debye-Ang):
   XX=             -2.1848   YY=             -0.1021   ZZ=              2.2870
   XY=             -0.0000   XZ=             -0.0000   YZ=              0.0000
 Octapole moment (field-independent basis, Debye-Ang**2):
  XXX=              0.0000  YYY=              0.0000  ZZZ=              2.3940  XYY=              0.0000
  XXY=              0.0000  XXZ=             -3.2856  XZZ=              0.0000  YZZ=             -0.0000
  YYZ=             -2.6665  XYZ=              0.0000
 Hexadecapole moment (field-independent basis, Debye-Ang**3):
 XXXX=            -45.1444 YYYY=           -353.1717 ZZZZ=           -211.4453 XXXY=             -0.0000
 XXXZ=             -0.0000 YYYX=             -0.0000 YYYZ=              0.0000 ZZZX=             -0.0000
 ZZZY=              0.0000 XXYY=            -70.7248 XXZZ=            -49.4480 YYZZ=            -88.1319
 XXYZ=              0.0000 YYXZ=             -0.0000 ZZXY=             -0.0000
 N-N= 1.895708561599D+02 E-N=-2.748260839172D+03  KE= 9.967741854234D+02
 Symmetry A1   KE= 4.845713484442D+02
 Symmetry A2   KE= 4.623081046012D+01
 Symmetry B1   KE= 4.815082250032D+01
 Symmetry B2   KE= 4.178212040188D+02
  Exact polarizability:  29.221   0.000  54.545   0.000   0.000  57.653
 Approx polarizability:  44.078   0.000  80.335   0.000   0.000  91.349
 Calling FoFJK, ICntrl=    100127 FMM=F ISym2X=1 I1Cent= 0 IOpClX= 0 NMat=1 NMatS=1 NMatT=0.
 Full mass-weighted force constant matrix:
 Low frequencies ---  -11.8896   -6.6859   -3.1725   -0.0023    0.0032    0.0054
 Low frequencies ---  297.6324  379.1198  476.6133
 Diagonal vibrational polarizability:
        2.3814409       7.0874703       2.1167110
 Harmonic frequencies (cm**-1), IR intensities (KM/Mole), Raman scattering
 activities (A**4/AMU), depolarization ratios for plane and unpolarized
 incident light, reduced masses (AMU), force constants (mDyne/A),
 and normal coordinates:
                      1                      2                      3
                     A1                     B2                     B1
 Frequencies --    297.6324               379.1198               476.6132
 Red. masses --     19.0123                 2.9764                 6.2245
 Frc consts  --      0.9923                 0.2521                 0.8331
 IR Inten    --      0.0035                 0.2843                 6.9103
  Atom  AN      X      Y      Z        X      Y      Z        X      Y      Z
     1   6    -0.00   0.00  -0.38     0.00   0.29   0.00    -0.16  -0.00   0.00
     2   6     0.00  -0.00  -0.37     0.00  -0.08   0.00     0.65   0.00   0.00
     3   1    -0.00  -0.00  -0.38    -0.00   0.53  -0.40    -0.52  -0.00   0.00
     4   1     0.00   0.00  -0.38    -0.00   0.53   0.40    -0.52  -0.00   0.00
     5  17    -0.00   0.45   0.14    -0.00  -0.05   0.11    -0.07   0.00  -0.00
     6  17    -0.00  -0.45   0.14    -0.00  -0.05  -0.11    -0.07  -0.00  -0.00
                      4                      5                      6
                     A1                     A2                     B2
 Frequencies --    597.3339               695.8311               766.6969
 Red. masses --      9.1471                 1.0193                 3.4257
 Frc consts  --      1.9229                 0.2908                 1.1865
 IR Inten    --     16.7237                 0.0000               107.3533
  Atom  AN      X      Y      Z        X      Y      Z        X      Y      Z
     1   6     0.00   0.00   0.47    -0.00  -0.00  -0.00    -0.00   0.12  -0.00
     2   6    -0.00   0.00   0.38     0.00  -0.00  -0.00     0.00   0.39  -0.00
     3   1     0.00  -0.01   0.51     0.71   0.00  -0.00     0.00  -0.23   0.60
     4   1    -0.00   0.01   0.51    -0.71  -0.00   0.00    -0.00  -0.23  -0.60
     5  17     0.00   0.18  -0.16    -0.01  -0.00   0.00    -0.00  -0.08   0.05
     6  17     0.00  -0.18  -0.16     0.01   0.00   0.00     0.00  -0.08  -0.05
                      7                      8                      9
                     B1                     B2                     A1
 Frequencies --    906.4108              1097.2030              1407.2327
 Red. masses --      1.3451                 1.8944                 1.1733
 Frc consts  --      0.6511                 1.3437                 1.3690
 IR Inten    --     47.7109                94.8057                 0.3004
  Atom  AN      X      Y      Z        X      Y      Z        X      Y      Z
     1   6    -0.17   0.00   0.00    -0.00  -0.17   0.00    -0.00  -0.00   0.00
     2   6     0.05  -0.00   0.00    -0.00   0.22   0.00     0.00   0.00  -0.12
     3   1     0.70   0.00  -0.00     0.00   0.22  -0.64     0.00  -0.34   0.61
     4   1     0.70   0.00  -0.00     0.00   0.22   0.64     0.00   0.34   0.61
     5  17    -0.00   0.00  -0.00     0.00  -0.01   0.00     0.00  -0.00   0.00
     6  17    -0.00   0.00   0.00     0.00  -0.01  -0.00    -0.00   0.00   0.00
                     10                     11                     12
                     A1                     A1                     B2
 Frequencies --   1661.5689              3173.4067              3267.2072
 Red. masses --      5.3399                 1.0589                 1.1186
 Frc consts  --      8.6861                 6.2830                 7.0350
 IR Inten    --     86.6820                 1.9812                 0.0710
  Atom  AN      X      Y      Z        X      Y      Z        X      Y      Z
     1   6     0.00   0.00  -0.44    -0.00   0.00  -0.07     0.00  -0.10   0.00
     2   6    -0.00  -0.00   0.44    -0.00  -0.00   0.01     0.00  -0.00   0.00
     3   1     0.00  -0.48   0.27    -0.00   0.61   0.35    -0.00   0.60   0.36
     4   1    -0.00   0.48   0.27     0.00  -0.61   0.35    -0.00   0.60  -0.36
     5  17    -0.00   0.01  -0.01     0.00  -0.00   0.00    -0.00   0.00  -0.00
     6  17     0.00  -0.01  -0.01    -0.00   0.00   0.00     0.00   0.00   0.00

 -------------------
 - Thermochemistry -
 -------------------
 Temperature   298.150 Kelvin.  Pressure   1.00000 Atm.
 Atom     1 has atomic number  6 and mass  12.00000
 Atom     2 has atomic number  6 and mass  12.00000
 Atom     3 has atomic number  1 and mass   1.00783
 Atom     4 has atomic number  1 and mass   1.00783
 Atom     5 has atomic number 17 and mass  34.96885
 Atom     6 has atomic number 17 and mass  34.96885
 Molecular mass:    95.95336 amu.
 Principal axes and moments of inertia in atomic units:
                           1         2         3
     Eigenvalues --   241.95507 536.74587 778.70094
           X            0.00000   0.00000   1.00000
           Y            1.00000   0.00000   0.00000
           Z            0.00000   1.00000   0.00000
 This molecule is an asymmetric top.
 Rotational symmetry number  2.
 Rotational temperatures (Kelvin)      0.35798     0.16137     0.11123
 Rotational constants (GHZ):           7.45899     3.36238     2.31763
 Zero-point vibrational energy      88082.6 (Joules/Mol)
                                   21.05224 (Kcal/Mol)
 Warning -- explicit consideration of   4 degrees of freedom as
           vibrations may cause significant error
 Vibrational temperatures:    428.23   545.47   685.74   859.43  1001.15
          (Kelvin)           1103.11  1304.12  1578.63  2024.69  2390.63
                             4565.82  4700.78
 
 Zero-point correction=                           0.033549 (Hartree/Particle)
 Thermal correction to Energy=                    0.037829
 Thermal correction to Enthalpy=                  0.038773
 Thermal correction to Gibbs Free Energy=         0.006107
 Sum of electronic and zero-point Energies=           -997.858571
 Sum of electronic and thermal Energies=              -997.854291
 Sum of electronic and thermal Enthalpies=            -997.853347
 Sum of electronic and thermal Free Energies=         -997.886012
 
                     E (Thermal)             CV                S
                      KCal/Mol        Cal/Mol-Kelvin    Cal/Mol-Kelvin
 Total                   23.738             13.957             68.750
 Electronic               0.000              0.000              0.000
 Translational            0.889              2.981             39.595
 Rotational               0.889              2.981             24.739
 Vibrational             21.960              7.996              4.416
 Vibration     1          0.691              1.678              1.430
 Vibration     2          0.749              1.515              1.043
 Vibration     3          0.833              1.302              0.719
 Vibration     4          0.955              1.037              0.454
                       Q            Log10(Q)             Ln(Q)
 Total Bot       0.155168D-02         -2.809199         -6.468420
 Total V=0       0.418988D+13         12.622201         29.063692
 Vib (Bot)       0.737911D-15        -15.131996        -34.842708
 Vib (Bot)    1  0.639813D+00         -0.193947         -0.446579
 Vib (Bot)    2  0.477202D+00         -0.321298         -0.739816
 Vib (Bot)    3  0.351923D+00         -0.453552         -1.044342
 Vib (Bot)    4  0.250662D+00         -0.600912         -1.383651
 Vib (V=0)       0.199253D+01          0.299404          0.689404
 Vib (V=0)    1  0.131201D+01          0.117937          0.271561
 Vib (V=0)    2  0.119117D+01          0.075975          0.174939
 Vib (V=0)    3  0.111143D+01          0.045883          0.105650
 Vib (V=0)    4  0.105931D+01          0.025024          0.057621
 Electronic      0.100000D+01          0.000000          0.000000
 Translational   0.369440D+08          7.567544         17.424914
 Rotational      0.569184D+05          4.755253         10.949374
 ***** Axes restored to original set *****
 -------------------------------------------------------------------
 Center     Atomic                   Forces (Hartrees/Bohr)
 Number     Number              X              Y              Z
 -------------------------------------------------------------------
      1        6          -0.000000000   -0.000000000    0.000296577
      2        6          -0.000000000    0.000000000   -0.000209076
      3        1          -0.000000000    0.000044142    0.000029519
      4        1           0.000000000   -0.000044142    0.000029519
      5       17          -0.000000000    0.000010997   -0.000073270
      6       17           0.000000000   -0.000010997   -0.000073270
 -------------------------------------------------------------------
 Cartesian Forces:  Max     0.000296577 RMS     0.000090765
 FormGI is forming the generalized inverse of G from B-inverse, IUseBI=4.

 GradGradGradGradGradGradGradGradGradGradGradGradGradGradGradGradGradGrad
 Berny optimization.
 Internal  Forces:  Max     0.000355615 RMS     0.000102972
 Search for a local minimum.
 Step number   1 out of a maximum of    2
 All quantities printed in internal units (Hartrees-Bohrs-Radians)
 Second derivative matrix not updated -- analytic derivatives used.
 The second derivative matrix:
                          R1        R2        R3        R4        R5
           R1           0.61985
           R2           0.00406   0.36576
           R3           0.00406   0.00137   0.36576
           R4           0.02807  -0.00057  -0.00044   0.22996
           R5           0.02807  -0.00044  -0.00057   0.02931   0.22996
           A1           0.01140   0.00593  -0.01051  -0.00308   0.00512
           A2           0.01140  -0.01051   0.00593   0.00512  -0.00308
           A3          -0.02281   0.00457   0.00457  -0.00204  -0.00204
           A4           0.01321  -0.00557   0.00555   0.02819  -0.04319
           A5           0.01321   0.00555  -0.00557  -0.04319   0.02819
           A6          -0.02642   0.00002   0.00002   0.01499   0.01499
           D1          -0.00000   0.00000   0.00000  -0.00000  -0.00000
           D2           0.00000   0.00000   0.00000   0.00000  -0.00000
           D3           0.00000   0.00000   0.00000  -0.00000   0.00000
           D4           0.00000   0.00000   0.00000  -0.00000  -0.00000
                          A1        A2        A3        A4        A5
           A1           0.07571
           A2          -0.04176   0.07571
           A3          -0.03395  -0.03395   0.06790
           A4          -0.00457   0.00628  -0.00171   0.13703
           A5           0.00628  -0.00457  -0.00171  -0.06428   0.13703
           A6          -0.00171  -0.00171   0.00343  -0.07274  -0.07274
           D1          -0.00000   0.00000   0.00000   0.00000   0.00000
           D2          -0.00000   0.00000   0.00000   0.00000  -0.00000
           D3          -0.00000   0.00000  -0.00000   0.00000   0.00000
           D4          -0.00000   0.00000  -0.00000  -0.00000  -0.00000
                          A6        D1        D2        D3        D4
           A6           0.14549
           D1          -0.00000   0.02755
           D2           0.00000   0.00104   0.03487
           D3          -0.00000   0.01305  -0.02078   0.03487
           D4           0.00000  -0.01346   0.01305   0.00104   0.02755
 ITU=  0
     Eigenvalues ---    0.02819   0.03427   0.06240   0.09997   0.11519
     Eigenvalues ---    0.12947   0.20052   0.27062   0.27260   0.36658
     Eigenvalues ---    0.36730   0.62793
 Angle between quadratic step and forces=  28.36 degrees.
 Linear search not attempted -- first point.
 Iteration  1 RMS(Cart)=  0.00039772 RMS(Int)=  0.00000004
 Iteration  2 RMS(Cart)=  0.00000005 RMS(Int)=  0.00000000
 ClnCor:  largest displacement from symmetrization is 2.12D-11 for atom     4.
 Variable       Old X    -DE/DX   Delta X   Delta X   Delta X     New X
                                 (Linear)    (Quad)   (Total)
    R1        2.49728   0.00036   0.00000   0.00053   0.00053   2.49781
    R2        2.03877   0.00005   0.00000   0.00014   0.00014   2.03891
    R3        2.03877   0.00005   0.00000   0.00014   0.00014   2.03891
    R4        3.27929   0.00005   0.00000   0.00018   0.00018   3.27947
    R5        3.27929   0.00005   0.00000   0.00018   0.00018   3.27947
    A1        2.10333   0.00000   0.00000  -0.00005  -0.00005   2.10328
    A2        2.10333   0.00000   0.00000  -0.00005  -0.00005   2.10328
    A3        2.07653  -0.00000   0.00000   0.00010   0.00010   2.07663
    A4        2.14453   0.00006   0.00000   0.00026   0.00026   2.14479
    A5        2.14453   0.00006   0.00000   0.00026   0.00026   2.14479
    A6        1.99413  -0.00012   0.00000  -0.00052  -0.00052   1.99361
    D1       -0.00000   0.00000   0.00000   0.00000   0.00000   0.00000
    D2        3.14159  -0.00000   0.00000  -0.00000   0.00000   3.14159
    D3        3.14159   0.00000   0.00000   0.00000   0.00000   3.14159
    D4        0.00000  -0.00000   0.00000  -0.00000   0.00000   0.00000
         Item               Value     Threshold  Converged?
 Maximum Force            0.000356     0.000450     YES
 RMS     Force            0.000103     0.000300     YES
 Maximum Displacement     0.000800     0.001800     YES
 RMS     Displacement     0.000398     0.001200     YES
 Predicted change in Energy=-1.569537D-07
 Optimization completed.
    -- Stationary point found.
                           ----------------------------
                           !   Optimized Parameters   !
                           ! (Angstroms and Degrees)  !
 --------------------------                            --------------------------
 ! Name  Definition              Value          Derivative Info.                !
 --------------------------------------------------------------------------------
 ! R1    R(1,2)                  1.3215         -DE/DX =    0.0004              !
 ! R2    R(1,3)                  1.0789         -DE/DX =    0.0001              !
 ! R3    R(1,4)                  1.0789         -DE/DX =    0.0001              !
 ! R4    R(2,5)                  1.7353         -DE/DX =    0.0                 !
 ! R5    R(2,6)                  1.7353         -DE/DX =    0.0                 !
 ! A1    A(2,1,3)              120.5117         -DE/DX =    0.0                 !
 ! A2    A(2,1,4)              120.5117         -DE/DX =    0.0                 !
 ! A3    A(3,1,4)              118.9766         -DE/DX =    0.0                 !
 ! A4    A(1,2,5)              122.8724         -DE/DX =    0.0001              !
 ! A5    A(1,2,6)              122.8724         -DE/DX =    0.0001              !
 ! A6    A(5,2,6)              114.2551         -DE/DX =   -0.0001              !
 ! D1    D(3,1,2,5)              0.0            -DE/DX =    0.0                 !
 ! D2    D(3,1,2,6)            180.0            -DE/DX =    0.0                 !
 ! D3    D(4,1,2,5)            180.0            -DE/DX =    0.0                 !
 ! D4    D(4,1,2,6)              0.0            -DE/DX =    0.0                 !
 --------------------------------------------------------------------------------
 GradGradGradGradGradGradGradGradGradGradGradGradGradGradGradGradGradGrad


 ----------------------------------------------------------------------

 Electric dipole moment (input orientation):
 (Debye = 10**-18 statcoulomb cm , SI units = C m)
                  (au)            (Debye)         (10**-30 SI)
   Tot        0.536556D+00      0.136379D+01      0.454911D+01
[...]
      5         17           0        0.000000    1.457469   -0.517791
      6         17           0       -0.000000   -1.457469   -0.517791
 ---------------------------------------------------------------------
                    Distance matrix (angstroms):
                    1          2          3          4          5
     1  C    0.000000
     2  C    1.321506   0.000000
     3  H    1.078871   2.087600   0.000000
     4  H    1.078871   2.087600   1.858950   0.000000
     5  Cl   2.692054   1.735328   2.860304   3.687826   0.000000
     6  Cl   2.692054   1.735328   3.687826   2.860304   2.914938
                    6
     6  Cl   0.000000
 Stoichiometry    C2H2Cl2
 Framework group  C2V[C2(CC),SGV(H2Cl2)]
 Deg. of freedom     5
 Full point group                 C2V     NOp   4
 Largest Abelian subgroup         C2V     NOp   4
 Largest concise Abelian subgroup C2      NOp   2
                         Standard orientation:                         
 ---------------------------------------------------------------------
 Center     Atomic      Atomic             Coordinates (Angstroms)
 Number     Number       Type             X           Y           Z
 ---------------------------------------------------------------------
      1          6           0        0.000000    0.000000    1.745600
      2          6           0        0.000000    0.000000    0.424094
      3          1           0        0.000000    0.929475    2.293358
      4          1           0       -0.000000   -0.929475    2.293358
      5         17           0        0.000000    1.457469   -0.517791
      6         17           0       -0.000000   -1.457469   -0.517791
 ---------------------------------------------------------------------
 Rotational constants (GHZ):           7.4589932           3.3623756           2.3176307
 General basis read from cards:  (5D, 7F)
 There are   117 symmetry adapted cartesian basis functions of A1  symmetry.
 There are    38 symmetry adapted cartesian basis functions of A2  symmetry.
 There are    58 symmetry adapted cartesian basis functions of B1  symmetry.
 There are    93 symmetry adapted cartesian basis functions of B2  symmetry.
 There are    98 symmetry adapted basis functions of A1  symmetry.
 There are    36 symmetry adapted basis functions of A2  symmetry.
 There are    52 symmetry adapted basis functions of B1  symmetry.
 There are    80 symmetry adapted basis functions of B2  symmetry.
   266 basis functions,   456 primitive gaussians,   306 cartesian basis functions
    24 alpha electrons       24 beta electrons
       nuclear repulsion energy       189.5708561599 Hartrees.
 NAtoms=    6 NActive=    6 NUniq=    4 SFac= 2.25D+00 NAtFMM=   60 NAOKFM=F Big=F
 Integral buffers will be    131072 words long.
 Raffenetti 2 integral format.
 Two-electron integral symmetry is turned on.
 One-electron integrals computed using PRISM.
 NBasis=   266 RedAO= T EigKep=  7.82D-05  NBF=    98    36    52    80
 NBsUse=   266 1.00D-06 EigRej= -1.00D+00 NBFU=    98    36    52    80
 Initial guess from the checkpoint file:  "ch2ccl2.chk"
 B after Tr=    -0.000000    0.000000    0.000000
         Rot=    1.000000    0.000000    0.000000    0.000000 Ang=   0.00 deg.
 Initial guess orbital symmetries:
       Occupied  (B2) (A1) (A1) (A1) (B2) (A1) (B2) (A1) (A2) (B1)
                 (B2) (A1) (A1) (B2) (A1) (A1) (B2) (A1) (B1) (B2)
                 (A1) (A2) (B2) (B1)
       Virtual   (B1) (A1) (B2) (A1) (B2) (A1) (A1) (B1) (B2) (A1)
                 (B1) (B2) (A1) (A1) (B2) (A1) (A2) (B2) (B1) (A1)
                 (A1) (B2) (A2) (B1) (A2) (A1) (B2) (B1) (B2) (A2)
                 (A1) (A1) (B2) (B1) (A1) (B2) (A1) (A1) (B2) (A2)
                 (B2) (B1) (A1) (B2) (A1) (B1) (B1) (A1) (A2) (A1)
                 (B1) (B2) (B2) (A1) (A1) (B2) (A1) (A2) (B1) (A1)
                 (B2) (B1) (A2) (B2) (A1) (B2) (A2) (B2) (B1) (A1)
                 (A1) (A2) (B2) (B1) (A1) (A1) (B2) (A1) (B2) (B1)
                 (A2) (A1) (B2) (B1) (A1) (B1) (B2) (A2) (A1) (A2)
                 (B1) (B2) (B2) (A1) (A1) (A2) (B2) (A1) (B1) (A2)
                 (A2) (A1) (B1) (B2) (A1) (B1) (B2) (A1) (B1) (A2)
                 (B2) (A1) (B1) (A1) (A2) (B2) (B1) (B2) (B2) (A1)
                 (A1) (B1) (A1) (B2) (A2) (A1) (B2) (A1) (A1) (B2)
                 (A1) (B2) (A1) (A1) (A1) (A1) (A1) (A1) (A1) (A1)
                 (A1) (A1) (A1) (A1) (A1) (A1) (A1) (A1) (A1) (A1)
                 (A1) (A1) (A1) (A1) (A1) (A1) (A1) (A1) (A1) (A1)
                 (A1) (A1) (A1) (A1) (A1) (A1) (A1) (A1) (A1) (A1)
                 (A1) (A2) (A2) (A2) (A2) (A2) (A2) (A2) (A2) (A2)
                 (A2) (A2) (A2) (A2) (A2) (A2) (B1) (B1) (B1) (B1)
                 (B1) (B1) (B1) (B1) (B1) (B1) (B1) (B1) (B1) (B1)
                 (B1) (B1) (B1) (B1) (B1) (B1) (B1) (B1) (B1) (B2)
                 (B2) (B2) (B2) (B2) (B2) (B2) (B2) (B2) (B2) (B2)
                 (B2) (B2) (B2) (B2) (B2) (B2) (B2) (B2) (B2) (B2)
                 (B2) (B2) (B2) (B2) (B2) (B2) (B2) (B2) (B2) (B2)
                 (B2) (B2)
 Requested convergence on RMS density matrix=1.00D-08 within 128 cycles.
 Requested convergence on MAX density matrix=1.00D-06.
 Requested convergence on             energy=1.00D-06.
 No special actions if energy rises.
 SCF Done:  E(ROHF) =  -995.944337448     A.U. after   12 cycles
            NFock= 12  Conv=0.30D-08     -V/T= 2.0001
 <Sx>= 0.0000 <Sy>= 0.0000 <Sz>= 0.0000 <S**2>=-0.0000 S=-0.0000
 <L.S>=  0.00000000000    
 Annihilation of the first spin contaminant:
 S**2 before annihilation    -0.0000,   after    -0.0000

 **********************************************************************

            Population analysis using the SCF Density.

 **********************************************************************

 Orbital symmetries:
       Occupied  (B2) (A1) (A1) (A1) (B2) (A1) (B2) (A1) (B2) (A1)
                 (A2) (B1) (A1) (B2) (A1) (A1) (B2) (A1) (B1) (B2)
                 (A1) (A2) (B2) (B1)
       Virtual   (A1) (A1) (B2) (B1) (B2) (A1) (B1) (A1) (A2) (B1)
                 (B2) (A1) (B2) (B1) (A1) (A1) (B2) (A1) (B2) (A1)
                 (B2) (A1) (A2) (A1) (B2) (B1) (A1) (B1) (A1) (B2)
                 (A1) (A2) (B1) (B2) (A1) (B1) (A2) (B2) (A1) (B2)
                 (A2) (B1) (A1) (B2) (A1) (A1) (B2) (B1) (B2) (A1)
                 (B2) (A1) (A2) (A1) (B1) (B2) (A1) (B2) (A1) (B2)
                 (A1) (B1) (A2) (A1) (B1) (A2) (A1) (A1) (B2) (B2)
                 (B1) (A2) (A1) (B2) (A2) (B1) (A1) (B1) (B2) (B2)
                 (A1) (B1) (B2) (B1) (A1) (A2) (A1) (B2) (A1) (B1)
                 (A2) (A2) (A1) (B1) (B2) (B2) (A1) (B1) (B2) (A2)
                 (A1) (A1) (B2) (A1) (B2) (A1) (B1) (A2) (B2) (B1)
                 (A2) (A1) (B2) (B1) (A1) (A2) (B2) (B1) (A1) (B2)
                 (B1) (B2) (A1) (A1) (B1) (B2) (A2) (A1) (B2) (A2)
                 (A1) (A1) (B2) (B1) (A1) (B2) (B2) (A1) (A2) (B1)
                 (A1) (B2) (B1) (A1) (B2) (A1) (A2) (B1) (B2) (A2)
                 (A1) (B2) (A1) (A2) (B1) (A1) (B2) (B2) (A1) (A1)
                 (B2) (A1) (B1) (A2) (A1) (B1) (B2) (B1) (A2) (B1)
                 (A1) (B2) (B2) (B2) (A2) (A1) (B1) (A1) (A2) (B1)
                 (A1) (B1) (B2) (A1) (B2) (B2) (A2) (B2) (A1) (A1)
                 (B1) (A2) (B1) (A1) (B2) (A1) (B1) (B2) (B2) (A1)
                 (B2) (B2) (A1) (A1) (A2) (B1) (A2) (B1) (A1) (A1)
                 (B2) (A1) (B2) (A1) (B2) (A1) (B1) (B1) (B2) (A1)
                 (B2) (A1) (B1) (A2) (A1) (B2) (B1) (A2) (A1) (B2)
                 (A1) (B2) (A1) (A1) (A1) (B2) (B1) (A2) (A1) (B2)
                 (B2) (A1)
 The electronic state is 1-A1.
 Alpha  occ. eigenvalues -- -104.86022-104.86022 -11.36716 -11.25971 -10.58515
 Alpha  occ. eigenvalues --  -10.58514  -8.05215  -8.05215  -8.05044  -8.05044
 Alpha  occ. eigenvalues --   -8.05037  -8.05037  -1.21331  -1.11001  -1.02272
 Alpha  occ. eigenvalues --   -0.77061  -0.66455  -0.64347  -0.56431  -0.54886
 Alpha  occ. eigenvalues --   -0.49174  -0.47784  -0.45622  -0.37602
 Alpha virt. eigenvalues --    0.04655   0.06001   0.06475   0.06766   0.08107
 Alpha virt. eigenvalues --    0.10908   0.10961   0.11238   0.12034   0.13377
 Alpha virt. eigenvalues --    0.13940   0.14861   0.15209   0.15842   0.17264
 Alpha virt. eigenvalues --    0.17678   0.21067   0.22913   0.25302   0.27133
 Alpha virt. eigenvalues --    0.29254   0.32790   0.39361   0.39639   0.40916
 Alpha virt. eigenvalues --    0.42078   0.42601   0.44694   0.46404   0.46858
 Alpha virt. eigenvalues --    0.47170   0.47595   0.47849   0.48864   0.50838
 Alpha virt. eigenvalues --    0.51869   0.52872   0.54708   0.55889   0.57721
 Alpha virt. eigenvalues --    0.58780   0.60086   0.61831   0.63203   0.65077
 Alpha virt. eigenvalues --    0.68191   0.70002   0.75082   0.78302   0.79169
 Alpha virt. eigenvalues --    0.82392   0.89492   0.90920   0.90952   0.92254
 Alpha virt. eigenvalues --    0.93727   1.00264   1.05958   1.06995   1.07315
 Alpha virt. eigenvalues --    1.10467   1.11073   1.18234   1.22067   1.24147
 Alpha virt. eigenvalues --    1.26408   1.26512   1.30017   1.30045   1.31357
 Alpha virt. eigenvalues --    1.32163   1.34164   1.37035   1.38137   1.41935
 Alpha virt. eigenvalues --    1.42964   1.43329   1.45086   1.46092   1.49916
 Alpha virt. eigenvalues --    1.50540   1.50671   1.55390   1.55713   1.58020
 Alpha virt. eigenvalues --    1.60200   1.61667   1.62314   1.64089   1.65501
 Alpha virt. eigenvalues --    1.66704   1.71430   1.72645   1.72746   1.73603
 Alpha virt. eigenvalues --    1.74544   1.78372   1.81007   1.82861   1.84525
 Alpha virt. eigenvalues --    1.86609   1.89024   1.90066   1.95401   1.95466
 Alpha virt. eigenvalues --    1.97429   2.01369   2.02170   2.05831   2.14764
 Alpha virt. eigenvalues --    2.15038   2.19664   2.21755   2.27087   2.29935
 Alpha virt. eigenvalues --    2.31443   2.31940   2.36395   2.38709   2.42681
 Alpha virt. eigenvalues --    2.43609   2.47178   2.48231   2.52976   2.57601
 Alpha virt. eigenvalues --    2.60840   2.62934   2.67630   2.72256   2.83104
 Alpha virt. eigenvalues --    2.89528   2.91227   2.91422   2.92320   3.02370
 Alpha virt. eigenvalues --    3.09937   3.21629   3.26223   3.26896   3.29913
 Alpha virt. eigenvalues --    3.31329   3.40129   3.45714   3.47913   3.50432
 Alpha virt. eigenvalues --    3.51562   3.52474   3.53002   3.55940   3.58888
 Alpha virt. eigenvalues --    3.59979   3.61474   3.62629   3.62911   3.63078
 Alpha virt. eigenvalues --    3.69940   3.82548   3.86493   3.87255   3.90461
 Alpha virt. eigenvalues --    4.05171   4.24796   4.51238   4.64157   4.70030
 Alpha virt. eigenvalues --    4.73406   4.76218   4.80168   4.86594   4.91004
 Alpha virt. eigenvalues --    4.91314   4.95908   4.97264   5.00896   5.02245
 Alpha virt. eigenvalues --    5.02297   5.07651   5.13103   5.25465   5.27759
 Alpha virt. eigenvalues --    5.30903   5.38594   5.48692   5.54050   5.61379
 Alpha virt. eigenvalues --    5.82791   5.84266   5.88484   5.93626   5.97864
 Alpha virt. eigenvalues --    6.00609   6.08250   6.09828   6.12544   6.24851
 Alpha virt. eigenvalues --    6.30721   6.33776   6.36968   6.73217   6.79311
 Alpha virt. eigenvalues --    6.90680   7.18745   7.21091   7.69369   7.95676
 Alpha virt. eigenvalues --    8.04080   8.19608   8.38108   8.43099   8.51926
 Alpha virt. eigenvalues --    8.82809   8.97920   9.01663   9.40527   9.53752
 Alpha virt. eigenvalues --    9.61744  20.57264  20.98425  21.21723  21.46518
 Alpha virt. eigenvalues --   21.73105  22.05047  22.14578  22.16304  22.17449
 Alpha virt. eigenvalues --   22.20256  22.23441  22.23461  22.31139  22.39326
 Alpha virt. eigenvalues --   22.43567  22.44848  23.13074  23.91805  24.59669
 Alpha virt. eigenvalues --   24.73736  28.38996  28.39663  28.45038  28.47870
 Alpha virt. eigenvalues --   28.80159  28.90956
          Condensed to atoms (all electrons):
               1          2          3          4          5          6
     1  C    4.984504   0.577100   0.436988   0.436988  -0.080966  -0.080966
     2  C    0.577100   5.113342  -0.042541  -0.042541   0.238479   0.238479
     3  H    0.436988  -0.042541   0.452025  -0.010451   0.001395   0.002098
     4  H    0.436988  -0.042541  -0.010451   0.452025   0.002098   0.001395
     5  Cl  -0.080966   0.238479   0.001395   0.002098  16.876057  -0.054560
     6  Cl  -0.080966   0.238479   0.002098   0.001395  -0.054560  16.876057
          Atomic-Atomic Spin Densities.
               1          2          3          4          5          6
     1  C    0.000000   0.000000   0.000000   0.000000   0.000000   0.000000
     2  C    0.000000   0.000000   0.000000   0.000000   0.000000   0.000000
     3  H    0.000000   0.000000   0.000000   0.000000   0.000000   0.000000
     4  H    0.000000   0.000000   0.000000   0.000000   0.000000   0.000000
     5  Cl   0.000000   0.000000   0.000000   0.000000   0.000000   0.000000
     6  Cl   0.000000   0.000000   0.000000   0.000000   0.000000   0.000000
 Mulliken charges and spin densities:
               1          2
     1  C   -0.273647   0.000000
     2  C   -0.082318   0.000000
     3  H    0.160486   0.000000
     4  H    0.160486   0.000000
     5  Cl   0.017497   0.000000
     6  Cl   0.017497   0.000000
 Sum of Mulliken charges =  -0.00000   0.00000
 Mulliken charges and spin densities with hydrogens summed into heavy atoms:
               1          2
     1  C    0.047325   0.000000
     2  C   -0.082318   0.000000
     5  Cl   0.017497   0.000000
     6  Cl   0.017497   0.000000
 Electronic spatial extent (au):  <R**2>=            484.8740
 Charge=              0.0000 electrons
 Dipole moment (field-independent basis, Debye):
    X=             -0.0000    Y=             -0.0000    Z=              1.6416  Tot=              1.6416
 Quadrupole moment (field-independent basis, Debye-Ang):
   XX=            -38.9427   YY=            -36.9448   ZZ=            -33.7739
   XY=             -0.0000   XZ=             -0.0000   YZ=             -0.0000
 Traceless Quadrupole moment (field-independent basis, Debye-Ang):
   XX=             -2.3889   YY=             -0.3910   ZZ=              2.7799
   XY=             -0.0000   XZ=             -0.0000   YZ=             -0.0000
 Octapole moment (field-independent basis, Debye-Ang**2):
  XXX=              0.0000  YYY=              0.0000  ZZZ=              4.2496  XYY=              0.0000
  XXY=              0.0000  XXZ=             -3.0146  XZZ=              0.0000  YZZ=             -0.0000
  YYZ=             -2.7630  XYZ=              0.0000
 Hexadecapole moment (field-independent basis, Debye-Ang**3):
 XXXX=            -44.7447 YYYY=           -352.6776 ZZZZ=           -206.1517 XXXY=             -0.0000
 XXXZ=             -0.0000 YYYX=             -0.0000 YYYZ=              0.0000 ZZZX=             -0.0000
 ZZZY=              0.0000 XXYY=            -71.2714 XXZZ=            -48.9464 YYZZ=            -86.9230
 XXYZ=             -0.0000 YYXZ=             -0.0000 ZZXY=             -0.0000
 N-N= 1.895708561599D+02 E-N=-2.746516980341D+03  KE= 9.958128741046D+02
 Symmetry A1   KE= 4.845285639814D+02
 Symmetry A2   KE= 4.594359393929D+01
 Symmetry B1   KE= 4.781410480956D+01
 Symmetry B2   KE= 4.175266113743D+02
 Symmetry A1   SP= 0.000000000000D+00
 Symmetry A2   SP= 0.000000000000D+00
 Symmetry B1   SP= 0.000000000000D+00
 Symmetry B2   SP= 0.000000000000D+00
                          Isotropic Fermi Contact Couplings
        Atom                 a.u.       MegaHertz       Gauss      10(-4) cm-1
     1  C(13)              0.00000       0.00000       0.00000       0.00000
     2  C(13)              0.00000       0.00000       0.00000       0.00000
     3  H(1)               0.00000       0.00000       0.00000       0.00000
     4  H(1)               0.00000       0.00000       0.00000       0.00000
     5  Cl(35)             0.00000       0.00000       0.00000       0.00000
     6  Cl(35)             0.00000       0.00000       0.00000       0.00000
 --------------------------------------------------------
       Center         ----  Spin Dipole Couplings  ----
                      3XX-RR        3YY-RR        3ZZ-RR
 --------------------------------------------------------
     1   Atom        0.000000      0.000000      0.000000
     2   Atom        0.000000      0.000000      0.000000
     3   Atom        0.000000      0.000000      0.000000
     4   Atom        0.000000      0.000000      0.000000
     5   Atom        0.000000      0.000000      0.000000
     6   Atom        0.000000      0.000000      0.000000
 --------------------------------------------------------
                        XY            XZ            YZ
 --------------------------------------------------------
     1   Atom        0.000000      0.000000      0.000000
     2   Atom        0.000000      0.000000      0.000000
     3   Atom        0.000000      0.000000      0.000000
     4   Atom        0.000000      0.000000      0.000000
     5   Atom        0.000000      0.000000      0.000000
     6   Atom        0.000000      0.000000      0.000000
 --------------------------------------------------------


 ---------------------------------------------------------------------------------
              Anisotropic Spin Dipole Couplings in Principal Axis System
 ---------------------------------------------------------------------------------

       Atom             a.u.   MegaHertz   Gauss  10(-4) cm-1        Axes

              Baa     0.0000     0.000     0.000     0.000  1.0000  0.0000  0.0000
     1 C(13)  Bbb     0.0000     0.000     0.000     0.000 -0.0000  1.0000  0.0000
              Bcc     0.0000     0.000     0.000     0.000  0.0000  0.0000  1.0000
 
              Baa     0.0000     0.000     0.000     0.000  1.0000  0.0000  0.0000
     2 C(13)  Bbb     0.0000     0.000     0.000     0.000 -0.0000  1.0000  0.0000
              Bcc     0.0000     0.000     0.000     0.000  0.0000  0.0000  1.0000
 
              Baa     0.0000     0.000     0.000     0.000  1.0000  0.0000  0.0000
     3 H(1)   Bbb     0.0000     0.000     0.000     0.000 -0.0000  1.0000  0.0000
              Bcc     0.0000     0.000     0.000     0.000  0.0000  0.0000  1.0000
 
              Baa     0.0000     0.000     0.000     0.000  1.0000  0.0000  0.0000
     4 H(1)   Bbb     0.0000     0.000     0.000     0.000 -0.0000  1.0000  0.0000
              Bcc     0.0000     0.000     0.000     0.000  0.0000  0.0000  1.0000
 
              Baa     0.0000     0.000     0.000     0.000  1.0000  0.0000  0.0000
     5 Cl(35) Bbb     0.0000     0.000     0.000     0.000 -0.0000  1.0000  0.0000
              Bcc     0.0000     0.000     0.000     0.000  0.0000  0.0000  1.0000
 
              Baa     0.0000     0.000     0.000     0.000  1.0000  0.0000  0.0000
     6 Cl(35) Bbb     0.0000     0.000     0.000     0.000 -0.0000  1.0000  0.0000
              Bcc     0.0000     0.000     0.000     0.000  0.0000  0.0000  1.0000
 

 ---------------------------------------------------------------------------------

 1\1\GINC-GAMBA\SP\ROHF\Gen\C2H2Cl2\IRIKURA\30-Sep-2023\0\\# rohf/gen g
 eom=check guess=check\\1,1-dichloroethylene, ROHF/cc-pVTZ-F12\\0,1\C,0
 ,0.,0.,1.7456\C,0,0.,0.,0.424094\H,0,0.,0.929475,2.293358\H,0,0.,-0.92
 9475,2.293358\Cl,0,0.,1.457469,-0.517791\Cl,0,0.,-1.457469,-0.517791\\
 Version=ES64L-G16RevB.01\State=1-A1\HF=-995.9443374\RMSD=2.977e-09\Dip
 ole=0.,0.,0.6458733\Quadrupole=-1.776083,-0.2907088,2.0667918,0.,0.,0.
 \PG=C02V [C2(C1C1),SGV(H2Cl2)]\\@



 IN THIS SHORT LIFE

 THAT ONLY LASTS AN HOUR

 HOW MUCH, HOW LITTLE, IS WITHIN OUR POWER....


 EMILY DICKINSON BOLTS OF MELODY NO. 521
 Job cpu time:       0 days  0 hours  2 minutes 48.9 seconds.
 Elapsed time:       0 days  0 hours  0 minutes 42.3 seconds.
 File lengths (MBytes):  RWF=     55 Int=      0 D2E=      0 Chk=      7 Scr=      1
 Normal termination of Gaussian 16 at Sat Sep 30 11:26:39 2023.
