 Entering Gaussian System, Link 0=g16
 AtFile(1): pcseg2.gbs
            -H     0
            S   4   1.00
                  0.754732D+02           0.427821D-02
                  0.113575D+02           0.328672D-01
                  0.260081D+01           0.159578D+00
                  0.735503D+00           0.500000D+00
            S   1   1.00
                  0.231761D+00           1.0000000
            S   1   1.00
                  0.741675D-01           1.0000000
            P   1   1.00
                  0.160000D+01           1.0000000
            P   1   1.00
                  0.450000D+00           1.0000000
            D   1   1.00
                  0.125000D+01           1.0000000
            ****
            -C     0
            S   7   1.00
                  0.731999D+04           0.695369D-03
                  0.109818D+04           0.537138D-02
                  0.250014D+03           0.274734D-01
                  0.707586D+02           0.105078D+00
                  0.228595D+02           0.291262D+00
                  0.803936D+01           0.500000D+00
                  0.289309D+01           0.362224D+00
            S   2   1.00
                  0.521640D+01          -0.957844D-01
                  0.556124D+00           0.500000D+00
            S   1   1.00
                  0.228813D+00           1.0000000
            S   1   1.00
                  0.936338D-01           1.0000000
            P   4   1.00
                  0.339855D+02           0.818395D-02
                  0.772957D+01           0.586921D-01
                  0.224954D+01           0.222514D+00
                  0.767681D+00           0.500000D+00
            P   1   1.00
                  0.263283D+00           1.0000000
            P   1   1.00
                  0.848744D-01           1.0000000
            D   1   1.00
                  0.140000D+01           1.0000000
            D   1   1.00
                  0.450000D+00           1.0000000
            F   1   1.00
                  0.950000D+00           1.0000000
            ****
            -O     0
            S   7   1.00
                  0.135887D+05           0.665492D-03
                  0.203847D+04           0.514222D-02
                  0.464041D+03           0.263472D-01
                  0.131339D+03           0.101500D+00
                  0.425340D+02           0.285877D+00
                  0.150429D+02           0.500000D+00
                  0.546616D+01           0.368211D+00
            S   2   1.00
                  0.100915D+02          -0.100084D+00
                  0.110429D+01           0.500000D+00
            S   1   1.00
                  0.448082D+00           1.0000000
            S   1   1.00
                  0.175325D+00           1.0000000
            P   4   1.00
                  0.608220D+02           0.908253D-02
                  0.140332D+02           0.645878D-01
                  0.418244D+01           0.241502D+00
                  0.142490D+01           0.500000D+00
            P   1   1.00
                  0.478741D+00           1.0000000
            P   1   1.00
                  0.146257D+00           1.0000000
            D   1   1.00
                  0.220000D+01           1.0000000
            D   1   1.00
                  0.650000D+00           1.0000000
            F   1   1.00
                  0.110000D+01           1.0000000
            ****
            -N     0
            S   7   1.00
                  0.101643D+05           0.682757D-03
                  0.152481D+04           0.527488D-02
                  0.347119D+03           0.270037D-01
                  0.982389D+02           0.103673D+00
                  0.317799D+02           0.289575D+00
                  0.112240D+02           0.500000D+00
                  0.406611D+01           0.364621D+00
            S   2   1.00
                  0.747898D+01          -0.975681D-01
                  0.805040D+00           0.500000D+00
            S   1   1.00
                  0.324626D+00           1.0000000
            S   1   1.00
                  0.128132D+00           1.0000000
            P   4   1.00
                  0.482704D+02           0.829547D-02
                  0.110815D+02           0.596223D-01
                  0.326643D+01           0.227889D+00
                  0.111680D+01           0.500000D+00
            P   1   1.00
                  0.382049D+00           1.0000000
            P   1   1.00
                  0.121222D+00           1.0000000
            D   1   1.00
                  0.180000D+01           1.0000000
            D   1   1.00
                  0.550000D+00           1.0000000
            F   1   1.00
                  0.102000D+01           1.0000000
            ****
            -F     0
            S   7   1.00
                  0.174507D+05           0.655972D-03
                  0.261768D+04           0.506944D-02
                  0.595857D+03           0.259899D-01
                  0.168651D+03           0.100353D+00
                  0.546654D+02           0.284095D+00
                  0.193717D+02           0.500000D+00
                  0.706202D+01           0.370721D+00
            S   2   1.00
                  0.131197D+02          -0.101997D+00
                  0.145046D+01           0.500000D+00
            S   1   1.00
                  0.588255D+00           1.0000000
            S   1   1.00
                  0.227960D+00           1.0000000
            P   4   1.00
                  0.779407D+02           0.931135D-02
                  0.180425D+02           0.663964D-01
                  0.542342D+01           0.246386D+00
                  0.184876D+01           0.500000D+00
            P   1   1.00
                  0.617455D+00           1.0000000
            P   1   1.00
                  0.185496D+00           1.0000000
            D   1   1.00
                  0.280000D+01           1.0000000
            D   1   1.00
                  0.800000D+00           1.0000000
            F   1   1.00
                  0.120000D+01           1.0000000
            ****
            -Cl     0
            S   8   1.00
                  0.154272D+06           0.222473D-03
                  0.231232D+05           0.172590D-02
                  0.526257D+04           0.899286D-02
                  0.148995D+04           0.367724D-01
                  0.485417D+03           0.121446D+00
                  0.174634D+03           0.304148D+00
                  0.672393D+02           0.500000D+00
                  0.265780D+02           0.360252D+00
            S   3   1.00
                  0.131826D+03          -0.531330D-01
                  0.400703D+02          -0.233346D+00
                  0.789448D+01           0.500000D+00
            S   2   1.00
                  0.427711D+01           0.500000D+00
                  0.196233D+01           0.370517D+00
            S   1   1.00
                  0.520793D+00           1.0000000
            S   1   1.00
                  0.181633D+00           1.0000000
            P   7   1.00
                  0.124440D+04           0.988206D-03
                  0.295109D+03           0.829674D-02
                  0.947224D+02           0.430906D-01
                  0.352588D+02           0.148443D+00
                  0.144211D+02           0.344744D+00
                  0.610371D+01           0.500000D+00
                  0.258886D+01           0.348278D+00
            P   2   1.00
                  0.109447D+02          -0.196768D-01
                  0.104413D+01           0.500000D+00
            P   1   1.00
                  0.376184D+00           1.0000000
            P   1   1.00
                  0.120613D+00           1.0000000
            D   1   1.00
                  0.231000D+01           1.0000000
            D   1   1.00
                  0.520000D+00           1.0000000
            F   1   1.00
                  0.720000D+00           1.0000000
            ****
            -S     0
            S   8   1.00
                  0.134700D+06           0.226231D-03
                  0.201904D+05           0.175488D-02
                  0.459528D+04           0.914190D-02
                  0.130109D+04           0.373551D-01
                  0.423902D+03           0.123121D+00
                  0.152485D+03           0.306801D+00
                  0.586925D+02           0.500000D+00
                  0.231461D+02           0.354358D+00
            S   3   1.00
                  0.116327D+03          -0.491772D-01
                  0.352841D+02          -0.215962D+00
                  0.677831D+01           0.500000D+00
            S   2   1.00
                  0.360404D+01           0.500000D+00
                  0.164871D+01           0.366278D+00
            S   1   1.00
                  0.421821D+00           1.0000000
            S   1   1.00
                  0.147554D+00           1.0000000
            P   7   1.00
                  0.104863D+04           0.105273D-02
                  0.248717D+03           0.879338D-02
                  0.797887D+02           0.453358D-01
                  0.296023D+02           0.154476D+00
                  0.120627D+02           0.352366D+00
                  0.507628D+01           0.500000D+00
                  0.213375D+01           0.346429D+00
            P   2   1.00
                  0.928958D+01          -0.185932D-01
                  0.837819D+00           0.500000D+00
            P   1   1.00
                  0.301495D+00           1.0000000
            P   1   1.00
                  0.974740D-01           1.0000000
            D   1   1.00
                  0.210000D+01           1.0000000
            D   1   1.00
                  0.480000D+00           1.0000000
            F   1   1.00
                  0.660000D+00           1.0000000
            ****
            -Br     0
            S    10   1.00
                  0.233625D+07           0.532336D-04
                  0.349961D+06           0.413715D-03
                  0.796444D+05           0.217123D-02
                  0.225555D+05           0.910109D-02
                  0.735546D+04           0.323789D-01
                  0.265352D+04           0.988755D-01
                  0.103517D+04           0.248138D+00
                  0.422205D+03           0.474328D+00
                  0.180035D+03           0.500000D+00
                  0.793308D+02           0.187769D+00
            S    4   1.00
                  0.620834D+03          -0.226511D-01
                  0.190829D+03          -0.109497D+00
                  0.312505D+02           0.500000D+00
                  0.135270D+02           0.492812D+00
            S    2   1.00
                  0.216097D+02          -0.165418D+00
                  0.372566D+01           0.500000D+00
            S    1   1.00
                  0.169770D+01           1.0000000
            S    1   1.00
                  0.489332D+00           1.0000000
            S    1   1.00
                  0.175712D+00           1.0000000
            P    8   1.00
                  0.960829D+04           0.478974D-03
                  0.227618D+04           0.417853D-02
                  0.736723D+03           0.229315D-01
                  0.281579D+03           0.892653D-01
                  0.118395D+03           0.255288D+00
                  0.527481D+02           0.479074D+00
                  0.245098D+02           0.500000D+00
                  0.112009D+02           0.200944D+00
            P    4   1.00
                  0.587849D+02          -0.189674D-01
                  0.918962D+01           0.264104D+00
                  0.413895D+01           0.500000D+00
                  0.184225D+01           0.319316D+00
            P    1   1.00
                  0.713862D+00           1.0000000
            P    1   1.00
                  0.274232D+00           1.0000000
            P    1   1.00
                  0.944411D-01           1.0000000
            D    7   1.00
                  0.398470D+03           0.204066D-02
                  0.118967D+03           0.175171D-01
                  0.450197D+02           0.829708D-01
                  0.190320D+02           0.236284D+00
                  0.855686D+01           0.428468D+00
                  0.382950D+01           0.500000D+00
                  0.166291D+01           0.349360D+00
            D    1   1.00
                  0.672953D+00           1.0000000
            D    1   1.00
                  0.252000D+00           1.0000000
            F    1   1.00
                  0.530000D+00           1.0000000
            ****
            -Si     0
            S    8   1.00
                  0.996133D+05           0.235546D-03
                  0.149311D+05           0.182707D-02
                  0.339820D+04           0.951425D-02
                  0.962140D+03           0.388172D-01
                  0.313430D+03           0.127328D+00
                  0.112683D+03           0.313522D+00
                  0.433372D+02           0.500000D+00
                  0.170029D+02           0.340347D+00
            S    3   1.00
                  0.884208D+02          -0.404451D-01
                  0.266756D+02          -0.178059D+00
                  0.479640D+01           0.500000D+00
            S    2   1.00
                  0.239385D+01           0.500000D+00
                  0.108333D+01           0.338016D+00
            S    1   1.00
                  0.252420D+00           1.0000000
            S    1   1.00
                  0.891210D-01           1.0000000
            P    7   1.00
                  0.709901D+03           0.123028D-02
                  0.168426D+03           0.101366D-01
                  0.539946D+02           0.511840D-01
                  0.198646D+02           0.169967D+00
                  0.801369D+01           0.370717D+00
                  0.331870D+01           0.500000D+00
                  0.136112D+01           0.344128D+00
            P    2   1.00
                  0.622158D+01          -0.166609D-01
                  0.503049D+00           0.500000D+00
            P    1   1.00
                  0.179848D+00           1.0000000
            P    1   1.00
                  0.591912D-01           1.0000000
            D    1   1.00
                  0.168000D+01           1.0000000
            D    1   1.00
                  0.380000D+00           1.0000000
            F    1   1.00
                  0.540000D+00           1.0000000
            ****
            -P     0
            S    8   1.00
                  0.116416D+06           0.230715D-03
                  0.174500D+05           0.178960D-02
                  0.397149D+04           0.932116D-02
                  0.112447D+04           0.380591D-01
                  0.366347D+03           0.125148D+00
                  0.131757D+03           0.310022D+00
                  0.506988D+02           0.500000D+00
                  0.199436D+02           0.347528D+00
            S    3   1.00
                  0.101878D+03          -0.446755D-01
                  0.308249D+02          -0.196376D+00
                  0.573688D+01           0.500000D+00
            S    2   1.00
                  0.296868D+01           0.500000D+00
                  0.135315D+01           0.355098D+00
            S    1   1.00
                  0.332196D+00           1.0000000
            S    1   1.00
                  0.116229D+00           1.0000000
            P    7   1.00
                  0.873928D+03           0.112375D-02
                  0.207298D+03           0.933330D-02
                  0.664628D+02           0.477213D-01
                  0.245665D+02           0.160733D+00
                  0.996820D+01           0.359760D+00
                  0.416536D+01           0.500000D+00
                  0.173022D+01           0.346593D+00
            P    2   1.00
                  0.772530D+01          -0.175718D-01
                  0.657252D+00           0.500000D+00
            P    1   1.00
                  0.239903D+00           1.0000000
            P    1   1.00
                  0.800988D-01           1.0000000
            D    1   1.00
                  0.189000D+01           1.0000000
            D    1   1.00
                  0.430000D+00           1.0000000
            F    1   1.00
                  0.600000D+00           1.0000000
            ****
            
 Initial command:
 /usr/local/apps/g16_b01_avx/g16/l1.exe "/wrk/irikura/Gau-29811.inp" -scrdir="/wrk/irikura/"
 Entering Link 1 = /usr/local/apps/g16_b01_avx/g16/l1.exe PID=     29813.
  
 Copyright (c) 1988-2017, Gaussian, Inc.  All Rights Reserved.
  
 This is part of the Gaussian(R) 16 program.  It is based on
 the Gaussian(R) 09 system (copyright 2009, Gaussian, Inc.),
 the Gaussian(R) 03 system (copyright 2003, Gaussian, Inc.),
 the Gaussian(R) 98 system (copyright 1998, Gaussian, Inc.),
 the Gaussian(R) 94 system (copyright 1995, Gaussian, Inc.),
 the Gaussian 92(TM) system (copyright 1992, Gaussian, Inc.),
 the Gaussian 90(TM) system (copyright 1990, Gaussian, Inc.),
 the Gaussian 88(TM) system (copyright 1988, Gaussian, Inc.),
 the Gaussian 86(TM) system (copyright 1986, Carnegie Mellon
 University), and the Gaussian 82(TM) system (copyright 1983,
 Carnegie Mellon University). Gaussian is a federally registered
 trademark of Gaussian, Inc.
  
 This software contains proprietary and confidential information,
 including trade secrets, belonging to Gaussian, Inc.
  
 This software is provided under written license and may be
 used, copied, transmitted, or stored only in accord with that
 written license.
  
 The following legend is applicable only to US Government
 contracts under FAR:
  
                    RESTRICTED RIGHTS LEGEND
  
 Use, reproduction and disclosure by the US Government is
 subject to restrictions as set forth in subparagraphs (a)
 and (c) of the Commercial Computer Software - Restricted
 Rights clause in FAR 52.227-19.
  
 Gaussian, Inc.
 340 Quinnipiac St., Bldg. 40, Wallingford CT 06492
  
  
 ---------------------------------------------------------------
 Warning -- This program may not be used in any manner that
 competes with the business of Gaussian, Inc. or will provide
 assistance to any competitor of Gaussian, Inc.  The licensee
 of this program is prohibited from giving any competitor of
 Gaussian, Inc. access to this program.  By using this program,
 the user acknowledges that Gaussian, Inc. is engaged in the
 business of creating and licensing software in the field of
 computational chemistry and represents and warrants to the
 licensee that it is not a competitor of Gaussian, Inc. and that
 it will not use this program in any manner prohibited above.
 ---------------------------------------------------------------
  

 Cite this work as:
 Gaussian 16, Revision B.01,
 M. J. Frisch, G. W. Trucks, H. B. Schlegel, G. E. Scuseria, 
 M. A. Robb, J. R. Cheeseman, G. Scalmani, V. Barone, 
 G. A. Petersson, H. Nakatsuji, X. Li, M. Caricato, A. V. Marenich, 
 J. Bloino, B. G. Janesko, R. Gomperts, B. Mennucci, H. P. Hratchian, 
 J. V. Ortiz, A. F. Izmaylov, J. L. Sonnenberg, D. Williams-Young, 
 F. Ding, F. Lipparini, F. Egidi, J. Goings, B. Peng, A. Petrone, 
 T. Henderson, D. Ranasinghe, V. G. Zakrzewski, J. Gao, N. Rega, 
 G. Zheng, W. Liang, M. Hada, M. Ehara, K. Toyota, R. Fukuda, 
 J. Hasegawa, M. Ishida, T. Nakajima, Y. Honda, O. Kitao, H. Nakai, 
 T. Vreven, K. Throssell, J. A. Montgomery, Jr., J. E. Peralta, 
 F. Ogliaro, M. J. Bearpark, J. J. Heyd, E. N. Brothers, K. N. Kudin, 
 V. N. Staroverov, T. A. Keith, R. Kobayashi, J. Normand, 
 K. Raghavachari, A. P. Rendell, J. C. Burant, S. S. Iyengar, 
 J. Tomasi, M. Cossi, J. M. Millam, M. Klene, C. Adamo, R. Cammi, 
 J. W. Ochterski, R. L. Martin, K. Morokuma, O. Farkas, 
 J. B. Foresman, and D. J. Fox, Gaussian, Inc., Wallingford CT, 2016.
 
 ******************************************
 Gaussian 16:  ES64L-G16RevB.01 20-Dec-2017
                16-Jun-2022 
 ******************************************
 %mem=1000mw
 %nprocs=12
 Will use up to   12 processors via shared memory.
 --------------------
 # b3lyp/gen opt freq
 --------------------
 1/18=20,19=15,26=3,38=1/1,3;
 2/9=110,12=2,17=6,18=5,40=1/2;
 3/5=7,11=2,25=1,30=1,71=1,74=-5/1,2,3;
 4//1;
 5/5=2,38=5/2;
 6/7=2,8=2,9=2,10=2,28=1/1;
 7//1,2,3,16;
 1/18=20,19=15,26=3/3(2);
 2/9=110/2;
 99//99;
 2/9=110/2;
 3/5=7,6=1,11=2,25=1,30=1,71=1,74=-5,82=7/1,2,3;
 4/5=5,16=3,69=1/1;
 5/5=2,38=5/2;
 7//1,2,3,16;
 1/18=20,19=15,26=3/3(-5);
 2/9=110/2;
 6/7=2,8=2,9=2,10=2,19=2,28=1/1;
 99/9=1/99;
 ---------------------------
 chloromethyl, B3LYP/pcseg-2
 ---------------------------
 Symbolic Z-matrix:
 Charge =  0 Multiplicity = 2
 C                     0.        0.       -1.12668 
 Cl                    0.        0.        0.5886 
 H                     0.        0.95626  -1.62302 
 H                     0.       -0.95626  -1.62302 
 

 GradGradGradGradGradGradGradGradGradGradGradGradGradGradGradGradGradGrad
 Berny optimization.
 Initialization pass.
                           ----------------------------
                           !    Initial Parameters    !
                           ! (Angstroms and Degrees)  !
 --------------------------                            --------------------------
 ! Name  Definition              Value          Derivative Info.                !
 --------------------------------------------------------------------------------
 ! R1    R(1,2)                  1.7153         estimate D2E/DX2                !
 ! R2    R(1,3)                  1.0774         estimate D2E/DX2                !
 ! R3    R(1,4)                  1.0774         estimate D2E/DX2                !
 ! A1    A(2,1,3)              117.4312         estimate D2E/DX2                !
 ! A2    A(2,1,4)              117.4312         estimate D2E/DX2                !
 ! A3    A(3,1,4)              125.1376         estimate D2E/DX2                !
 ! D1    D(2,1,4,3)            180.0            estimate D2E/DX2                !
 --------------------------------------------------------------------------------
 Trust Radius=3.00D-01 FncErr=1.00D-07 GrdErr=1.00D-06 EigMax=2.50D+02 EigMin=1.00D-04
 Number of steps in this run=     20 maximum allowed number of steps=    100.
 GradGradGradGradGradGradGradGradGradGradGradGradGradGradGradGradGradGrad

                          Input orientation:                          
 ---------------------------------------------------------------------
 Center     Atomic      Atomic             Coordinates (Angstroms)
 Number     Number       Type             X           Y           Z
 ---------------------------------------------------------------------
      1          6           0        0.000000    0.000000   -1.126681
      2         17           0        0.000000    0.000000    0.588596
      3          1           0        0.000000    0.956264   -1.623022
      4          1           0        0.000000   -0.956264   -1.623022
 ---------------------------------------------------------------------
                    Distance matrix (angstroms):
                    1          2          3          4
     1  C    0.000000
     2  Cl   1.715277   0.000000
     3  H    1.077402   2.409501   0.000000
     4  H    1.077402   2.409501   1.912528   0.000000
 Stoichiometry    CH2Cl(2)
 Framework group  C2V[C2(CCl),SGV(H2)]
 Deg. of freedom     3
 Full point group                 C2V     NOp   4
 Largest Abelian subgroup         C2V     NOp   4
 Largest concise Abelian subgroup C2      NOp   2
                         Standard orientation:                         
 ---------------------------------------------------------------------
 Center     Atomic      Atomic             Coordinates (Angstroms)
 Number     Number       Type             X           Y           Z
 ---------------------------------------------------------------------
      1          6           0        0.000000    0.000000   -1.126681
      2         17           0        0.000000   -0.000000    0.588596
      3          1           0        0.000000    0.956264   -1.623022
      4          1           0       -0.000000   -0.956264   -1.623022
 ---------------------------------------------------------------------
 Rotational constants (GHZ):         274.1867400          15.6154866          14.7740734
 General basis read from cards:  (5D, 7F)
 There are    45 symmetry adapted cartesian basis functions of A1  symmetry.
 There are    10 symmetry adapted cartesian basis functions of A2  symmetry.
 There are    21 symmetry adapted cartesian basis functions of B1  symmetry.
 There are    28 symmetry adapted cartesian basis functions of B2  symmetry.
 There are    38 symmetry adapted basis functions of A1  symmetry.
 There are    10 symmetry adapted basis functions of A2  symmetry.
 There are    19 symmetry adapted basis functions of B1  symmetry.
 There are    25 symmetry adapted basis functions of B2  symmetry.
    92 basis functions,   157 primitive gaussians,   104 cartesian basis functions
    13 alpha electrons       12 beta electrons
       nuclear repulsion energy        45.1055789781 Hartrees.
 NAtoms=    4 NActive=    4 NUniq=    3 SFac= 1.78D+00 NAtFMM=   60 NAOKFM=F Big=F
 Integral buffers will be    131072 words long.
 Raffenetti 2 integral format.
 Two-electron integral symmetry is turned on.
 One-electron integrals computed using PRISM.
 NBasis=    92 RedAO= T EigKep=  2.70D-03  NBF=    38    10    19    25
 NBsUse=    92 1.00D-06 EigRej= -1.00D+00 NBFU=    38    10    19    25
 ExpMin= 7.42D-02 ExpMax= 1.54D+05 ExpMxC= 1.49D+03 IAcc=3 IRadAn=         5 AccDes= 0.00D+00
 Harris functional with IExCor=  402 and IRadAn=       5 diagonalized for initial guess.
 HarFok:  IExCor=  402 AccDes= 0.00D+00 IRadAn=         5 IDoV= 1 UseB2=F ITyADJ=14
 ICtDFT=  3500011 ScaDFX=  1.000000  1.000000  1.000000  1.000000
 FoFCou: FMM=F IPFlag=           0 FMFlag=      100000 FMFlg1=           0
         NFxFlg=           0 DoJE=T BraDBF=F KetDBF=T FulRan=T
         wScrn=  0.000000 ICntrl=       500 IOpCl=  0 I1Cent=   200000004 NGrid=           0
         NMat0=    1 NMatS0=      1 NMatT0=    0 NMatD0=    1 NMtDS0=    0 NMtDT0=    0
 Petite list used in FoFCou.
 Initial guess orbital symmetries:
 Alpha Orbitals:
       Occupied  (A1) (A1) (A1) (A1) (B2) (B1) (A1) (A1) (B2) (A1)
                 (B1) (B2) (B1)
       Virtual   (A1) (A1) (B2) (A1) (B1) (A1) (B2) (A1) (B2) (A1)
                 (B1) (B2) (B1) (A2) (A1) (A2) (B2) (A1) (A1) (B2)
                 (B1) (A1) (B2) (A1) (A1) (B1) (B1) (A2) (B2) (A1)
                 (B2) (A1) (A1) (A1) (B2) (B1) (B2) (A2) (B1) (B1)
                 (A1) (B2) (A1) (B2) (A1) (A2) (B1) (B2) (B1) (A1)
                 (A2) (A1) (B2) (A1) (B2) (B1) (A2) (B2) (A2) (A1)
                 (A1) (B1) (B2) (B1) (A1) (A2) (A1) (B1) (B2) (A1)
                 (A1) (B1) (B2) (A2) (B2) (A1) (A1) (B2) (A1)
 Beta  Orbitals:
       Occupied  (A1) (A1) (A1) (A1) (B2) (B1) (A1) (A1) (B2) (A1)
                 (B1) (B2)
       Virtual   (B1) (A1) (A1) (B2) (A1) (B1) (A1) (B2) (A1) (B2)
                 (A1) (B1) (B2) (B1) (A2) (A1) (A2) (B2) (A1) (A1)
                 (B2) (B1) (A1) (B2) (A1) (A1) (B1) (B1) (A2) (B2)
                 (A1) (B2) (A1) (A1) (A1) (B2) (B1) (B2) (A2) (B1)
                 (B1) (A1) (B2) (A1) (B2) (A1) (A2) (B1) (B2) (B1)
                 (A1) (A2) (A1) (B2) (A1) (B2) (B1) (A2) (B2) (A2)
                 (A1) (A1) (B1) (B2) (B1) (A1) (A2) (A1) (B1) (B2)
                 (A1) (A1) (B1) (B2) (A2) (B2) (A1) (A1) (B2) (A1)
 The electronic state of the initial guess is 2-B1.
 Initial guess <Sx>= 0.0000 <Sy>= 0.0000 <Sz>= 0.5000 <S**2>= 0.7500 S= 0.5000
 Keep R1 and R2 ints in memory in symmetry-blocked form, NReq=20332613.
 Requested convergence on RMS density matrix=1.00D-08 within 128 cycles.
 Requested convergence on MAX density matrix=1.00D-06.
 Requested convergence on             energy=1.00D-06.
 No special actions if energy rises.
 Integral accuracy reduced to 1.0D-05 until final iterations.
 Initial convergence to 1.0D-05 achieved.  Increase integral accuracy.
 SCF Done:  E(UB3LYP) =  -499.499687455     A.U. after   14 cycles
            NFock= 14  Conv=0.36D-08     -V/T= 2.0012
 <Sx>= 0.0000 <Sy>= 0.0000 <Sz>= 0.5000 <S**2>= 0.7546 S= 0.5023
 <L.S>=  0.00000000000    
 Annihilation of the first spin contaminant:
 S**2 before annihilation     0.7546,   after     0.7500

 **********************************************************************

            Population analysis using the SCF Density.

 **********************************************************************

 Orbital symmetries:
 Alpha Orbitals:
       Occupied  (A1) (A1) (A1) (A1) (B1) (B2) (A1) (A1) (B2) (A1)
                 (B1) (B2) (B1)
       Virtual   (A1) (A1) (B2) (A1) (B1) (A1) (B2) (A1) (B2) (A1)
                 (B1) (B2) (B1) (A2) (A1) (A2) (B2) (A1) (A1) (B2)
                 (B1) (A1) (B2) (A1) (A1) (B1) (B1) (A2) (B2) (A1)
                 (B2) (A1) (A1) (A1) (B2) (B1) (B2) (A2) (B1) (B1)
                 (A1) (B2) (A1) (B2) (A1) (A2) (B1) (B2) (B1) (A1)
                 (A2) (A1) (B2) (A1) (B2) (B1) (A2) (A2) (A1) (B2)
                 (B1) (A1) (B2) (B1) (A2) (A1) (A1) (B1) (B2) (A1)
                 (A1) (B1) (B2) (A2) (B2) (A1) (A1) (B2) (A1)
 Beta  Orbitals:
       Occupied  (A1) (A1) (A1) (A1) (B2) (B1) (A1) (A1) (B2) (A1)
                 (B1) (B2)
       Virtual   (B1) (A1) (A1) (B2) (A1) (B1) (A1) (B2) (A1) (B2)
                 (A1) (B1) (B2) (B1) (A2) (A1) (B2) (A2) (A1) (A1)
                 (B2) (B1) (A1) (B2) (A1) (A1) (B1) (B1) (A2) (B2)
                 (A1) (B2) (A1) (A1) (A1) (B2) (B1) (B2) (A2) (B1)
                 (B1) (A1) (B2) (A1) (B2) (A1) (A2) (B1) (B2) (B1)
                 (A1) (A2) (A1) (B2) (A1) (B2) (B1) (A2) (B2) (A1)
                 (A2) (B1) (A1) (B2) (B1) (A2) (A1) (A1) (B1) (B2)
                 (A1) (A1) (B1) (B2) (A2) (B2) (A1) (A1) (B2) (A1)
 The electronic state is 2-B1.
 Alpha  occ. eigenvalues -- -101.52847 -10.24027  -9.47285  -7.23351  -7.22798
 Alpha  occ. eigenvalues --   -7.22504  -0.88035  -0.66601  -0.48016  -0.44522
 Alpha  occ. eigenvalues --   -0.38156  -0.32157  -0.22387
 Alpha virt. eigenvalues --    0.00663   0.05006   0.06605   0.13652   0.16858
 Alpha virt. eigenvalues --    0.19848   0.22825   0.30056   0.30961   0.33003
 Alpha virt. eigenvalues --    0.33919   0.36197   0.50481   0.53513   0.55079
 Alpha virt. eigenvalues --    0.65495   0.66221   0.69169   0.86519   0.89933
 Alpha virt. eigenvalues --    0.94836   0.95606   1.01289   1.01529   1.20705
 Alpha virt. eigenvalues --    1.22350   1.26343   1.33191   1.36160   1.46832
 Alpha virt. eigenvalues --    1.70089   1.72746   1.96419   2.01912   2.09380
 Alpha virt. eigenvalues --    2.10393   2.12794   2.13567   2.16677   2.24601
 Alpha virt. eigenvalues --    2.27214   2.29044   2.46704   2.50016   2.53541
 Alpha virt. eigenvalues --    3.15412   3.22362   3.30315   3.34096   3.41867
 Alpha virt. eigenvalues --    3.50221   3.50330   3.62984   3.69239   3.73806
 Alpha virt. eigenvalues --    3.86363   3.90635   4.10505   4.12158   4.12251
 Alpha virt. eigenvalues --    4.17577   4.18225   4.29567   4.33722   4.40485
 Alpha virt. eigenvalues --    4.41345   4.47272   4.55518   4.65893   4.92554
 Alpha virt. eigenvalues --    5.13690   5.30619   5.40280   5.50553   5.67772
 Alpha virt. eigenvalues --    5.73809   5.89095   6.11382  32.91880
  Beta  occ. eigenvalues -- -101.52747 -10.22572  -9.47189  -7.23342  -7.22445
  Beta  occ. eigenvalues --   -7.22431  -0.86959  -0.63525  -0.47204  -0.43755
  Beta  occ. eigenvalues --   -0.35139  -0.31933
  Beta virt. eigenvalues --   -0.08391   0.01605   0.05662   0.06690   0.13894
  Beta virt. eigenvalues --    0.19762   0.21134   0.22923   0.30852   0.31050
  Beta virt. eigenvalues --    0.34022   0.34633   0.36589   0.52368   0.54489
  Beta virt. eigenvalues --    0.55847   0.66354   0.67543   0.69720   0.86984
  Beta virt. eigenvalues --    0.89911   0.97076   0.98117   1.01455   1.02021
  Beta virt. eigenvalues --    1.23154   1.25730   1.32811   1.36085   1.36867
  Beta virt. eigenvalues --    1.47778   1.70646   1.74250   1.97605   2.02319
  Beta virt. eigenvalues --    2.10245   2.11151   2.13088   2.14346   2.17529
  Beta virt. eigenvalues --    2.25994   2.28419   2.29829   2.47552   2.50801
  Beta virt. eigenvalues --    2.53946   3.17747   3.24670   3.30844   3.37519
  Beta virt. eigenvalues --    3.43529   3.50643   3.52896   3.63700   3.73146
  Beta virt. eigenvalues --    3.73825   3.90732   3.91376   4.13311   4.14109
  Beta virt. eigenvalues --    4.15833   4.19212   4.19246   4.31107   4.36818
  Beta virt. eigenvalues --    4.40787   4.41120   4.48948   4.56624   4.66129
  Beta virt. eigenvalues --    4.93841   5.13826   5.33307   5.40567   5.53058
  Beta virt. eigenvalues --    5.68334   5.74169   5.90121   6.11657  32.92069
          Condensed to atoms (all electrons):
               1          2          3          4
     1  C    5.019852   0.246311   0.426782   0.426782
     2  Cl   0.246311  16.916077  -0.046109  -0.046109
     3  H    0.426782  -0.046109   0.550791  -0.026414
     4  H    0.426782  -0.046109  -0.026414   0.550791
          Atomic-Atomic Spin Densities.
               1          2          3          4
     1  C    1.090754  -0.142893   0.005568   0.005568
     2  Cl  -0.142893   0.243307   0.001187   0.001187
     3  H    0.005568   0.001187  -0.038198   0.000550
     4  H    0.005568   0.001187   0.000550  -0.038198
 Mulliken charges and spin densities:
               1          2
     1  C   -0.119727   0.958997
     2  Cl  -0.070171   0.102788
     3  H    0.094949  -0.030893
     4  H    0.094949  -0.030893
 Sum of Mulliken charges =  -0.00000   1.00000
 Mulliken charges and spin densities with hydrogens summed into heavy atoms:
               1          2
     1  C    0.070171   0.897212
     2  Cl  -0.070171   0.102788
 Electronic spatial extent (au):  <R**2>=            115.7860
 Charge=             -0.0000 electrons
 Dipole moment (field-independent basis, Debye):
    X=             -0.0000    Y=             -0.0000    Z=             -1.0975  Tot=              1.0975
 Quadrupole moment (field-independent basis, Debye-Ang):
   XX=            -20.6868   YY=            -18.5914   ZZ=            -17.4959
   XY=              0.0000   XZ=              0.0000   YZ=              0.0000
 Traceless Quadrupole moment (field-independent basis, Debye-Ang):
   XX=             -1.7621   YY=              0.3333   ZZ=              1.4288
   XY=              0.0000   XZ=              0.0000   YZ=              0.0000
 Octapole moment (field-independent basis, Debye-Ang**2):
  XXX=              0.0000  YYY=             -0.0000  ZZZ=              2.6349  XYY=             -0.0000
  XXY=              0.0000  XXZ=              2.2760  XZZ=             -0.0000  YZZ=             -0.0000
  YYZ=             -1.5178  XYZ=             -0.0000
 Hexadecapole moment (field-independent basis, Debye-Ang**3):
 XXXX=            -24.9079 YYYY=            -27.7995 ZZZZ=           -104.1513 XXXY=             -0.0000
 XXXZ=             -0.0000 YYYX=             -0.0000 YYYZ=              0.0000 ZZZX=             -0.0000
 ZZZY=              0.0000 XXYY=             -9.2799 XXZZ=            -24.9404 YYZZ=            -20.0145
 XXYZ=              0.0000 YYXZ=              0.0000 ZZXY=              0.0000
 N-N= 4.510557897807D+01 E-N=-1.276044646245D+03  KE= 4.988966662463D+02
 Symmetry A1   KE= 4.035487967297D+02
 Symmetry A2   KE= 1.249273613604D-32
 Symmetry B1   KE= 4.714799087001D+01
 Symmetry B2   KE= 4.819987864660D+01
 Symmetry A1   SP= 3.451605727579D-14
 Symmetry A2   SP= 3.963428996347D-34
 Symmetry B1   SP= 1.000000000000D+00
 Symmetry B2   SP= 1.411888726592D-15
                          Isotropic Fermi Contact Couplings
        Atom                 a.u.       MegaHertz       Gauss      10(-4) cm-1
     1  C(13)              0.14305     160.81725      57.38360      53.64286
     2  Cl(35)             0.02656      11.64379       4.15479       3.88395
     3  H(1)              -0.01445     -64.58491     -23.04550     -21.54321
     4  H(1)              -0.01445     -64.58491     -23.04550     -21.54321
 --------------------------------------------------------
       Center         ----  Spin Dipole Couplings  ----
                      3XX-RR        3YY-RR        3ZZ-RR
 --------------------------------------------------------
     1   Atom        1.185547     -0.592049     -0.593499
     2   Atom        1.094965     -0.441173     -0.653793
     3   Atom        0.001809      0.040872     -0.042680
     4   Atom        0.001809      0.040872     -0.042680
 --------------------------------------------------------
                        XY            XZ            YZ
 --------------------------------------------------------
     1   Atom       -0.000000     -0.000000     -0.000000
     2   Atom       -0.000000     -0.000000     -0.000000
     3   Atom       -0.000000     -0.000000     -0.058200
     4   Atom       -0.000000     -0.000000      0.058200
 --------------------------------------------------------


 ---------------------------------------------------------------------------------
              Anisotropic Spin Dipole Couplings in Principal Axis System
 ---------------------------------------------------------------------------------

       Atom             a.u.   MegaHertz   Gauss  10(-4) cm-1        Axes

              Baa    -0.5935   -79.642   -28.418   -26.566  0.0000  0.0000  1.0000
     1 C(13)  Bbb    -0.5920   -79.447   -28.349   -26.501  0.0000  1.0000 -0.0000
              Bcc     1.1855   159.089    56.767    53.066  1.0000  0.0000 -0.0000
 
              Baa    -0.6538   -34.218   -12.210   -11.414  0.0000  0.0000  1.0000
     2 Cl(35) Bbb    -0.4412   -23.090    -8.239    -7.702 -0.0000  1.0000 -0.0000
              Bcc     1.0950    57.308    20.449    19.116  1.0000 -0.0000 -0.0000
 
              Baa    -0.0725   -38.707   -13.812   -12.911  0.0000  0.4565  0.8897
     3 H(1)   Bbb     0.0018     0.965     0.344     0.322  1.0000 -0.0000  0.0000
              Bcc     0.0707    37.742    13.467    12.589  0.0000  0.8897 -0.4565
 
              Baa    -0.0725   -38.707   -13.812   -12.911 -0.0000 -0.4565  0.8897
     4 H(1)   Bbb     0.0018     0.965     0.344     0.322  1.0000  0.0000  0.0000
              Bcc     0.0707    37.742    13.467    12.589 -0.0000  0.8897  0.4565
 

 ---------------------------------------------------------------------------------

 Calling FoFJK, ICntrl=      2127 FMM=F ISym2X=1 I1Cent= 0 IOpClX= 1 NMat=1 NMatS=1 NMatT=0.
 ***** Axes restored to original set *****
 -------------------------------------------------------------------
 Center     Atomic                   Forces (Hartrees/Bohr)
 Number     Number              X              Y              Z
 -------------------------------------------------------------------
      1        6          -0.000000000    0.000000000    0.005110298
      2       17          -0.000000000    0.000000000   -0.005799359
      3        1           0.000000000   -0.001526432    0.000344530
      4        1           0.000000000    0.001526432    0.000344530
 -------------------------------------------------------------------
 Cartesian Forces:  Max     0.005799359 RMS     0.002321011

 GradGradGradGradGradGradGradGradGradGradGradGradGradGradGradGradGradGrad
 Berny optimization.
 FormGI is forming the generalized inverse of G from B-inverse, IUseBI=4.
 Internal  Forces:  Max     0.005799359 RMS     0.002349788
 Search for a local minimum.
 Step number   1 out of a maximum of   20
 All quantities printed in internal units (Hartrees-Bohrs-Radians)
 Mixed Optimization -- RFO/linear search
 Second derivative matrix not updated -- first step.
 The second derivative matrix:
                          R1        R2        R3        A1        A2
           R1           0.34113
           R2           0.00000   0.36310
           R3           0.00000   0.00000   0.36310
           A1           0.00000   0.00000   0.00000   0.16000
           A2           0.00000   0.00000   0.00000   0.00000   0.16000
           A3           0.00000   0.00000   0.00000   0.00000   0.00000
           D1           0.00000   0.00000   0.00000   0.00000   0.00000
                          A3        D1
           A3           0.16000
           D1           0.00000   0.00401
 ITU=  0
     Eigenvalues ---    0.00401   0.16000   0.16000   0.34113   0.36310
     Eigenvalues ---    0.36310
 RFO step:  Lambda=-1.13899430D-04 EMin= 4.01476551D-03
 Linear search not attempted -- first point.
 Iteration  1 RMS(Cart)=  0.00602952 RMS(Int)=  0.00000354
 Iteration  2 RMS(Cart)=  0.00000296 RMS(Int)=  0.00000000
 Iteration  3 RMS(Cart)=  0.00000000 RMS(Int)=  0.00000000
 ClnCor:  largest displacement from symmetrization is 5.79D-11 for atom     1.
 Variable       Old X    -DE/DX   Delta X   Delta X   Delta X     New X
                                 (Linear)    (Quad)   (Total)
    R1        3.24140  -0.00580   0.00000  -0.01699  -0.01699   3.22441
    R2        2.03599  -0.00151   0.00000  -0.00417  -0.00417   2.03183
    R3        2.03599  -0.00151   0.00000  -0.00417  -0.00417   2.03183
    A1        2.04956   0.00027   0.00000   0.00168   0.00168   2.05125
    A2        2.04956   0.00027   0.00000   0.00168   0.00168   2.05125
    A3        2.18406  -0.00054   0.00000  -0.00337  -0.00337   2.18069
    D1        3.14159   0.00000   0.00000   0.00000   0.00000   3.14159
         Item               Value     Threshold  Converged?
 Maximum Force            0.005799     0.000450     NO 
 RMS     Force            0.002350     0.000300     NO 
 Maximum Displacement     0.012188     0.001800     NO 
 RMS     Displacement     0.006031     0.001200     NO 
 Predicted change in Energy=-5.696912D-05
 GradGradGradGradGradGradGradGradGradGradGradGradGradGradGradGradGradGrad

                          Input orientation:                          
 ---------------------------------------------------------------------
 Center     Atomic      Atomic             Coordinates (Angstroms)
 Number     Number       Type             X           Y           Z
 ---------------------------------------------------------------------
      1          6           0        0.000000    0.000000   -1.124137
      2         17           0       -0.000000    0.000000    0.582146
      3          1           0        0.000000    0.953471   -1.621069
      4          1           0       -0.000000   -0.953471   -1.621069
 ---------------------------------------------------------------------
                    Distance matrix (angstroms):
                    1          2          3          4
     1  C    0.000000
     2  Cl   1.706284   0.000000
     3  H    1.075197   2.400680   0.000000
     4  H    1.075197   2.400680   1.906942   0.000000
 Stoichiometry    CH2Cl(2)
 Framework group  C2V[C2(CCl),SGV(H2)]
 Deg. of freedom     3
 Full point group                 C2V     NOp   4
 Largest Abelian subgroup         C2V     NOp   4
 Largest concise Abelian subgroup C2      NOp   2
                         Standard orientation:                         
 ---------------------------------------------------------------------
 Center     Atomic      Atomic             Coordinates (Angstroms)
 Number     Number       Type             X           Y           Z
 ---------------------------------------------------------------------
      1          6           0       -0.000000    0.000000   -1.120518
      2         17           0        0.000000   -0.000000    0.585765
      3          1           0        0.000000    0.953471   -1.617450
      4          1           0       -0.000000   -0.953471   -1.617450
 ---------------------------------------------------------------------
 Rotational constants (GHZ):         275.7953737          15.7697980          14.9168616
 Basis read from rwf:  (5D, 7F)
 There are    45 symmetry adapted cartesian basis functions of A1  symmetry.
 There are    10 symmetry adapted cartesian basis functions of A2  symmetry.
 There are    21 symmetry adapted cartesian basis functions of B1  symmetry.
 There are    28 symmetry adapted cartesian basis functions of B2  symmetry.
 There are    38 symmetry adapted basis functions of A1  symmetry.
 There are    10 symmetry adapted basis functions of A2  symmetry.
 There are    19 symmetry adapted basis functions of B1  symmetry.
 There are    25 symmetry adapted basis functions of B2  symmetry.
    92 basis functions,   157 primitive gaussians,   104 cartesian basis functions
    13 alpha electrons       12 beta electrons
       nuclear repulsion energy        45.3117710068 Hartrees.
 NAtoms=    4 NActive=    4 NUniq=    3 SFac= 1.78D+00 NAtFMM=   60 NAOKFM=F Big=F
 Integral buffers will be    131072 words long.
 Raffenetti 2 integral format.
 Two-electron integral symmetry is turned on.
 One-electron integrals computed using PRISM.
 NBasis=    92 RedAO= T EigKep=  2.68D-03  NBF=    38    10    19    25
 NBsUse=    92 1.00D-06 EigRej= -1.00D+00 NBFU=    38    10    19    25
 Initial guess from the checkpoint file:  "/wrk/irikura/Gau-29813.chk"
 B after Tr=     0.000000    0.000000   -0.000000
         Rot=    1.000000    0.000000    0.000000    0.000000 Ang=   0.00 deg.
 Initial guess orbital symmetries:
 Alpha Orbitals:
       Occupied  (A1) (A1) (A1) (A1) (B1) (B2) (A1) (A1) (B2) (A1)
                 (B1) (B2) (B1)
       Virtual   (A1) (A1) (B2) (A1) (B1) (A1) (B2) (A1) (B2) (A1)
                 (B1) (B2) (B1) (A2) (A1) (A2) (B2) (A1) (A1) (B2)
                 (B1) (A1) (B2) (A1) (A1) (B1) (B1) (A2) (B2) (A1)
                 (B2) (A1) (A1) (A1) (B2) (B1) (B2) (A2) (B1) (B1)
                 (A1) (B2) (A1) (B2) (A1) (A2) (B1) (B2) (B1) (A1)
                 (A2) (A1) (B2) (A1) (B2) (B1) (A2) (A2) (A1) (B2)
                 (B1) (A1) (B2) (B1) (A2) (A1) (A1) (B1) (B2) (A1)
                 (A1) (B1) (B2) (A2) (B2) (A1) (A1) (B2) (A1)
 Beta  Orbitals:
       Occupied  (A1) (A1) (A1) (A1) (B2) (B1) (A1) (A1) (B2) (A1)
                 (B1) (B2)
       Virtual   (B1) (A1) (A1) (B2) (A1) (B1) (A1) (B2) (A1) (B2)
                 (A1) (B1) (B2) (B1) (A2) (A1) (B2) (A2) (A1) (A1)
                 (B2) (B1) (A1) (B2) (A1) (A1) (B1) (B1) (A2) (B2)
                 (A1) (B2) (A1) (A1) (A1) (B2) (B1) (B2) (A2) (B1)
                 (B1) (A1) (B2) (A1) (B2) (A1) (A2) (B1) (B2) (B1)
                 (A1) (A2) (A1) (B2) (A1) (B2) (B1) (A2) (B2) (A1)
                 (A2) (B1) (A1) (B2) (B1) (A2) (A1) (A1) (B1) (B2)
                 (A1) (A1) (B1) (B2) (A2) (B2) (A1) (A1) (B2) (A1)
 Initial guess <Sx>= 0.0000 <Sy>= 0.0000 <Sz>= 0.5000 <S**2>= 0.7546 S= 0.5023
 Keep R1 and R2 ints in memory in symmetry-blocked form, NReq=20332613.
 Requested convergence on RMS density matrix=1.00D-08 within 128 cycles.
 Requested convergence on MAX density matrix=1.00D-06.
 Requested convergence on             energy=1.00D-06.
 No special actions if energy rises.
 SCF Done:  E(UB3LYP) =  -499.499759678     A.U. after    9 cycles
            NFock=  9  Conv=0.44D-08     -V/T= 2.0012
 <Sx>= 0.0000 <Sy>= 0.0000 <Sz>= 0.5000 <S**2>= 0.7546 S= 0.5023
 <L.S>=  0.00000000000    
 Annihilation of the first spin contaminant:
 S**2 before annihilation     0.7546,   after     0.7500
 Calling FoFJK, ICntrl=      2127 FMM=F ISym2X=1 I1Cent= 0 IOpClX= 1 NMat=1 NMatS=1 NMatT=0.
 ***** Axes restored to original set *****
 -------------------------------------------------------------------
 Center     Atomic                   Forces (Hartrees/Bohr)
 Number     Number              X              Y              Z
 -------------------------------------------------------------------
      1        6          -0.000000000    0.000000000    0.002605481
      2       17          -0.000000000   -0.000000000   -0.001621612
      3        1           0.000000000   -0.000124010   -0.000491935
      4        1           0.000000000    0.000124010   -0.000491935
 -------------------------------------------------------------------
 Cartesian Forces:  Max     0.002605481 RMS     0.000909804

 GradGradGradGradGradGradGradGradGradGradGradGradGradGradGradGradGradGrad
 Berny optimization.
 Using GEDIIS/GDIIS optimizer.
 FormGI is forming the generalized inverse of G from B-inverse, IUseBI=4.
 Internal  Forces:  Max     0.001621612 RMS     0.000689474
 Search for a local minimum.
 Step number   2 out of a maximum of   20
 All quantities printed in internal units (Hartrees-Bohrs-Radians)
 Mixed Optimization -- En-DIIS/RFO-DIIS
 Update second derivatives using D2CorX and points    1    2
 DE= -7.22D-05 DEPred=-5.70D-05 R= 1.27D+00
 TightC=F SS=  1.41D+00  RLast= 1.85D-02 DXNew= 5.0454D-01 5.5364D-02
 Trust test= 1.27D+00 RLast= 1.85D-02 DXMaxT set to 3.00D-01
 The second derivative matrix:
                          R1        R2        R3        A1        A2
           R1           0.25387
           R2           0.00413   0.37468
           R3           0.00413   0.01158   0.37468
           A1           0.01694   0.00484   0.00484   0.15941
           A2           0.01694   0.00484   0.00484  -0.00059   0.15941
           A3          -0.03387  -0.00967  -0.00967   0.00118   0.00118
           D1          -0.00000  -0.00000  -0.00000  -0.00000  -0.00000
                          A3        D1
           A3           0.15765
           D1           0.00000   0.00401
 ITU=  1  0
 Use linear search instead of GDIIS.
     Eigenvalues ---    0.00401   0.14043   0.16000   0.26808   0.36310
     Eigenvalues ---    0.38809
 RFO step:  Lambda=-7.36063047D-06 EMin= 4.01476551D-03
 Quartic linear search produced a step of  0.34702.
 Iteration  1 RMS(Cart)=  0.00247680 RMS(Int)=  0.00000457
 Iteration  2 RMS(Cart)=  0.00000438 RMS(Int)=  0.00000000
 Iteration  3 RMS(Cart)=  0.00000000 RMS(Int)=  0.00000000
 ClnCor:  largest displacement from symmetrization is 5.88D-11 for atom     1.
 Variable       Old X    -DE/DX   Delta X   Delta X   Delta X     New X
                                 (Linear)    (Quad)   (Total)
    R1        3.22441  -0.00162  -0.00590  -0.00149  -0.00739   3.21702
    R2        2.03183   0.00012  -0.00145   0.00164   0.00019   2.03202
    R3        2.03183   0.00012  -0.00145   0.00164   0.00019   2.03202
    A1        2.05125   0.00033   0.00058   0.00231   0.00290   2.05414
    A2        2.05125   0.00033   0.00058   0.00231   0.00290   2.05414
    A3        2.18069  -0.00067  -0.00117  -0.00463  -0.00580   2.17490
    D1        3.14159   0.00000   0.00000   0.00000   0.00000   3.14159
         Item               Value     Threshold  Converged?
 Maximum Force            0.001622     0.000450     NO 
 RMS     Force            0.000689     0.000300     NO 
 Maximum Displacement     0.004501     0.001800     NO 
 RMS     Displacement     0.002479     0.001200     NO 
 Predicted change in Energy=-9.108202D-06
 GradGradGradGradGradGradGradGradGradGradGradGradGradGradGradGradGradGrad

                          Input orientation:                          
 ---------------------------------------------------------------------
 Center     Atomic      Atomic             Coordinates (Angstroms)
 Number     Number       Type             X           Y           Z
 ---------------------------------------------------------------------
      1          6           0        0.000000    0.000000   -1.121755
      2         17           0       -0.000000   -0.000000    0.580617
      3          1           0        0.000000    0.952117   -1.621496
      4          1           0       -0.000000   -0.952117   -1.621496
 ---------------------------------------------------------------------
                    Distance matrix (angstroms):
                    1          2          3          4
     1  C    0.000000
     2  Cl   1.702373   0.000000
     3  H    1.075298   2.399131   0.000000
     4  H    1.075298   2.399131   1.904233   0.000000
 Stoichiometry    CH2Cl(2)
 Framework group  C2V[C2(CCl),SGV(H2)]
 Deg. of freedom     3
 Full point group                 C2V     NOp   4
 Largest Abelian subgroup         C2V     NOp   4
 Largest concise Abelian subgroup C2      NOp   2
                         Standard orientation:                         
 ---------------------------------------------------------------------
 Center     Atomic      Atomic             Coordinates (Angstroms)
 Number     Number       Type             X           Y           Z
 ---------------------------------------------------------------------
      1          6           0        0.000000    0.000000   -1.117634
      2         17           0        0.000000   -0.000000    0.584738
      3          1           0        0.000000    0.952117   -1.617374
      4          1           0       -0.000000   -0.952117   -1.617374
 ---------------------------------------------------------------------
 Rotational constants (GHZ):         276.5805968          15.8289751          14.9721070
 Basis read from rwf:  (5D, 7F)
 There are    45 symmetry adapted cartesian basis functions of A1  symmetry.
 There are    10 symmetry adapted cartesian basis functions of A2  symmetry.
 There are    21 symmetry adapted cartesian basis functions of B1  symmetry.
 There are    28 symmetry adapted cartesian basis functions of B2  symmetry.
 There are    38 symmetry adapted basis functions of A1  symmetry.
 There are    10 symmetry adapted basis functions of A2  symmetry.
 There are    19 symmetry adapted basis functions of B1  symmetry.
 There are    25 symmetry adapted basis functions of B2  symmetry.
    92 basis functions,   157 primitive gaussians,   104 cartesian basis functions
    13 alpha electrons       12 beta electrons
       nuclear repulsion energy        45.3891249372 Hartrees.
 NAtoms=    4 NActive=    4 NUniq=    3 SFac= 1.78D+00 NAtFMM=   60 NAOKFM=F Big=F
 Integral buffers will be    131072 words long.
 Raffenetti 2 integral format.
 Two-electron integral symmetry is turned on.
 One-electron integrals computed using PRISM.
 NBasis=    92 RedAO= T EigKep=  2.68D-03  NBF=    38    10    19    25
 NBsUse=    92 1.00D-06 EigRej= -1.00D+00 NBFU=    38    10    19    25
 Initial guess from the checkpoint file:  "/wrk/irikura/Gau-29813.chk"
 B after Tr=     0.000000   -0.000000   -0.000000
         Rot=    1.000000    0.000000    0.000000   -0.000000 Ang=   0.00 deg.
 Initial guess orbital symmetries:
 Alpha Orbitals:
       Occupied  (A1) (A1) (A1) (A1) (B1) (B2) (A1) (A1) (B2) (A1)
                 (B1) (B2) (B1)
       Virtual   (A1) (A1) (B2) (A1) (B1) (A1) (B2) (A1) (B2) (A1)
                 (B1) (B2) (B1) (A2) (A1) (A2) (B2) (A1) (A1) (B2)
                 (B1) (A1) (B2) (A1) (A1) (B1) (B1) (A2) (B2) (A1)
                 (B2) (A1) (A1) (A1) (B2) (B1) (B2) (A2) (B1) (B1)
                 (A1) (B2) (A1) (B2) (A1) (A2) (B1) (B2) (B1) (A1)
                 (A2) (A1) (B2) (A1) (B2) (B1) (A2) (A2) (A1) (B2)
                 (B1) (A1) (B2) (B1) (A2) (A1) (A1) (B1) (B2) (A1)
                 (A1) (B1) (B2) (A2) (B2) (A1) (A1) (B2) (A1)
 Beta  Orbitals:
       Occupied  (A1) (A1) (A1) (A1) (B2) (B1) (A1) (A1) (B2) (A1)
                 (B1) (B2)
       Virtual   (B1) (A1) (A1) (B2) (A1) (B1) (A1) (B2) (A1) (B2)
                 (A1) (B1) (B2) (B1) (A2) (A1) (B2) (A2) (A1) (A1)
                 (B2) (B1) (A1) (B2) (A1) (A1) (B1) (B1) (A2) (B2)
                 (A1) (B2) (A1) (A1) (A1) (B2) (B1) (B2) (A2) (B1)
                 (B1) (A1) (B2) (A1) (B2) (A1) (A2) (B1) (B2) (B1)
                 (A1) (A2) (A1) (B2) (A1) (B2) (A2) (B1) (B2) (A1)
                 (A2) (B1) (A1) (B2) (B1) (A2) (A1) (A1) (B1) (B2)
                 (A1) (A1) (B1) (B2) (A2) (B2) (A1) (A1) (B2) (A1)
 Initial guess <Sx>= 0.0000 <Sy>= 0.0000 <Sz>= 0.5000 <S**2>= 0.7546 S= 0.5023
 Keep R1 and R2 ints in memory in symmetry-blocked form, NReq=20332613.
 Requested convergence on RMS density matrix=1.00D-08 within 128 cycles.
 Requested convergence on MAX density matrix=1.00D-06.
 Requested convergence on             energy=1.00D-06.
 No special actions if energy rises.
 SCF Done:  E(UB3LYP) =  -499.499769903     A.U. after    8 cycles
            NFock=  8  Conv=0.55D-08     -V/T= 2.0012
 <Sx>= 0.0000 <Sy>= 0.0000 <Sz>= 0.5000 <S**2>= 0.7546 S= 0.5023
 <L.S>=  0.00000000000    
 Annihilation of the first spin contaminant:
 S**2 before annihilation     0.7546,   after     0.7500
 Calling FoFJK, ICntrl=      2127 FMM=F ISym2X=1 I1Cent= 0 IOpClX= 1 NMat=1 NMatS=1 NMatT=0.
 ***** Axes restored to original set *****
 -------------------------------------------------------------------
 Center     Atomic                   Forces (Hartrees/Bohr)
 Number     Number              X              Y              Z
 -------------------------------------------------------------------
      1        6          -0.000000000    0.000000000    0.000502598
      2       17          -0.000000000   -0.000000000    0.000046230
      3        1           0.000000000    0.000002273   -0.000274414
      4        1           0.000000000   -0.000002273   -0.000274414
 -------------------------------------------------------------------
 Cartesian Forces:  Max     0.000502598 RMS     0.000183793

 GradGradGradGradGradGradGradGradGradGradGradGradGradGradGradGradGradGrad
 Berny optimization.
 Using GEDIIS/GDIIS optimizer.
 FormGI is forming the generalized inverse of G from B-inverse, IUseBI=4.
 Internal  Forces:  Max     0.000327727 RMS     0.000167677
 Search for a local minimum.
 Step number   3 out of a maximum of   20
 All quantities printed in internal units (Hartrees-Bohrs-Radians)
 Mixed Optimization -- En-DIIS/RFO-DIIS
 Swapping is turned off.
 Update second derivatives using D2CorX and points    1    2    3
 DE= -1.02D-05 DEPred=-9.11D-06 R= 1.12D+00
 TightC=F SS=  1.41D+00  RLast= 1.03D-02 DXNew= 5.0454D-01 3.0754D-02
 Trust test= 1.12D+00 RLast= 1.03D-02 DXMaxT set to 3.00D-01
 The second derivative matrix:
                          R1        R2        R3        A1        A2
           R1           0.29885
           R2           0.02182   0.37688
           R3           0.02182   0.01378   0.37688
           A1           0.03062   0.00427   0.00427   0.15606
           A2           0.03062   0.00427   0.00427  -0.00394   0.15606
           A3          -0.06125  -0.00854  -0.00854   0.00789   0.00789
           D1           0.00000   0.00000   0.00000  -0.00000  -0.00000
                          A3        D1
           A3           0.14422
           D1           0.00000   0.00401
 ITU=  1  1  0
     Eigenvalues ---    0.00401   0.10698   0.16000   0.31316   0.36310
     Eigenvalues ---    0.40570
 En-DIIS/RFO-DIIS/Sim-DIIS IScMMF=       -3 using points:     3    2
 RFO step:  Lambda=-1.36220722D-06.
 DidBck=F Rises=F RFO-DIIS coefs:    1.27365   -0.27365
 Iteration  1 RMS(Cart)=  0.00101021 RMS(Int)=  0.00000100
 Iteration  2 RMS(Cart)=  0.00000098 RMS(Int)=  0.00000000
 ClnCor:  largest displacement from symmetrization is 5.92D-11 for atom     1.
 Variable       Old X    -DE/DX   Delta X   Delta X   Delta X     New X
                                 (Linear)    (Quad)   (Total)
    R1        3.21702   0.00005  -0.00202   0.00131  -0.00071   3.21630
    R2        2.03202   0.00013   0.00005   0.00023   0.00028   2.03230
    R3        2.03202   0.00013   0.00005   0.00023   0.00028   2.03230
    A1        2.05414   0.00016   0.00079   0.00055   0.00134   2.05549
    A2        2.05414   0.00016   0.00079   0.00055   0.00134   2.05549
    A3        2.17490  -0.00033  -0.00159  -0.00110  -0.00269   2.17221
    D1        3.14159   0.00000   0.00000   0.00000   0.00000   3.14159
         Item               Value     Threshold  Converged?
 Maximum Force            0.000328     0.000450     YES
 RMS     Force            0.000168     0.000300     YES
 Maximum Displacement     0.001453     0.001800     YES
 RMS     Displacement     0.001011     0.001200     YES
 Predicted change in Energy=-6.811093D-07
 Optimization completed.
    -- Stationary point found.
                           ----------------------------
                           !   Optimized Parameters   !
                           ! (Angstroms and Degrees)  !
 --------------------------                            --------------------------
 ! Name  Definition              Value          Derivative Info.                !
 --------------------------------------------------------------------------------
 ! R1    R(1,2)                  1.7024         -DE/DX =    0.0                 !
 ! R2    R(1,3)                  1.0753         -DE/DX =    0.0001              !
 ! R3    R(1,4)                  1.0753         -DE/DX =    0.0001              !
 ! A1    A(2,1,3)              117.6938         -DE/DX =    0.0002              !
 ! A2    A(2,1,4)              117.6938         -DE/DX =    0.0002              !
 ! A3    A(3,1,4)              124.6125         -DE/DX =   -0.0003              !
 ! D1    D(2,1,4,3)            180.0            -DE/DX =    0.0                 !
 --------------------------------------------------------------------------------
 GradGradGradGradGradGradGradGradGradGradGradGradGradGradGradGradGradGrad

                          Input orientation:                          
 ---------------------------------------------------------------------
 Center     Atomic      Atomic             Coordinates (Angstroms)
 Number     Number       Type             X           Y           Z
 ---------------------------------------------------------------------
      1          6           0        0.000000    0.000000   -1.121755
      2         17           0       -0.000000   -0.000000    0.580617
      3          1           0        0.000000    0.952117   -1.621496
      4          1           0       -0.000000   -0.952117   -1.621496
 ---------------------------------------------------------------------
                    Distance matrix (angstroms):
                    1          2          3          4
     1  C    0.000000
     2  Cl   1.702373   0.000000
     3  H    1.075298   2.399131   0.000000
     4  H    1.075298   2.399131   1.904233   0.000000
 Stoichiometry    CH2Cl(2)
 Framework group  C2V[C2(CCl),SGV(H2)]
 Deg. of freedom     3
 Full point group                 C2V     NOp   4
 Largest Abelian subgroup         C2V     NOp   4
 Largest concise Abelian subgroup C2      NOp   2
                         Standard orientation:                         
 ---------------------------------------------------------------------
 Center     Atomic      Atomic             Coordinates (Angstroms)
 Number     Number       Type             X           Y           Z
 ---------------------------------------------------------------------
      1          6           0        0.000000   -0.000000   -1.117634
      2         17           0        0.000000    0.000000    0.584738
      3          1           0        0.000000    0.952117   -1.617374
      4          1           0       -0.000000   -0.952117   -1.617374
 ---------------------------------------------------------------------
 Rotational constants (GHZ):         276.5805968          15.8289751          14.9721070

 **********************************************************************

            Population analysis using the SCF Density.

 **********************************************************************

 Orbital symmetries:
 Alpha Orbitals:
       Occupied  (A1) (A1) (A1) (A1) (B1) (B2) (A1) (A1) (B2) (A1)
                 (B1) (B2) (B1)
       Virtual   (A1) (A1) (B2) (A1) (B1) (A1) (B2) (A1) (B2) (A1)
                 (B1) (B2) (B1) (A2) (A1) (A2) (B2) (A1) (A1) (B2)
                 (B1) (A1) (B2) (A1) (A1) (B1) (B1) (A2) (B2) (A1)
                 (B2) (A1) (A1) (A1) (B2) (B1) (B2) (A2) (B1) (B1)
                 (A1) (B2) (A1) (B2) (A1) (A2) (B1) (B2) (B1) (A1)
                 (A2) (A1) (B2) (A1) (B2) (B1) (A2) (A2) (B2) (A1)
                 (B1) (A1) (B2) (B1) (A2) (A1) (A1) (B1) (B2) (A1)
                 (A1) (B1) (B2) (A2) (B2) (A1) (A1) (B2) (A1)
 Beta  Orbitals:
       Occupied  (A1) (A1) (A1) (A1) (B2) (B1) (A1) (A1) (B2) (A1)
                 (B1) (B2)
       Virtual   (B1) (A1) (A1) (B2) (A1) (B1) (A1) (B2) (B2) (A1)
                 (A1) (B1) (B2) (B1) (A2) (A1) (B2) (A2) (A1) (A1)
                 (B2) (B1) (A1) (B2) (A1) (A1) (B1) (B1) (A2) (B2)
                 (A1) (B2) (A1) (A1) (A1) (B2) (B1) (B2) (A2) (B1)
                 (B1) (A1) (B2) (A1) (B2) (A1) (A2) (B1) (B2) (B1)
                 (A1) (A2) (A1) (B2) (A1) (B2) (A2) (B1) (B2) (A1)
                 (A2) (A1) (B1) (B2) (B1) (A2) (A1) (A1) (B1) (B2)
                 (A1) (A1) (B1) (B2) (A2) (B2) (A1) (A1) (B2) (A1)
 The electronic state is 2-B1.
 Alpha  occ. eigenvalues -- -101.52875 -10.23818  -9.47336  -7.23396  -7.22854
 Alpha  occ. eigenvalues --   -7.22553  -0.88364  -0.66541  -0.48039  -0.44725
 Alpha  occ. eigenvalues --   -0.38345  -0.32145  -0.22234
 Alpha virt. eigenvalues --    0.00868   0.05255   0.06642   0.13642   0.16840
 Alpha virt. eigenvalues --    0.19990   0.22848   0.30157   0.30823   0.33130
 Alpha virt. eigenvalues --    0.33899   0.36331   0.50525   0.53359   0.54972
 Alpha virt. eigenvalues --    0.65684   0.66335   0.69489   0.86561   0.90351
 Alpha virt. eigenvalues --    0.95082   0.95709   1.01354   1.01704   1.20936
 Alpha virt. eigenvalues --    1.23044   1.26448   1.33093   1.36647   1.46897
 Alpha virt. eigenvalues --    1.70389   1.73169   1.96616   2.01655   2.09279
 Alpha virt. eigenvalues --    2.10289   2.12726   2.13732   2.16642   2.24969
 Alpha virt. eigenvalues --    2.28677   2.29406   2.46745   2.51179   2.53622
 Alpha virt. eigenvalues --    3.15861   3.22637   3.31113   3.34620   3.42375
 Alpha virt. eigenvalues --    3.50292   3.50961   3.62800   3.69934   3.74616
 Alpha virt. eigenvalues --    3.87633   3.90912   4.10301   4.12679   4.12816
 Alpha virt. eigenvalues --    4.17926   4.18672   4.30225   4.34748   4.40896
 Alpha virt. eigenvalues --    4.42352   4.48695   4.56364   4.67218   4.89427
 Alpha virt. eigenvalues --    5.14970   5.30477   5.40691   5.51686   5.69261
 Alpha virt. eigenvalues --    5.73770   5.89844   6.12517  33.00652
  Beta  occ. eigenvalues -- -101.52772 -10.22371  -9.47237  -7.23384  -7.22492
  Beta  occ. eigenvalues --   -7.22478  -0.87273  -0.63487  -0.47230  -0.43945
  Beta  occ. eigenvalues --   -0.35287  -0.31912
  Beta virt. eigenvalues --   -0.08303   0.01750   0.05933   0.06725   0.13888
  Beta virt. eigenvalues --    0.19699   0.21275   0.22945   0.30908   0.30979
  Beta virt. eigenvalues --    0.34142   0.34643   0.36723   0.52457   0.54353
  Beta virt. eigenvalues --    0.55758   0.66475   0.67731   0.70051   0.87023
  Beta virt. eigenvalues --    0.90327   0.97326   0.98180   1.01522   1.02252
  Beta virt. eigenvalues --    1.23355   1.26401   1.32885   1.35956   1.37351
  Beta virt. eigenvalues --    1.47840   1.70950   1.74693   1.97759   2.02079
  Beta virt. eigenvalues --    2.10155   2.11066   2.13015   2.14537   2.17505
  Beta virt. eigenvalues --    2.26389   2.29921   2.30191   2.47580   2.51989
  Beta virt. eigenvalues --    2.54016   3.18174   3.24951   3.31626   3.38001
  Beta virt. eigenvalues --    3.43867   3.50724   3.53703   3.63504   3.73836
  Beta virt. eigenvalues --    3.74632   3.91631   3.92056   4.13813   4.15027
  Beta virt. eigenvalues --    4.15609   4.19337   4.19548   4.31696   4.37692
  Beta virt. eigenvalues --    4.41205   4.42117   4.50458   4.57553   4.67456
  Beta virt. eigenvalues --    4.90663   5.15129   5.33143   5.40973   5.54198
  Beta virt. eigenvalues --    5.69819   5.74129   5.90864   6.12797  33.00847
          Condensed to atoms (all electrons):
               1          2          3          4
     1  C    5.018020   0.245539   0.427937   0.427937
     2  Cl   0.245539  16.915241  -0.046864  -0.046864
     3  H    0.427937  -0.046864   0.552373  -0.026688
     4  H    0.427937  -0.046864  -0.026688   0.552373
          Atomic-Atomic Spin Densities.
               1          2          3          4
     1  C    1.089858  -0.147490   0.005687   0.005687
     2  Cl  -0.147490   0.252699   0.001210   0.001210
     3  H    0.005687   0.001210  -0.038108   0.000524
     4  H    0.005687   0.001210   0.000524  -0.038108
 Mulliken charges and spin densities:
               1          2
     1  C   -0.119433   0.953742
     2  Cl  -0.067052   0.107629
     3  H    0.093242  -0.030686
     4  H    0.093242  -0.030686
 Sum of Mulliken charges =   0.00000   1.00000
 Mulliken charges and spin densities with hydrogens summed into heavy atoms:
               1          2
     1  C    0.067052   0.892371
     2  Cl  -0.067052   0.107629
 Electronic spatial extent (au):  <R**2>=            114.9004
 Charge=              0.0000 electrons
 Dipole moment (field-independent basis, Debye):
    X=             -0.0000    Y=             -0.0000    Z=             -1.0590  Tot=              1.0590
 Quadrupole moment (field-independent basis, Debye-Ang):
   XX=            -20.6578   YY=            -18.5957   ZZ=            -17.5362
   XY=              0.0000   XZ=              0.0000   YZ=             -0.0000
 Traceless Quadrupole moment (field-independent basis, Debye-Ang):
   XX=             -1.7279   YY=              0.3342   ZZ=              1.3937
   XY=              0.0000   XZ=              0.0000   YZ=             -0.0000
 Octapole moment (field-independent basis, Debye-Ang**2):
  XXX=              0.0000  YYY=              0.0000  ZZZ=              2.6906  XYY=             -0.0000
  XXY=             -0.0000  XXZ=              2.2735  XZZ=             -0.0000  YZZ=              0.0000
  YYZ=             -1.4636  XYZ=             -0.0000
 Hexadecapole moment (field-independent basis, Debye-Ang**3):
 XXXX=            -24.8497 YYYY=            -27.7556 ZZZZ=           -103.1259 XXXY=             -0.0000
 XXXZ=             -0.0000 YYYX=             -0.0000 YYYZ=              0.0000 ZZZX=             -0.0000
 ZZZY=              0.0000 XXYY=             -9.2517 XXZZ=            -24.7234 YYZZ=            -19.9092
 XXYZ=             -0.0000 YYXZ=              0.0000 ZZXY=              0.0000
 N-N= 4.538912493724D+01 E-N=-1.276623249109D+03  KE= 4.989232715167D+02
 Symmetry A1   KE= 4.035703484875D+02
 Symmetry A2   KE= 1.491569479956D-32
 Symmetry B1   KE= 4.714624813241D+01
 Symmetry B2   KE= 4.820667489676D+01
 Symmetry A1   SP= 5.262395472725D-16
 Symmetry A2   SP= 5.615336513878D-34
 Symmetry B1   SP= 1.000000000000D+00
 Symmetry B2   SP= 1.938063899361D-15
                          Isotropic Fermi Contact Couplings
        Atom                 a.u.       MegaHertz       Gauss      10(-4) cm-1
     1  C(13)              0.14101     158.52133      56.56435      52.87703
     2  Cl(35)             0.02643      11.58643       4.13433       3.86482
     3  H(1)              -0.01435     -64.15113     -22.89072     -21.39851
     4  H(1)              -0.01435     -64.15113     -22.89072     -21.39851
 --------------------------------------------------------
       Center         ----  Spin Dipole Couplings  ----
                      3XX-RR        3YY-RR        3ZZ-RR
 --------------------------------------------------------
     1   Atom        1.179736     -0.588885     -0.590851
     2   Atom        1.116202     -0.454809     -0.661393
     3   Atom        0.002067      0.040132     -0.042198
     4   Atom        0.002067      0.040132     -0.042198
 --------------------------------------------------------
                        XY            XZ            YZ
 --------------------------------------------------------
     1   Atom       -0.000000     -0.000000      0.000000
     2   Atom       -0.000000     -0.000000      0.000000
     3   Atom       -0.000000     -0.000000     -0.058443
     4   Atom       -0.000000     -0.000000      0.058443
 --------------------------------------------------------


 ---------------------------------------------------------------------------------
              Anisotropic Spin Dipole Couplings in Principal Axis System
 ---------------------------------------------------------------------------------

       Atom             a.u.   MegaHertz   Gauss  10(-4) cm-1        Axes

              Baa    -0.5909   -79.287   -28.291   -26.447  0.0000  0.0000  1.0000
     1 C(13)  Bbb    -0.5889   -79.023   -28.197   -26.359 -0.0000  1.0000 -0.0000
              Bcc     1.1797   158.309    56.489    52.806  1.0000 -0.0000  0.0000
 
              Baa    -0.6614   -34.616   -12.352   -11.547  0.0000  0.0000  1.0000
     2 Cl(35) Bbb    -0.4548   -23.804    -8.494    -7.940  0.0000  1.0000 -0.0000
              Bcc     1.1162    58.419    20.845    19.487  1.0000 -0.0000  0.0000
 
              Baa    -0.0725   -38.692   -13.806   -12.906  0.0000  0.4605  0.8877
     3 H(1)   Bbb     0.0021     1.103     0.393     0.368  1.0000 -0.0000  0.0000
              Bcc     0.0705    37.590    13.413    12.539  0.0000  0.8877 -0.4605
 
              Baa    -0.0725   -38.692   -13.806   -12.906 -0.0000 -0.4605  0.8877
     4 H(1)   Bbb     0.0021     1.103     0.393     0.368  1.0000  0.0000  0.0000
              Bcc     0.0705    37.590    13.413    12.539 -0.0000  0.8877  0.4605
 

 ---------------------------------------------------------------------------------

 1\1\GINC-GAMBA\FOpt\UB3LYP\Gen\C1H2Cl1(2)\IRIKURA\16-Jun-2022\0\\# b3l
 yp/gen opt freq\\chloromethyl, B3LYP/pcseg-2\\0,2\C,0.,0.,-1.121755300
 1\Cl,0.,0.,0.5806173788\H,0.,0.9521166846,-1.6214955394\H,0.,-0.952116
 6846,-1.6214955394\\Version=ES64L-G16RevB.01\State=2-B1\HF=-499.499769
 9\S2=0.754594\S2-1=0.\S2A=0.750015\RMSD=5.505e-09\RMSF=1.838e-04\Dipol
 e=0.,0.,-0.4166485\Quadrupole=-1.284628,0.248466,1.0361619,0.,0.,0.\PG
 =C02V [C2(C1Cl1),SGV(H2)]\\@


 NATURE REVEALS EVERY SECRET ONCE.
                    - RALPH WALDO EMERSON
 Job cpu time:       0 days  0 hours  1 minutes 40.2 seconds.
 Elapsed time:       0 days  0 hours  0 minutes  8.5 seconds.
 File lengths (MBytes):  RWF=     10 Int=      0 D2E=      0 Chk=      2 Scr=      1
 Normal termination of Gaussian 16 at Thu Jun 16 16:09:17 2022.
 Link1:  Proceeding to internal job step number  2.
 ------------------------------------------------------------------
 #N Geom=AllCheck Guess=TCheck SCRF=Check GenChk UB3LYP/ChkBas Freq
 ------------------------------------------------------------------
 1/10=4,29=7,30=1,38=1,40=1/1,3;
 2/12=2,40=1/2;
 3/5=7,6=2,11=2,14=-4,25=1,30=1,67=1,70=2,71=2,74=-5,82=7,116=2,140=1/1,2,3;
 4/5=101/1;
 5/5=2,38=6,98=1/2;
 8/6=4,10=90,11=11/1;
 11/6=1,8=1,9=11,15=111,16=1/1,2,10;
 10/6=1/2;
 6/7=2,8=2,9=2,10=2,28=1/1;
 7/8=1,10=1,25=1/1,2,3,16;
 1/10=4,30=1/3;
 99//99;
 Structure from the checkpoint file:  "/wrk/irikura/Gau-29813.chk"
 ---------------------------
 chloromethyl, B3LYP/pcseg-2
 ---------------------------
 Charge =  0 Multiplicity = 2
 Redundant internal coordinates found in file.  (old form).
 C,0,0.,0.,-1.1217553001
 Cl,0,0.,0.,0.5806173788
 H,0,0.,0.9521166846,-1.6214955394
 H,0,0.,-0.9521166846,-1.6214955394
 Recover connectivity data from disk.

 GradGradGradGradGradGradGradGradGradGradGradGradGradGradGradGradGradGrad
 Berny optimization.
 Initialization pass.
                           ----------------------------
                           !    Initial Parameters    !
                           ! (Angstroms and Degrees)  !
 --------------------------                            --------------------------
 ! Name  Definition              Value          Derivative Info.                !
 --------------------------------------------------------------------------------
 ! R1    R(1,2)                  1.7024         calculate D2E/DX2 analytically  !
 ! R2    R(1,3)                  1.0753         calculate D2E/DX2 analytically  !
 ! R3    R(1,4)                  1.0753         calculate D2E/DX2 analytically  !
 ! A1    A(2,1,3)              117.6938         calculate D2E/DX2 analytically  !
 ! A2    A(2,1,4)              117.6938         calculate D2E/DX2 analytically  !
 ! A3    A(3,1,4)              124.6125         calculate D2E/DX2 analytically  !
 ! D1    D(2,1,4,3)            180.0            calculate D2E/DX2 analytically  !
 --------------------------------------------------------------------------------
 Trust Radius=3.00D-01 FncErr=1.00D-07 GrdErr=1.00D-07 EigMax=2.50D+02 EigMin=1.00D-04
 Number of steps in this run=      2 maximum allowed number of steps=      2.
 GradGradGradGradGradGradGradGradGradGradGradGradGradGradGradGradGradGrad

                          Input orientation:                          
 ---------------------------------------------------------------------
 Center     Atomic      Atomic             Coordinates (Angstroms)
 Number     Number       Type             X           Y           Z
 ---------------------------------------------------------------------
      1          6           0        0.000000    0.000000   -1.121755
      2         17           0       -0.000000   -0.000000    0.580617
      3          1           0        0.000000    0.952117   -1.621496
      4          1           0       -0.000000   -0.952117   -1.621496
 ---------------------------------------------------------------------
                    Distance matrix (angstroms):
                    1          2          3          4
     1  C    0.000000
     2  Cl   1.702373   0.000000
     3  H    1.075298   2.399131   0.000000
     4  H    1.075298   2.399131   1.904233   0.000000
 Stoichiometry    CH2Cl(2)
 Framework group  C2V[C2(CCl),SGV(H2)]
 Deg. of freedom     3
 Full point group                 C2V     NOp   4
 Largest Abelian subgroup         C2V     NOp   4
 Largest concise Abelian subgroup C2      NOp   2
                         Standard orientation:                         
 ---------------------------------------------------------------------
 Center     Atomic      Atomic             Coordinates (Angstroms)
 Number     Number       Type             X           Y           Z
 ---------------------------------------------------------------------
      1          6           0        0.000000   -0.000000   -1.117634
      2         17           0       -0.000000    0.000000    0.584738
      3          1           0       -0.000000    0.952117   -1.617374
      4          1           0       -0.000000   -0.952117   -1.617374
 ---------------------------------------------------------------------
 Rotational constants (GHZ):         276.5805968          15.8289751          14.9721070
 Basis read from chk: "/wrk/irikura/Gau-29813.chk" (5D, 7F)
 There are    45 symmetry adapted cartesian basis functions of A1  symmetry.
 There are    10 symmetry adapted cartesian basis functions of A2  symmetry.
 There are    21 symmetry adapted cartesian basis functions of B1  symmetry.
 There are    28 symmetry adapted cartesian basis functions of B2  symmetry.
 There are    38 symmetry adapted basis functions of A1  symmetry.
 There are    10 symmetry adapted basis functions of A2  symmetry.
 There are    19 symmetry adapted basis functions of B1  symmetry.
 There are    25 symmetry adapted basis functions of B2  symmetry.
    92 basis functions,   157 primitive gaussians,   104 cartesian basis functions
    13 alpha electrons       12 beta electrons
       nuclear repulsion energy        45.3891249372 Hartrees.
 NAtoms=    4 NActive=    4 NUniq=    3 SFac= 1.78D+00 NAtFMM=   60 NAOKFM=F Big=F
 Integral buffers will be    131072 words long.
 Raffenetti 2 integral format.
 Two-electron integral symmetry is turned on.
 One-electron integrals computed using PRISM.
 NBasis=    92 RedAO= T EigKep=  2.68D-03  NBF=    38    10    19    25
 NBsUse=    92 1.00D-06 EigRej= -1.00D+00 NBFU=    38    10    19    25
 Initial guess from the checkpoint file:  "/wrk/irikura/Gau-29813.chk"
 B after Tr=     0.000000   -0.000000    0.000000
[...]
     4  H    0.427937  -0.046864  -0.026688   0.552373
          Atomic-Atomic Spin Densities.
               1          2          3          4
     1  C    1.089858  -0.147490   0.005687   0.005687
     2  Cl  -0.147490   0.252699   0.001210   0.001210
     3  H    0.005687   0.001210  -0.038108   0.000524
     4  H    0.005687   0.001210   0.000524  -0.038108
 Mulliken charges and spin densities:
               1          2
     1  C   -0.119433   0.953742
     2  Cl  -0.067052   0.107629
     3  H    0.093242  -0.030686
     4  H    0.093242  -0.030686
 Sum of Mulliken charges =  -0.00000   1.00000
 Mulliken charges and spin densities with hydrogens summed into heavy atoms:
               1          2
     1  C    0.067052   0.892371
     2  Cl  -0.067052   0.107629
 APT charges:
               1
     1  C    0.130294
     2  Cl  -0.238937
     3  H    0.054322
     4  H    0.054322
 Sum of APT charges =   0.00000
 APT charges with hydrogens summed into heavy atoms:
               1
     1  C    0.238937
     2  Cl  -0.238937
 Electronic spatial extent (au):  <R**2>=            114.9004
 Charge=              0.0000 electrons
 Dipole moment (field-independent basis, Debye):
    X=             -0.0000    Y=             -0.0000    Z=             -1.0590  Tot=              1.0590
 Quadrupole moment (field-independent basis, Debye-Ang):
   XX=            -20.6578   YY=            -18.5957   ZZ=            -17.5362
   XY=              0.0000   XZ=              0.0000   YZ=              0.0000
 Traceless Quadrupole moment (field-independent basis, Debye-Ang):
   XX=             -1.7279   YY=              0.3342   ZZ=              1.3937
   XY=              0.0000   XZ=              0.0000   YZ=              0.0000
 Octapole moment (field-independent basis, Debye-Ang**2):
  XXX=              0.0000  YYY=             -0.0000  ZZZ=              2.6906  XYY=             -0.0000
  XXY=             -0.0000  XXZ=              2.2735  XZZ=             -0.0000  YZZ=             -0.0000
  YYZ=             -1.4636  XYZ=             -0.0000
 Hexadecapole moment (field-independent basis, Debye-Ang**3):
 XXXX=            -24.8497 YYYY=            -27.7556 ZZZZ=           -103.1259 XXXY=             -0.0000
 XXXZ=             -0.0000 YYYX=             -0.0000 YYYZ=             -0.0000 ZZZX=             -0.0000
 ZZZY=              0.0000 XXYY=             -9.2517 XXZZ=            -24.7234 YYZZ=            -19.9092
 XXYZ=             -0.0000 YYXZ=              0.0000 ZZXY=              0.0000
 N-N= 4.538912493724D+01 E-N=-1.276623248343D+03  KE= 4.989232713065D+02
 Symmetry A1   KE= 4.035703483944D+02
 Symmetry A2   KE= 5.910452209937D-33
 Symmetry B1   KE= 4.714624809141D+01
 Symmetry B2   KE= 4.820667482069D+01
 Symmetry A1   SP=-1.724105070950D-15
 Symmetry A2   SP= 1.713230119078D-33
 Symmetry B1   SP= 1.000000000000D+00
 Symmetry B2   SP= 2.375137982341D-15
  Exact polarizability:  16.771  -0.000  18.674  -0.000  -0.000  32.632
 Approx polarizability:  22.682   0.000  25.041  -0.000  -0.000  46.653
                          Isotropic Fermi Contact Couplings
        Atom                 a.u.       MegaHertz       Gauss      10(-4) cm-1
     1  C(13)              0.14101     158.52107      56.56426      52.87694
     2  Cl(35)             0.02643      11.58649       4.13435       3.86484
     3  H(1)              -0.01435     -64.15096     -22.89066     -21.39846
     4  H(1)              -0.01435     -64.15096     -22.89066     -21.39846
 --------------------------------------------------------
       Center         ----  Spin Dipole Couplings  ----
                      3XX-RR        3YY-RR        3ZZ-RR
 --------------------------------------------------------
     1   Atom        1.179736     -0.588885     -0.590851
     2   Atom        1.116202     -0.454810     -0.661392
     3   Atom        0.002067      0.040132     -0.042198
     4   Atom        0.002067      0.040132     -0.042198
 --------------------------------------------------------
                        XY            XZ            YZ
 --------------------------------------------------------
     1   Atom       -0.000000     -0.000000     -0.000000
     2   Atom       -0.000000     -0.000000      0.000000
     3   Atom       -0.000000     -0.000000     -0.058443
     4   Atom       -0.000000     -0.000000      0.058443
 --------------------------------------------------------


 ---------------------------------------------------------------------------------
              Anisotropic Spin Dipole Couplings in Principal Axis System
 ---------------------------------------------------------------------------------

       Atom             a.u.   MegaHertz   Gauss  10(-4) cm-1        Axes

              Baa    -0.5909   -79.287   -28.291   -26.447  0.0000  0.0000  1.0000
     1 C(13)  Bbb    -0.5889   -79.023   -28.197   -26.359 -0.0000  1.0000 -0.0000
              Bcc     1.1797   158.309    56.489    52.806  1.0000  0.0000 -0.0000
 
              Baa    -0.6614   -34.616   -12.352   -11.547  0.0000  0.0000  1.0000
     2 Cl(35) Bbb    -0.4548   -23.804    -8.494    -7.940  0.0000  1.0000  0.0000
              Bcc     1.1162    58.419    20.845    19.487  1.0000  0.0000  0.0000
 
              Baa    -0.0725   -38.692   -13.806   -12.906  0.0000  0.4605  0.8877
     3 H(1)   Bbb     0.0021     1.103     0.393     0.368  1.0000 -0.0000  0.0000
              Bcc     0.0705    37.590    13.413    12.539  0.0000  0.8877 -0.4605
 
              Baa    -0.0725   -38.692   -13.806   -12.906 -0.0000 -0.4605  0.8877
     4 H(1)   Bbb     0.0021     1.103     0.393     0.368  1.0000  0.0000  0.0000
              Bcc     0.0705    37.590    13.413    12.539 -0.0000  0.8877  0.4605
 

 ---------------------------------------------------------------------------------

 Calling FoFJK, ICntrl=    100127 FMM=F ISym2X=1 I1Cent= 0 IOpClX= 1 NMat=1 NMatS=1 NMatT=0.
 Full mass-weighted force constant matrix:
 Low frequencies ---  -13.1395  -12.1946   -1.7068   -0.0069   -0.0061   -0.0055
 Low frequencies ---  217.1304  832.5602  995.1663
 Diagonal vibrational polarizability:
       47.5635858       0.0082364       1.5938350
 Harmonic frequencies (cm**-1), IR intensities (KM/Mole), Raman scattering
 activities (A**4/AMU), depolarization ratios for plane and unpolarized
 incident light, reduced masses (AMU), force constants (mDyne/A),
 and normal coordinates:
                      1                      2                      3
                     B1                     A1                     B2
 Frequencies --    217.0815               832.5602               995.1662
 Red. masses --      1.2660                 7.1425                 1.1685
 Frc consts  --      0.0352                 2.9170                 0.6818
 IR Inten    --     83.2889                36.9912                 0.3025
  Atom  AN      X      Y      Z        X      Y      Z        X      Y      Z
     1   6    -0.15  -0.00   0.00     0.00  -0.00   0.61     0.00  -0.11  -0.00
     2  17     0.01   0.00  -0.00    -0.00   0.00  -0.24    -0.00   0.03   0.00
     3   1     0.70   0.00   0.00    -0.00  -0.06   0.53    -0.00   0.23   0.66
     4   1     0.70   0.00  -0.00    -0.00   0.06   0.53    -0.00   0.23  -0.66
                      4                      5                      6
                     A1                     A1                     B2
 Frequencies --   1413.4869              3174.2210              3326.3200
 Red. masses --      1.0945                 1.0405                 1.1297
 Frc consts  --      1.2884                 6.1769                 7.3644
 IR Inten    --     10.2892                 7.1495                 0.0073
  Atom  AN      X      Y      Z        X      Y      Z        X      Y      Z
     1   6    -0.00  -0.00  -0.09     0.00   0.00   0.05    -0.00  -0.11   0.00
     2  17     0.00   0.00  -0.00    -0.00  -0.00  -0.00     0.00   0.00  -0.00
     3   1     0.00   0.35   0.61    -0.00   0.63  -0.31     0.00   0.62  -0.32
     4   1     0.00  -0.35   0.61    -0.00  -0.63  -0.31     0.00   0.62   0.32

 -------------------
 - Thermochemistry -
 -------------------
 Temperature   298.150 Kelvin.  Pressure   1.00000 Atm.
 Atom     1 has atomic number  6 and mass  12.00000
 Atom     2 has atomic number 17 and mass  34.96885
 Atom     3 has atomic number  1 and mass   1.00783
 Atom     4 has atomic number  1 and mass   1.00783
 Molecular mass:    48.98450 amu.
 Principal axes and moments of inertia in atomic units:
                           1         2         3
     Eigenvalues --     6.52519 114.01504 120.54023
           X            0.00000   0.00000   1.00000
           Y            0.00000   1.00000   0.00000
           Z            1.00000   0.00000   0.00000
 This molecule is an asymmetric top.
 Rotational symmetry number  2.
 Rotational temperatures (Kelvin)     13.27378     0.75967     0.71855
 Rotational constants (GHZ):         276.58060    15.82898    14.97211
 Zero-point vibrational energy      59567.1 (Joules/Mol)
                                   14.23687 (Kcal/Mol)
 Warning -- explicit consideration of   1 degrees of freedom as
           vibrations may cause significant error
 Vibrational temperatures:    312.33  1197.87  1431.82  2033.69  4567.00
          (Kelvin)           4785.83
 
 Zero-point correction=                           0.022688 (Hartree/Particle)
 Thermal correction to Energy=                    0.026169
 Thermal correction to Enthalpy=                  0.027113
 Thermal correction to Gibbs Free Energy=        -0.000921
 Sum of electronic and zero-point Energies=           -499.477082
 Sum of electronic and thermal Energies=              -499.473601
 Sum of electronic and thermal Enthalpies=            -499.472657
 Sum of electronic and thermal Free Energies=         -499.500691
 
                     E (Thermal)             CV                S
                      KCal/Mol        Cal/Mol-Kelvin    Cal/Mol-Kelvin
 Total                   16.421              8.859             59.003
 Electronic               0.000              0.000              1.377
 Translational            0.889              2.981             37.591
 Rotational               0.889              2.981             17.756
 Vibrational             14.644              2.897              2.278
 Vibration     1          0.646              1.815              1.983
                       Q            Log10(Q)             Ln(Q)
 Total Bot       0.265209D+01          0.423588          0.975347
 Total V=0       0.723248D+11         10.859287         25.004433
 Vib (Bot)       0.580573D-10        -10.236143        -23.569591
 Vib (Bot)    1  0.912303D+00         -0.039861         -0.091783
 Vib (V=0)       0.158327D+01          0.199556          0.459494
 Vib (V=0)    1  0.154033D+01          0.187615          0.432000
 Electronic      0.200000D+01          0.301030          0.693147
 Translational   0.134754D+08          7.129542         16.416377
 Rotational      0.169496D+04          3.229159          7.435414
 ***** Axes restored to original set *****
 -------------------------------------------------------------------
 Center     Atomic                   Forces (Hartrees/Bohr)
 Number     Number              X              Y              Z
 -------------------------------------------------------------------
      1        6          -0.000000000    0.000000000    0.000502629
      2       17          -0.000000000   -0.000000000    0.000046203
      3        1           0.000000000    0.000002278   -0.000274416
      4        1           0.000000000   -0.000002278   -0.000274416
 -------------------------------------------------------------------
 Cartesian Forces:  Max     0.000502629 RMS     0.000183800
 FormGI is forming the generalized inverse of G from B-inverse, IUseBI=4.

 GradGradGradGradGradGradGradGradGradGradGradGradGradGradGradGradGradGrad
 Berny optimization.
 Internal  Forces:  Max     0.000327726 RMS     0.000167677
 Search for a local minimum.
 Step number   1 out of a maximum of    2
 All quantities printed in internal units (Hartrees-Bohrs-Radians)
 Second derivative matrix not updated -- analytic derivatives used.
 The second derivative matrix:
                          R1        R2        R3        A1        A2
           R1           0.26394
           R2           0.00359   0.37232
           R3           0.00359  -0.00065   0.37232
           A1           0.01513  -0.00069  -0.00590   0.08138
           A2           0.01513  -0.00590  -0.00069  -0.04870   0.08138
           A3          -0.03025   0.00659   0.00659  -0.03267  -0.03267
           D1           0.00000   0.00000  -0.00000   0.00000  -0.00000
                          A3        D1
           A3           0.06535
           D1           0.00000   0.00218
 ITU=  0
     Eigenvalues ---    0.00218   0.08960   0.12997   0.27177   0.37227
     Eigenvalues ---    0.37309
 Angle between quadratic step and forces=  20.04 degrees.
 Linear search not attempted -- first point.
 Iteration  1 RMS(Cart)=  0.00138402 RMS(Int)=  0.00000174
 Iteration  2 RMS(Cart)=  0.00000173 RMS(Int)=  0.00000000
 Iteration  3 RMS(Cart)=  0.00000000 RMS(Int)=  0.00000000
 ClnCor:  largest displacement from symmetrization is 7.27D-11 for atom     1.
 Variable       Old X    -DE/DX   Delta X   Delta X   Delta X     New X
                                 (Linear)    (Quad)   (Total)
    R1        3.21702   0.00005   0.00000  -0.00045  -0.00045   3.21657
    R2        2.03202   0.00013   0.00000   0.00045   0.00045   2.03247
    R3        2.03202   0.00013   0.00000   0.00045   0.00045   2.03247
    A1        2.05414   0.00016   0.00000   0.00177   0.00177   2.05591
    A2        2.05414   0.00016   0.00000   0.00177   0.00177   2.05591
    A3        2.17490  -0.00033   0.00000  -0.00354  -0.00354   2.17136
    D1        3.14159   0.00000   0.00000   0.00000   0.00000   3.14159
         Item               Value     Threshold  Converged?
 Maximum Force            0.000328     0.000450     YES
 RMS     Force            0.000168     0.000300     YES
 Maximum Displacement     0.001808     0.001800     NO 
 RMS     Displacement     0.001385     0.001200     NO 
 Predicted change in Energy=-9.180096D-07
                           ----------------------------
                           ! Non-Optimized Parameters !
                           ! (Angstroms and Degrees)  !
 --------------------------                            --------------------------
 ! Name  Definition              Value          Derivative Info.                !
 --------------------------------------------------------------------------------
 ! R1    R(1,2)                  1.7021         -DE/DX =    0.0                 !
 ! R2    R(1,3)                  1.0755         -DE/DX =    0.0001              !
 ! R3    R(1,4)                  1.0755         -DE/DX =    0.0001              !
 ! A1    A(2,1,3)              117.7952         -DE/DX =    0.0002              !
 ! A2    A(2,1,4)              117.7952         -DE/DX =    0.0002              !
 ! A3    A(3,1,4)              124.4096         -DE/DX =   -0.0003              !
 ! D1    D(2,1,4,3)            180.0            -DE/DX =    0.0                 !
 --------------------------------------------------------------------------------
 GradGradGradGradGradGradGradGradGradGradGradGradGradGradGradGradGradGrad


 ----------------------------------------------------------------------

 Electric dipole moment (input orientation):
 (Debye = 10**-18 statcoulomb cm , SI units = C m)
                  (au)            (Debye)         (10**-30 SI)
   Tot        0.416648D+00      0.105901D+01      0.353249D+01
   x          0.000000D+00      0.000000D+00      0.000000D+00
   y          0.000000D+00      0.000000D+00      0.000000D+00
   z         -0.416648D+00     -0.105901D+01     -0.353249D+01

 Dipole polarizability, Alpha (input orientation).
 (esu units = cm**3 , SI units = C**2 m**2 J**-1)
 Alpha(0;0):
               (au)            (10**-24 esu)      (10**-40 SI)
   iso        0.226926D+02      0.336270D+01      0.374150D+01
   aniso      0.150006D+02      0.222286D+01      0.247326D+01
   xx         0.167714D+02      0.248527D+01      0.276523D+01
   yx         0.000000D+00      0.000000D+00      0.000000D+00
   yy         0.186739D+02      0.276719D+01      0.307891D+01
   zx         0.000000D+00      0.000000D+00      0.000000D+00
   zy         0.000000D+00      0.000000D+00      0.000000D+00
   zz         0.326325D+02      0.483563D+01      0.538037D+01

 ----------------------------------------------------------------------

 Dipole orientation:
     6         -0.00000000          0.00000000          2.11981030
    17         -0.00000000          0.00000000         -1.09720783
     1          0.00000000         -1.79923977          3.06418248
     1         -0.00000000          1.79923977          3.06418248

 Electric dipole moment (dipole orientation):
 (Debye = 10**-18 statcoulomb cm , SI units = C m)
                  (au)            (Debye)         (10**-30 SI)
   Tot        0.416648D+00      0.105901D+01      0.353249D+01
   x          0.000000D+00      0.000000D+00      0.000000D+00
   y          0.000000D+00      0.000000D+00      0.000000D+00
   z          0.416648D+00      0.105901D+01      0.353249D+01

 Dipole polarizability, Alpha (dipole orientation).
 (esu units = cm**3 , SI units = C**2 m**2 J**-1)
 Alpha(0;0):
               (au)            (10**-24 esu)      (10**-40 SI)
   iso        0.226926D+02      0.336270D+01      0.374150D+01
   aniso      0.150006D+02      0.222286D+01      0.247326D+01
   xx         0.167714D+02      0.248527D+01      0.276523D+01
   yx         0.000000D+00      0.000000D+00      0.000000D+00
   yy         0.186739D+02      0.276719D+01      0.307891D+01
   zx         0.000000D+00      0.000000D+00      0.000000D+00
   zy         0.000000D+00      0.000000D+00      0.000000D+00
   zz         0.326325D+02      0.483563D+01      0.538037D+01

 ----------------------------------------------------------------------
 1\1\GINC-GAMBA\Freq\UB3LYP\Gen\C1H2Cl1(2)\IRIKURA\16-Jun-2022\0\\#N Ge
 om=AllCheck Guess=TCheck SCRF=Check GenChk UB3LYP/ChkBas Freq\\chlorom
 ethyl, B3LYP/pcseg-2\\0,2\C,0.,0.,-1.1217553001\Cl,0.,0.,0.5806173788\
 H,0.,0.9521166846,-1.6214955394\H,0.,-0.9521166846,-1.6214955394\\Vers
 ion=ES64L-G16RevB.01\State=2-B1\HF=-499.4997699\S2=0.754594\S2-1=0.\S2
 A=0.750015\RMSD=1.223e-09\RMSF=1.838e-04\ZeroPoint=0.0226879\Thermal=0
 .026169\Dipole=0.,0.,-0.4166483\DipoleDeriv=-0.3743531,0.,0.,0.,0.0684
 078,0.,0.,0.,0.6968263,-0.0151631,0.,0.,0.,-0.1015275,0.,0.,0.,-0.6001
 196,0.1947581,0.,0.,0.,0.0165599,0.0147142,0.,0.0163247,-0.0483533,0.1
 947581,0.,0.,0.,0.0165599,-0.0147142,0.,-0.0163247,-0.0483533\Polar=16
 .7714065,0.,18.6739205,0.,0.,32.6324816\Quadrupole=-1.2846276,0.248466
 3,1.0361613,0.,0.,0.\PG=C02V [C2(C1Cl1),SGV(H2)]\NImag=0\\0.00495181,0
 .,0.65037144,0.,0.,0.43447173,-0.00124403,0.,0.,0.00027189,0.,-0.04075
 009,0.,0.,0.02512676,0.,0.,-0.22105775,0.,0.,0.26393970,-0.00185389,0.
 ,0.,0.00048607,0.,0.,0.00068385,0.,-0.30481067,0.12540253,0.,0.0078116
 7,-0.00720207,0.,0.30583763,0.,0.12369646,-0.10670699,0.,0.01837358,-0
 .02144098,0.,-0.13013525,0.11778082,-0.00185389,0.,0.,0.00048607,0.,0.
 ,0.00068396,0.,0.,0.00068385,0.,-0.30481067,-0.12540253,0.,0.00781167,
 0.00720207,0.,-0.00883862,-0.01193478,0.,0.30583763,0.,-0.12369646,-0.
 10670699,0.,-0.01837358,-0.02144098,0.,0.01193478,0.01036715,0.,0.1301
 3525,0.11778082\\0.,0.,-0.00050263,0.,0.,-0.00004620,0.,-0.00000228,0.
 00027442,0.,0.00000228,0.00027442\\\@


 OLD AGE AND TREACHERY WILL ALWAYS PREVAIL OVER YOUTH AND SKILL.
 Job cpu time:       0 days  0 hours  1 minutes 47.9 seconds.
 Elapsed time:       0 days  0 hours  0 minutes  9.0 seconds.
 File lengths (MBytes):  RWF=     11 Int=      0 D2E=      0 Chk=      2 Scr=      1
 Normal termination of Gaussian 16 at Thu Jun 16 16:09:26 2022.
