 Entering Gaussian System, Link 0=g16
 AtFile(1): pcseg2.gbs
            -H     0
            S   4   1.00
                  0.754732D+02           0.427821D-02
                  0.113575D+02           0.328672D-01
                  0.260081D+01           0.159578D+00
                  0.735503D+00           0.500000D+00
            S   1   1.00
                  0.231761D+00           1.0000000
            S   1   1.00
                  0.741675D-01           1.0000000
            P   1   1.00
                  0.160000D+01           1.0000000
            P   1   1.00
                  0.450000D+00           1.0000000
            D   1   1.00
                  0.125000D+01           1.0000000
            ****
            -C     0
            S   7   1.00
                  0.731999D+04           0.695369D-03
                  0.109818D+04           0.537138D-02
                  0.250014D+03           0.274734D-01
                  0.707586D+02           0.105078D+00
                  0.228595D+02           0.291262D+00
                  0.803936D+01           0.500000D+00
                  0.289309D+01           0.362224D+00
            S   2   1.00
                  0.521640D+01          -0.957844D-01
                  0.556124D+00           0.500000D+00
            S   1   1.00
                  0.228813D+00           1.0000000
            S   1   1.00
                  0.936338D-01           1.0000000
            P   4   1.00
                  0.339855D+02           0.818395D-02
                  0.772957D+01           0.586921D-01
                  0.224954D+01           0.222514D+00
                  0.767681D+00           0.500000D+00
            P   1   1.00
                  0.263283D+00           1.0000000
            P   1   1.00
                  0.848744D-01           1.0000000
            D   1   1.00
                  0.140000D+01           1.0000000
            D   1   1.00
                  0.450000D+00           1.0000000
            F   1   1.00
                  0.950000D+00           1.0000000
            ****
            -O     0
            S   7   1.00
                  0.135887D+05           0.665492D-03
                  0.203847D+04           0.514222D-02
                  0.464041D+03           0.263472D-01
                  0.131339D+03           0.101500D+00
                  0.425340D+02           0.285877D+00
                  0.150429D+02           0.500000D+00
                  0.546616D+01           0.368211D+00
            S   2   1.00
                  0.100915D+02          -0.100084D+00
                  0.110429D+01           0.500000D+00
            S   1   1.00
                  0.448082D+00           1.0000000
            S   1   1.00
                  0.175325D+00           1.0000000
            P   4   1.00
                  0.608220D+02           0.908253D-02
                  0.140332D+02           0.645878D-01
                  0.418244D+01           0.241502D+00
                  0.142490D+01           0.500000D+00
            P   1   1.00
                  0.478741D+00           1.0000000
            P   1   1.00
                  0.146257D+00           1.0000000
            D   1   1.00
                  0.220000D+01           1.0000000
            D   1   1.00
                  0.650000D+00           1.0000000
            F   1   1.00
                  0.110000D+01           1.0000000
            ****
            -N     0
            S   7   1.00
                  0.101643D+05           0.682757D-03
                  0.152481D+04           0.527488D-02
                  0.347119D+03           0.270037D-01
                  0.982389D+02           0.103673D+00
                  0.317799D+02           0.289575D+00
                  0.112240D+02           0.500000D+00
                  0.406611D+01           0.364621D+00
            S   2   1.00
                  0.747898D+01          -0.975681D-01
                  0.805040D+00           0.500000D+00
            S   1   1.00
                  0.324626D+00           1.0000000
            S   1   1.00
                  0.128132D+00           1.0000000
            P   4   1.00
                  0.482704D+02           0.829547D-02
                  0.110815D+02           0.596223D-01
                  0.326643D+01           0.227889D+00
                  0.111680D+01           0.500000D+00
            P   1   1.00
                  0.382049D+00           1.0000000
            P   1   1.00
                  0.121222D+00           1.0000000
            D   1   1.00
                  0.180000D+01           1.0000000
            D   1   1.00
                  0.550000D+00           1.0000000
            F   1   1.00
                  0.102000D+01           1.0000000
            ****
            -F     0
            S   7   1.00
                  0.174507D+05           0.655972D-03
                  0.261768D+04           0.506944D-02
                  0.595857D+03           0.259899D-01
                  0.168651D+03           0.100353D+00
                  0.546654D+02           0.284095D+00
                  0.193717D+02           0.500000D+00
                  0.706202D+01           0.370721D+00
            S   2   1.00
                  0.131197D+02          -0.101997D+00
                  0.145046D+01           0.500000D+00
            S   1   1.00
                  0.588255D+00           1.0000000
            S   1   1.00
                  0.227960D+00           1.0000000
            P   4   1.00
                  0.779407D+02           0.931135D-02
                  0.180425D+02           0.663964D-01
                  0.542342D+01           0.246386D+00
                  0.184876D+01           0.500000D+00
            P   1   1.00
                  0.617455D+00           1.0000000
            P   1   1.00
                  0.185496D+00           1.0000000
            D   1   1.00
                  0.280000D+01           1.0000000
            D   1   1.00
                  0.800000D+00           1.0000000
            F   1   1.00
                  0.120000D+01           1.0000000
            ****
            -Cl     0
            S   8   1.00
                  0.154272D+06           0.222473D-03
                  0.231232D+05           0.172590D-02
                  0.526257D+04           0.899286D-02
                  0.148995D+04           0.367724D-01
                  0.485417D+03           0.121446D+00
                  0.174634D+03           0.304148D+00
                  0.672393D+02           0.500000D+00
                  0.265780D+02           0.360252D+00
            S   3   1.00
                  0.131826D+03          -0.531330D-01
                  0.400703D+02          -0.233346D+00
                  0.789448D+01           0.500000D+00
            S   2   1.00
                  0.427711D+01           0.500000D+00
                  0.196233D+01           0.370517D+00
            S   1   1.00
                  0.520793D+00           1.0000000
            S   1   1.00
                  0.181633D+00           1.0000000
            P   7   1.00
                  0.124440D+04           0.988206D-03
                  0.295109D+03           0.829674D-02
                  0.947224D+02           0.430906D-01
                  0.352588D+02           0.148443D+00
                  0.144211D+02           0.344744D+00
                  0.610371D+01           0.500000D+00
                  0.258886D+01           0.348278D+00
            P   2   1.00
                  0.109447D+02          -0.196768D-01
                  0.104413D+01           0.500000D+00
            P   1   1.00
                  0.376184D+00           1.0000000
            P   1   1.00
                  0.120613D+00           1.0000000
            D   1   1.00
                  0.231000D+01           1.0000000
            D   1   1.00
                  0.520000D+00           1.0000000
            F   1   1.00
                  0.720000D+00           1.0000000
            ****
            -S     0
            S   8   1.00
                  0.134700D+06           0.226231D-03
                  0.201904D+05           0.175488D-02
                  0.459528D+04           0.914190D-02
                  0.130109D+04           0.373551D-01
                  0.423902D+03           0.123121D+00
                  0.152485D+03           0.306801D+00
                  0.586925D+02           0.500000D+00
                  0.231461D+02           0.354358D+00
            S   3   1.00
                  0.116327D+03          -0.491772D-01
                  0.352841D+02          -0.215962D+00
                  0.677831D+01           0.500000D+00
            S   2   1.00
                  0.360404D+01           0.500000D+00
                  0.164871D+01           0.366278D+00
            S   1   1.00
                  0.421821D+00           1.0000000
            S   1   1.00
                  0.147554D+00           1.0000000
            P   7   1.00
                  0.104863D+04           0.105273D-02
                  0.248717D+03           0.879338D-02
                  0.797887D+02           0.453358D-01
                  0.296023D+02           0.154476D+00
                  0.120627D+02           0.352366D+00
                  0.507628D+01           0.500000D+00
                  0.213375D+01           0.346429D+00
            P   2   1.00
                  0.928958D+01          -0.185932D-01
                  0.837819D+00           0.500000D+00
            P   1   1.00
                  0.301495D+00           1.0000000
            P   1   1.00
                  0.974740D-01           1.0000000
            D   1   1.00
                  0.210000D+01           1.0000000
            D   1   1.00
                  0.480000D+00           1.0000000
            F   1   1.00
                  0.660000D+00           1.0000000
            ****
            -Br     0
            S    10   1.00
                  0.233625D+07           0.532336D-04
                  0.349961D+06           0.413715D-03
                  0.796444D+05           0.217123D-02
                  0.225555D+05           0.910109D-02
                  0.735546D+04           0.323789D-01
                  0.265352D+04           0.988755D-01
                  0.103517D+04           0.248138D+00
                  0.422205D+03           0.474328D+00
                  0.180035D+03           0.500000D+00
                  0.793308D+02           0.187769D+00
            S    4   1.00
                  0.620834D+03          -0.226511D-01
                  0.190829D+03          -0.109497D+00
                  0.312505D+02           0.500000D+00
                  0.135270D+02           0.492812D+00
            S    2   1.00
                  0.216097D+02          -0.165418D+00
                  0.372566D+01           0.500000D+00
            S    1   1.00
                  0.169770D+01           1.0000000
            S    1   1.00
                  0.489332D+00           1.0000000
            S    1   1.00
                  0.175712D+00           1.0000000
            P    8   1.00
                  0.960829D+04           0.478974D-03
                  0.227618D+04           0.417853D-02
                  0.736723D+03           0.229315D-01
                  0.281579D+03           0.892653D-01
                  0.118395D+03           0.255288D+00
                  0.527481D+02           0.479074D+00
                  0.245098D+02           0.500000D+00
                  0.112009D+02           0.200944D+00
            P    4   1.00
                  0.587849D+02          -0.189674D-01
                  0.918962D+01           0.264104D+00
                  0.413895D+01           0.500000D+00
                  0.184225D+01           0.319316D+00
            P    1   1.00
                  0.713862D+00           1.0000000
            P    1   1.00
                  0.274232D+00           1.0000000
            P    1   1.00
                  0.944411D-01           1.0000000
            D    7   1.00
                  0.398470D+03           0.204066D-02
                  0.118967D+03           0.175171D-01
                  0.450197D+02           0.829708D-01
                  0.190320D+02           0.236284D+00
                  0.855686D+01           0.428468D+00
                  0.382950D+01           0.500000D+00
                  0.166291D+01           0.349360D+00
            D    1   1.00
                  0.672953D+00           1.0000000
            D    1   1.00
                  0.252000D+00           1.0000000
            F    1   1.00
                  0.530000D+00           1.0000000
            ****
            -Si     0
            S    8   1.00
                  0.996133D+05           0.235546D-03
                  0.149311D+05           0.182707D-02
                  0.339820D+04           0.951425D-02
                  0.962140D+03           0.388172D-01
                  0.313430D+03           0.127328D+00
                  0.112683D+03           0.313522D+00
                  0.433372D+02           0.500000D+00
                  0.170029D+02           0.340347D+00
            S    3   1.00
                  0.884208D+02          -0.404451D-01
                  0.266756D+02          -0.178059D+00
                  0.479640D+01           0.500000D+00
            S    2   1.00
                  0.239385D+01           0.500000D+00
                  0.108333D+01           0.338016D+00
            S    1   1.00
                  0.252420D+00           1.0000000
            S    1   1.00
                  0.891210D-01           1.0000000
            P    7   1.00
                  0.709901D+03           0.123028D-02
                  0.168426D+03           0.101366D-01
                  0.539946D+02           0.511840D-01
                  0.198646D+02           0.169967D+00
                  0.801369D+01           0.370717D+00
                  0.331870D+01           0.500000D+00
                  0.136112D+01           0.344128D+00
            P    2   1.00
                  0.622158D+01          -0.166609D-01
                  0.503049D+00           0.500000D+00
            P    1   1.00
                  0.179848D+00           1.0000000
            P    1   1.00
                  0.591912D-01           1.0000000
            D    1   1.00
                  0.168000D+01           1.0000000
            D    1   1.00
                  0.380000D+00           1.0000000
            F    1   1.00
                  0.540000D+00           1.0000000
            ****
            -P     0
            S    8   1.00
                  0.116416D+06           0.230715D-03
                  0.174500D+05           0.178960D-02
                  0.397149D+04           0.932116D-02
                  0.112447D+04           0.380591D-01
                  0.366347D+03           0.125148D+00
                  0.131757D+03           0.310022D+00
                  0.506988D+02           0.500000D+00
                  0.199436D+02           0.347528D+00
            S    3   1.00
                  0.101878D+03          -0.446755D-01
                  0.308249D+02          -0.196376D+00
                  0.573688D+01           0.500000D+00
            S    2   1.00
                  0.296868D+01           0.500000D+00
                  0.135315D+01           0.355098D+00
            S    1   1.00
                  0.332196D+00           1.0000000
            S    1   1.00
                  0.116229D+00           1.0000000
            P    7   1.00
                  0.873928D+03           0.112375D-02
                  0.207298D+03           0.933330D-02
                  0.664628D+02           0.477213D-01
                  0.245665D+02           0.160733D+00
                  0.996820D+01           0.359760D+00
                  0.416536D+01           0.500000D+00
                  0.173022D+01           0.346593D+00
            P    2   1.00
                  0.772530D+01          -0.175718D-01
                  0.657252D+00           0.500000D+00
            P    1   1.00
                  0.239903D+00           1.0000000
            P    1   1.00
                  0.800988D-01           1.0000000
            D    1   1.00
                  0.189000D+01           1.0000000
            D    1   1.00
                  0.430000D+00           1.0000000
            F    1   1.00
                  0.600000D+00           1.0000000
            ****
            
 Initial command:
 /usr/local/apps/g16_b01_avx/g16/l1.exe "/wrk/irikura/Gau-14065.inp" -scrdir="/wrk/irikura/"
 Entering Link 1 = /usr/local/apps/g16_b01_avx/g16/l1.exe PID=     14067.
  
 Copyright (c) 1988-2017, Gaussian, Inc.  All Rights Reserved.
  
 This is part of the Gaussian(R) 16 program.  It is based on
 the Gaussian(R) 09 system (copyright 2009, Gaussian, Inc.),
 the Gaussian(R) 03 system (copyright 2003, Gaussian, Inc.),
 the Gaussian(R) 98 system (copyright 1998, Gaussian, Inc.),
 the Gaussian(R) 94 system (copyright 1995, Gaussian, Inc.),
 the Gaussian 92(TM) system (copyright 1992, Gaussian, Inc.),
 the Gaussian 90(TM) system (copyright 1990, Gaussian, Inc.),
 the Gaussian 88(TM) system (copyright 1988, Gaussian, Inc.),
 the Gaussian 86(TM) system (copyright 1986, Carnegie Mellon
 University), and the Gaussian 82(TM) system (copyright 1983,
 Carnegie Mellon University). Gaussian is a federally registered
 trademark of Gaussian, Inc.
  
 This software contains proprietary and confidential information,
 including trade secrets, belonging to Gaussian, Inc.
  
 This software is provided under written license and may be
 used, copied, transmitted, or stored only in accord with that
 written license.
  
 The following legend is applicable only to US Government
 contracts under FAR:
  
                    RESTRICTED RIGHTS LEGEND
  
 Use, reproduction and disclosure by the US Government is
 subject to restrictions as set forth in subparagraphs (a)
 and (c) of the Commercial Computer Software - Restricted
 Rights clause in FAR 52.227-19.
  
 Gaussian, Inc.
 340 Quinnipiac St., Bldg. 40, Wallingford CT 06492
  
  
 ---------------------------------------------------------------
 Warning -- This program may not be used in any manner that
 competes with the business of Gaussian, Inc. or will provide
 assistance to any competitor of Gaussian, Inc.  The licensee
 of this program is prohibited from giving any competitor of
 Gaussian, Inc. access to this program.  By using this program,
 the user acknowledges that Gaussian, Inc. is engaged in the
 business of creating and licensing software in the field of
 computational chemistry and represents and warrants to the
 licensee that it is not a competitor of Gaussian, Inc. and that
 it will not use this program in any manner prohibited above.
 ---------------------------------------------------------------
  

 Cite this work as:
 Gaussian 16, Revision B.01,
 M. J. Frisch, G. W. Trucks, H. B. Schlegel, G. E. Scuseria, 
 M. A. Robb, J. R. Cheeseman, G. Scalmani, V. Barone, 
 G. A. Petersson, H. Nakatsuji, X. Li, M. Caricato, A. V. Marenich, 
 J. Bloino, B. G. Janesko, R. Gomperts, B. Mennucci, H. P. Hratchian, 
 J. V. Ortiz, A. F. Izmaylov, J. L. Sonnenberg, D. Williams-Young, 
 F. Ding, F. Lipparini, F. Egidi, J. Goings, B. Peng, A. Petrone, 
 T. Henderson, D. Ranasinghe, V. G. Zakrzewski, J. Gao, N. Rega, 
 G. Zheng, W. Liang, M. Hada, M. Ehara, K. Toyota, R. Fukuda, 
 J. Hasegawa, M. Ishida, T. Nakajima, Y. Honda, O. Kitao, H. Nakai, 
 T. Vreven, K. Throssell, J. A. Montgomery, Jr., J. E. Peralta, 
 F. Ogliaro, M. J. Bearpark, J. J. Heyd, E. N. Brothers, K. N. Kudin, 
 V. N. Staroverov, T. A. Keith, R. Kobayashi, J. Normand, 
 K. Raghavachari, A. P. Rendell, J. C. Burant, S. S. Iyengar, 
 J. Tomasi, M. Cossi, J. M. Millam, M. Klene, C. Adamo, R. Cammi, 
 J. W. Ochterski, R. L. Martin, K. Morokuma, O. Farkas, 
 J. B. Foresman, and D. J. Fox, Gaussian, Inc., Wallingford CT, 2016.
 
 ******************************************
 Gaussian 16:  ES64L-G16RevB.01 20-Dec-2017
                16-Jun-2022 
 ******************************************
 %mem=1000mw
 %nprocs=12
 Will use up to   12 processors via shared memory.
 --------------------
 # b3lyp/gen opt freq
 --------------------
 1/18=20,19=15,26=3,38=1/1,3;
 2/9=110,12=2,17=6,18=5,40=1/2;
 3/5=7,11=2,25=1,30=1,71=1,74=-5/1,2,3;
 4//1;
 5/5=2,38=5/2;
 6/7=2,8=2,9=2,10=2,28=1/1;
 7//1,2,3,16;
 1/18=20,19=15,26=3/3(2);
 2/9=110/2;
 99//99;
 2/9=110/2;
 3/5=7,6=1,11=2,25=1,30=1,71=1,74=-5,82=7/1,2,3;
 4/5=5,16=3,69=1/1;
 5/5=2,38=5/2;
 7//1,2,3,16;
 1/18=20,19=15,26=3/3(-5);
 2/9=110/2;
 6/7=2,8=2,9=2,10=2,19=2,28=1/1;
 99/9=1/99;
 --------------------------------------
 3-methylenecyclopropene, B3LYP/pcseg-2
 --------------------------------------
 Symbolic Z-matrix:
 Charge =  0 Multiplicity = 1
 C                    -1.60909   0.        0. 
 C                    -0.28431   0.        0. 
 C                     0.99716   0.65831   0. 
 C                     0.99716  -0.65831   0. 
 H                    -2.16828   0.92749   0. 
 H                    -2.16828  -0.92749   0. 
 H                     1.56754   1.5724    0. 
 H                     1.56754  -1.5724    0. 
 

 GradGradGradGradGradGradGradGradGradGradGradGradGradGradGradGradGradGrad
 Berny optimization.
 Initialization pass.
                           ----------------------------
                           !    Initial Parameters    !
                           ! (Angstroms and Degrees)  !
 --------------------------                            --------------------------
 ! Name  Definition              Value          Derivative Info.                !
 --------------------------------------------------------------------------------
 ! R1    R(1,2)                  1.3248         estimate D2E/DX2                !
 ! R2    R(1,5)                  1.083          estimate D2E/DX2                !
 ! R3    R(1,6)                  1.083          estimate D2E/DX2                !
 ! R4    R(2,3)                  1.4407         estimate D2E/DX2                !
 ! R5    R(2,4)                  1.4407         estimate D2E/DX2                !
 ! R6    R(3,4)                  1.3166         estimate D2E/DX2                !
 ! R7    R(3,7)                  1.0775         estimate D2E/DX2                !
 ! R8    R(4,8)                  1.0775         estimate D2E/DX2                !
 ! A1    A(2,1,5)              121.0859         estimate D2E/DX2                !
 ! A2    A(2,1,6)              121.0859         estimate D2E/DX2                !
 ! A3    A(5,1,6)              117.8282         estimate D2E/DX2                !
 ! A4    A(1,2,3)              152.81           estimate D2E/DX2                !
 ! A5    A(1,2,4)              152.81           estimate D2E/DX2                !
 ! A6    A(2,3,7)              149.1536         estimate D2E/DX2                !
 ! A7    A(4,3,7)              148.0364         estimate D2E/DX2                !
 ! A8    A(2,4,8)              149.1536         estimate D2E/DX2                !
 ! A9    A(3,4,8)              148.0364         estimate D2E/DX2                !
 ! D1    D(5,1,2,3)              0.0            estimate D2E/DX2                !
 ! D2    D(5,1,2,4)            180.0            estimate D2E/DX2                !
 ! D3    D(6,1,2,3)            180.0            estimate D2E/DX2                !
 ! D4    D(6,1,2,4)              0.0            estimate D2E/DX2                !
 ! D5    D(1,2,3,7)              0.0            estimate D2E/DX2                !
 ! D6    D(1,2,4,8)              0.0            estimate D2E/DX2                !
 ! D7    D(2,3,4,7)            180.0            estimate D2E/DX2                !
 ! D8    D(7,3,4,8)              0.0            estimate D2E/DX2                !
 --------------------------------------------------------------------------------
 Trust Radius=3.00D-01 FncErr=1.00D-07 GrdErr=1.00D-06 EigMax=2.50D+02 EigMin=1.00D-04
 Number of steps in this run=     35 maximum allowed number of steps=    100.
 GradGradGradGradGradGradGradGradGradGradGradGradGradGradGradGradGradGrad

                          Input orientation:                          
 ---------------------------------------------------------------------
 Center     Atomic      Atomic             Coordinates (Angstroms)
 Number     Number       Type             X           Y           Z
 ---------------------------------------------------------------------
      1          6           0       -1.609093    0.000000    0.000000
      2          6           0       -0.284314    0.000000    0.000000
      3          6           0        0.997157    0.658305    0.000000
      4          6           0        0.997157   -0.658305    0.000000
      5          1           0       -2.168278    0.927488    0.000000
      6          1           0       -2.168278   -0.927488    0.000000
      7          1           0        1.567542    1.572404    0.000000
      8          1           0        1.567542   -1.572404    0.000000
 ---------------------------------------------------------------------
                    Distance matrix (angstroms):
                    1          2          3          4          5
     1  C    0.000000
     2  C    1.324779   0.000000
     3  C    2.688104   1.440671   0.000000
     4  C    2.688104   1.440671   1.316610   0.000000
     5  H    1.083015   2.099894   3.176860   3.540440   0.000000
     6  H    1.083015   2.099894   3.540440   3.176860   1.854976
     7  H    3.544498   2.429367   1.077458   2.302477   3.791077
     8  H    3.544498   2.429367   2.302477   1.077458   4.495087
                    6          7          8
     6  H    0.000000
     7  H    4.495087   0.000000
     8  H    3.791077   3.144808   0.000000
 Stoichiometry    C4H4
 Framework group  C2V[C2(CC),SGV(C2H4)]
 Deg. of freedom     7
 Full point group                 C2V     NOp   4
 Largest Abelian subgroup         C2V     NOp   4
 Largest concise Abelian subgroup C2      NOp   2
                         Standard orientation:                         
 ---------------------------------------------------------------------
 Center     Atomic      Atomic             Coordinates (Angstroms)
 Number     Number       Type             X           Y           Z
 ---------------------------------------------------------------------
      1          6           0        0.000000    0.000000    1.587806
      2          6           0        0.000000    0.000000    0.263027
      3          6           0        0.000000    0.658305   -1.018444
      4          6           0       -0.000000   -0.658305   -1.018444
      5          1           0        0.000000    0.927488    2.146991
      6          1           0       -0.000000   -0.927488    2.146991
      7          1           0        0.000000    1.572404   -1.588829
      8          1           0       -0.000000   -1.572404   -1.588829
 ---------------------------------------------------------------------
 Rotational constants (GHZ):          29.5227252           7.1854998           5.7789647
 General basis read from cards:  (5D, 7F)
 There are    78 symmetry adapted cartesian basis functions of A1  symmetry.
 There are    25 symmetry adapted cartesian basis functions of A2  symmetry.
 There are    35 symmetry adapted cartesian basis functions of B1  symmetry.
 There are    62 symmetry adapted cartesian basis functions of B2  symmetry.
 There are    66 symmetry adapted basis functions of A1  symmetry.
 There are    24 symmetry adapted basis functions of A2  symmetry.
 There are    32 symmetry adapted basis functions of B1  symmetry.
 There are    54 symmetry adapted basis functions of B2  symmetry.
   176 basis functions,   276 primitive gaussians,   200 cartesian basis functions
    14 alpha electrons       14 beta electrons
       nuclear repulsion energy        96.1747291791 Hartrees.
 NAtoms=    8 NActive=    8 NUniq=    5 SFac= 2.56D+00 NAtFMM=   60 NAOKFM=F Big=F
 Integral buffers will be    131072 words long.
 Raffenetti 2 integral format.
 Two-electron integral symmetry is turned on.
 One-electron integrals computed using PRISM.
 NBasis=   176 RedAO= T EigKep=  1.16D-04  NBF=    66    24    32    54
 NBsUse=   176 1.00D-06 EigRej= -1.00D+00 NBFU=    66    24    32    54
 ExpMin= 7.42D-02 ExpMax= 7.32D+03 ExpMxC= 2.50D+02 IAcc=3 IRadAn=         5 AccDes= 0.00D+00
 Harris functional with IExCor=  402 and IRadAn=       5 diagonalized for initial guess.
 HarFok:  IExCor=  402 AccDes= 0.00D+00 IRadAn=         5 IDoV= 1 UseB2=F ITyADJ=14
 ICtDFT=  3500011 ScaDFX=  1.000000  1.000000  1.000000  1.000000
 FoFCou: FMM=F IPFlag=           0 FMFlag=      100000 FMFlg1=           0
         NFxFlg=           0 DoJE=T BraDBF=F KetDBF=T FulRan=T
         wScrn=  0.000000 ICntrl=       500 IOpCl=  0 I1Cent=   200000004 NGrid=           0
         NMat0=    1 NMatS0=      1 NMatT0=    0 NMatD0=    1 NMtDS0=    0 NMtDT0=    0
 Petite list used in FoFCou.
 Initial guess orbital symmetries:
       Occupied  (A1) (A1) (B2) (A1) (A1) (A1) (B2) (A1) (A1) (B2)
                 (A1) (B1) (B2) (B1)
       Virtual   (A2) (B1) (B2) (A1) (A1) (B2) (A1) (A1) (B2) (B1)
                 (B2) (A1) (A1) (B1) (A2) (B2) (A1) (A1) (B1) (B2)
                 (A1) (A1) (B2) (B2) (A1) (A1) (B2) (B2) (A1) (B2)
                 (A2) (B1) (A2) (B1) (A1) (A1) (A1) (B2) (A1) (B2)
                 (B1) (A2) (A1) (B2) (B2) (A1) (B1) (B1) (B2) (A1)
                 (B1) (A2) (B2) (B1) (A1) (A2) (A1) (B2) (B1) (A1)
                 (A2) (B2) (A1) (A1) (B2) (B2) (B2) (A1) (A2) (B1)
                 (A1) (A1) (B2) (B2) (A1) (A1) (A1) (B2) (B2) (A1)
                 (B1) (A2) (B1) (A1) (B2) (B1) (B1) (A1) (A2) (B2)
                 (A1) (B2) (B1) (B2) (A1) (A1) (A2) (B1) (B2) (A2)
                 (A1) (B2) (A2) (B1) (B2) (A1) (B1) (A2) (A2) (A1)
                 (A1) (A1) (B2) (B1) (A1) (A2) (B2) (B2) (B1) (A1)
                 (A2) (B2) (A2) (A1) (B1) (B2) (B1) (A1) (A2) (B1)
                 (B2) (A1) (B1) (A1) (B2) (A2) (B2) (A1) (B2) (A2)
                 (B1) (A1) (B2) (A1) (B2) (B1) (A1) (B2) (B1) (A1)
                 (A2) (A2) (A1) (B2) (A1) (A1) (B2) (B2) (B2) (B2)
                 (A1) (A1)
 The electronic state of the initial guess is 1-A1.
 Keep R1 ints in memory in symmetry-blocked form, NReq=152267675.
 Requested convergence on RMS density matrix=1.00D-08 within 128 cycles.
 Requested convergence on MAX density matrix=1.00D-06.
 Requested convergence on             energy=1.00D-06.
 No special actions if energy rises.
 Integral accuracy reduced to 1.0D-05 until final iterations.
 Initial convergence to 1.0D-05 achieved.  Increase integral accuracy.
 SCF Done:  E(RB3LYP) =  -154.766557443     A.U. after   12 cycles
            NFock= 12  Conv=0.51D-08     -V/T= 2.0043

 **********************************************************************

            Population analysis using the SCF Density.

 **********************************************************************

 Orbital symmetries:
       Occupied  (A1) (B2) (A1) (A1) (A1) (A1) (B2) (A1) (A1) (B2)
                 (B1) (A1) (B2) (B1)
       Virtual   (A2) (A1) (B2) (B1) (A1) (B2) (A1) (A1) (B2) (B1)
                 (B2) (A1) (B1) (A2) (A1) (B2) (A1) (B2) (A1) (B1)
                 (A1) (B2) (A1) (B2) (A1) (B2) (A1) (B2) (B2) (A1)
                 (A2) (B1) (A2) (B1) (A1) (A1) (A1) (B2) (A1) (B2)
                 (B1) (A2) (A1) (B2) (B2) (B1) (A1) (B2) (B1) (A1)
                 (A2) (B1) (B2) (A1) (A2) (B1) (B2) (A1) (B1) (A1)
                 (B2) (A2) (A1) (B2) (A1) (B2) (B2) (A1) (A2) (B1)
                 (A1) (A1) (B2) (B2) (A1) (A1) (A1) (B2) (B2) (A1)
                 (B1) (A2) (B1) (B2) (A1) (B1) (B1) (A1) (A2) (B2)
                 (A1) (B2) (B1) (B2) (A1) (A2) (A1) (B1) (B2) (A2)
                 (A1) (B2) (A1) (B1) (A2) (B1) (B2) (A2) (A2) (A1)
                 (A1) (A1) (B2) (B1) (A2) (A1) (B2) (B2) (B1) (A1)
                 (B2) (A2) (B1) (A1) (A2) (B2) (B1) (A2) (B1) (A1)
                 (B2) (A1) (B1) (A1) (B2) (A2) (B2) (A1) (B2) (A2)
                 (B1) (A1) (B2) (A1) (B2) (B1) (A1) (B2) (B1) (A1)
                 (A2) (A2) (A1) (B2) (A1) (B2) (A1) (B2) (B2) (B2)
                 (A1) (A1)
 The electronic state is 1-A1.
 Alpha  occ. eigenvalues --  -10.21853 -10.21748 -10.20441 -10.13861  -0.91369
 Alpha  occ. eigenvalues --   -0.71316  -0.59397  -0.56808  -0.47956  -0.42506
 Alpha  occ. eigenvalues --   -0.38919  -0.38094  -0.30963  -0.21457
 Alpha virt. eigenvalues --   -0.03290   0.02735   0.03910   0.04395   0.04929
 Alpha virt. eigenvalues --    0.07501   0.10271   0.12506   0.14596   0.15773
 Alpha virt. eigenvalues --    0.17486   0.18549   0.21859   0.24074   0.24788
 Alpha virt. eigenvalues --    0.27102   0.28596   0.30593   0.30593   0.30700
 Alpha virt. eigenvalues --    0.31862   0.36384   0.37866   0.39525   0.46507
 Alpha virt. eigenvalues --    0.49537   0.51268   0.55538   0.62066   0.65332
 Alpha virt. eigenvalues --    0.68196   0.71021   0.79732   0.84024   0.88049
 Alpha virt. eigenvalues --    0.89371   0.91084   0.95778   1.00212   1.00626
 Alpha virt. eigenvalues --    1.04391   1.04594   1.05780   1.06473   1.11718
 Alpha virt. eigenvalues --    1.18543   1.19382   1.21579   1.23018   1.26481
 Alpha virt. eigenvalues --    1.28951   1.31038   1.31488   1.35168   1.37242
 Alpha virt. eigenvalues --    1.38273   1.46395   1.47961   1.55822   1.56758
 Alpha virt. eigenvalues --    1.58666   1.58956   1.60581   1.67225   1.67880
 Alpha virt. eigenvalues --    1.78603   1.82023   1.86639   1.88106   1.92811
 Alpha virt. eigenvalues --    1.97037   2.00675   2.07680   2.22477   2.30573
 Alpha virt. eigenvalues --    2.45618   2.57176   2.64433   2.69972   2.82041
 Alpha virt. eigenvalues --    2.91504   3.07445   3.11350   3.16722   3.17163
 Alpha virt. eigenvalues --    3.20284   3.31540   3.36682   3.42472   3.47641
 Alpha virt. eigenvalues --    3.50115   3.58827   3.62725   3.65608   3.70593
 Alpha virt. eigenvalues --    3.72893   3.77725   3.84507   3.85031   3.85094
 Alpha virt. eigenvalues --    3.90430   3.90974   3.97329   3.97361   3.98032
 Alpha virt. eigenvalues --    3.98795   3.99327   4.00835   4.09179   4.12103
 Alpha virt. eigenvalues --    4.13321   4.15887   4.16760   4.20231   4.22007
 Alpha virt. eigenvalues --    4.22059   4.25435   4.30539   4.33569   4.36106
 Alpha virt. eigenvalues --    4.37964   4.38945   4.41889   4.42979   4.43062
 Alpha virt. eigenvalues --    4.47510   4.51182   4.52667   4.54937   4.56383
 Alpha virt. eigenvalues --    4.57209   4.65822   4.72926   4.76741   4.79587
 Alpha virt. eigenvalues --    4.85467   4.89314   4.95081   5.07134   5.13845
 Alpha virt. eigenvalues --    5.17069   5.18290   5.22548   5.33976   5.36709
 Alpha virt. eigenvalues --    5.37409   5.48905   5.53529   5.62641   5.67284
 Alpha virt. eigenvalues --    5.69201   5.78043   5.85879   5.89271   5.91593
 Alpha virt. eigenvalues --    6.11160   6.11965   6.27874   6.56678   6.79400
 Alpha virt. eigenvalues --    6.90503   7.25260
          Condensed to atoms (all electrons):
               1          2          3          4          5          6
     1  C    4.839333   0.618329  -0.072906  -0.072906   0.446227   0.446227
     2  C    0.618329   4.900473   0.273744   0.273744  -0.055892  -0.055892
     3  C   -0.072906   0.273744   4.908812   0.559734  -0.014447   0.008552
     4  C   -0.072906   0.273744   0.559734   4.908812   0.008552  -0.014447
     5  H    0.446227  -0.055892  -0.014447   0.008552   0.609473  -0.033095
     6  H    0.446227  -0.055892   0.008552  -0.014447  -0.033095   0.609473
     7  H    0.000314  -0.026922   0.414607  -0.026496   0.001379  -0.000468
     8  H    0.000314  -0.026922  -0.026496   0.414607  -0.000468   0.001379
               7          8
     1  C    0.000314   0.000314
     2  C   -0.026922  -0.026922
     3  C    0.414607  -0.026496
     4  C   -0.026496   0.414607
     5  H    0.001379  -0.000468
     6  H   -0.000468   0.001379
     7  H    0.575516  -0.004058
     8  H   -0.004058   0.575516
 Mulliken charges:
               1
     1  C   -0.204933
     2  C    0.099339
     3  C   -0.051602
     4  C   -0.051602
     5  H    0.038270
     6  H    0.038270
     7  H    0.066129
     8  H    0.066129
 Sum of Mulliken charges =   0.00000
 Mulliken charges with hydrogens summed into heavy atoms:
               1
     1  C   -0.128392
     2  C    0.099339
     3  C    0.014527
     4  C    0.014527
 Electronic spatial extent (au):  <R**2>=            245.7652
 Charge=              0.0000 electrons
 Dipole moment (field-independent basis, Debye):
    X=             -0.0000    Y=             -0.0000    Z=             -2.1091  Tot=              2.1091
 Quadrupole moment (field-independent basis, Debye-Ang):
   XX=            -26.8097   YY=            -20.6625   ZZ=            -23.1301
   XY=              0.0000   XZ=              0.0000   YZ=             -0.0000
 Traceless Quadrupole moment (field-independent basis, Debye-Ang):
   XX=             -3.2756   YY=              2.8715   ZZ=              0.4040
   XY=              0.0000   XZ=              0.0000   YZ=             -0.0000
 Octapole moment (field-independent basis, Debye-Ang**2):
  XXX=              0.0000  YYY=              0.0000  ZZZ=             -4.2603  XYY=              0.0000
  XXY=              0.0000  XXZ=             -2.7241  XZZ=              0.0000  YZZ=              0.0000
  YYZ=             -5.2998  XYZ=             -0.0000
 Hexadecapole moment (field-independent basis, Debye-Ang**3):
 XXXX=            -33.2763 YYYY=            -70.9930 ZZZZ=           -238.4822 XXXY=             -0.0000
 XXXZ=             -0.0000 YYYX=             -0.0000 YYYZ=             -0.0000 ZZZX=             -0.0000
 ZZZY=             -0.0000 XXYY=            -19.6267 XXZZ=            -52.4047 YYZZ=            -40.5097
 XXYZ=             -0.0000 YYXZ=             -0.0000 ZZXY=              0.0000
 N-N= 9.617472917908D+01 E-N=-5.509751472307D+02  KE= 1.541041486314D+02
 Symmetry A1   KE= 1.104779033571D+02
 Symmetry A2   KE=-4.247483921840D-21
 Symmetry B1   KE= 4.385148399169D+00
 Symmetry B2   KE= 3.924109687512D+01
 Calling FoFJK, ICntrl=      2127 FMM=F ISym2X=1 I1Cent= 0 IOpClX= 0 NMat=1 NMatS=1 NMatT=0.
 ***** Axes restored to original set *****
 -------------------------------------------------------------------
 Center     Atomic                   Forces (Hartrees/Bohr)
 Number     Number              X              Y              Z
 -------------------------------------------------------------------
      1        6          -0.003005002   -0.000000000   -0.000000000
      2        6           0.005524927    0.000000000   -0.000000000
      3        6          -0.002018066   -0.003864025   -0.000000000
      4        6          -0.002018066    0.003864025    0.000000000
      5        1           0.001136772   -0.001497483    0.000000000
      6        1           0.001136772    0.001497483    0.000000000
      7        1          -0.000378668   -0.001156604    0.000000000
      8        1          -0.000378668    0.001156604    0.000000000
 -------------------------------------------------------------------
 Cartesian Forces:  Max     0.005524927 RMS     0.001910422

 GradGradGradGradGradGradGradGradGradGradGradGradGradGradGradGradGradGrad
 Berny optimization.
 FormGI is forming the generalized inverse of G from B-inverse, IUseBI=4.
 Internal  Forces:  Max     0.003749311 RMS     0.001261150
 Search for a local minimum.
 Step number   1 out of a maximum of   35
 All quantities printed in internal units (Hartrees-Bohrs-Radians)
 Mixed Optimization -- RFO/linear search
 Second derivative matrix not updated -- first step.
 ITU=  0
     Eigenvalues ---    0.01919   0.02691   0.03084   0.03084   0.03110
     Eigenvalues ---    0.16000   0.16000   0.16000   0.16000   0.25000
     Eigenvalues ---    0.34711   0.35632   0.35632   0.36303   0.36303
     Eigenvalues ---    0.38527   0.58544   0.60756
 RFO step:  Lambda=-9.06917925D-05 EMin= 1.91930656D-02
 Linear search not attempted -- first point.
 Iteration  1 RMS(Cart)=  0.00326412 RMS(Int)=  0.00000190
 Iteration  2 RMS(Cart)=  0.00000184 RMS(Int)=  0.00000002
 Iteration  3 RMS(Cart)=  0.00000000 RMS(Int)=  0.00000002
 ClnCor:  largest displacement from symmetrization is 1.02D-12 for atom     1.
 Variable       Old X    -DE/DX   Delta X   Delta X   Delta X     New X
                                 (Linear)    (Quad)   (Total)
    R1        2.50347   0.00073   0.00000   0.00120   0.00120   2.50467
    R2        2.04660  -0.00187   0.00000  -0.00524  -0.00524   2.04136
    R3        2.04660  -0.00187   0.00000  -0.00524  -0.00524   2.04136
    R4        2.72247  -0.00271   0.00000  -0.00668  -0.00668   2.71579
    R5        2.72247  -0.00271   0.00000  -0.00668  -0.00668   2.71579
    R6        2.48803  -0.00375   0.00000  -0.00622  -0.00622   2.48181
    R7        2.03610  -0.00118   0.00000  -0.00325  -0.00325   2.03285
    R8        2.03610  -0.00118   0.00000  -0.00325  -0.00325   2.03285
    A1        2.11335  -0.00014   0.00000  -0.00085  -0.00085   2.11249
    A2        2.11335  -0.00014   0.00000  -0.00085  -0.00085   2.11249
    A3        2.05649   0.00027   0.00000   0.00171   0.00171   2.05820
    A4        2.66704   0.00026   0.00000   0.00002   0.00002   2.66706
    A5        2.66704   0.00026   0.00000   0.00002   0.00002   2.66706
    A6        2.60322   0.00017   0.00000   0.00184   0.00184   2.60506
    A7        2.58372  -0.00043   0.00000  -0.00186  -0.00186   2.58186
    A8        2.60322   0.00017   0.00000   0.00184   0.00184   2.60506
    A9        2.58372  -0.00043   0.00000  -0.00186  -0.00186   2.58186
    D1       -0.00000  -0.00000   0.00000  -0.00000   0.00000   0.00000
    D2        3.14159  -0.00000   0.00000  -0.00000   0.00000   3.14159
    D3        3.14159   0.00000   0.00000   0.00000   0.00000   3.14159
    D4       -0.00000   0.00000   0.00000   0.00000   0.00000   0.00000
    D5        0.00000   0.00000   0.00000   0.00000   0.00000   0.00000
    D6        0.00000  -0.00000   0.00000  -0.00000  -0.00000   0.00000
    D7        3.14159   0.00000   0.00000   0.00000   0.00000   3.14159
    D8       -0.00000   0.00000   0.00000   0.00000   0.00000   0.00000
         Item               Value     Threshold  Converged?
 Maximum Force            0.003749     0.000450     NO 
 RMS     Force            0.001261     0.000300     NO 
 Maximum Displacement     0.007881     0.001800     NO 
 RMS     Displacement     0.003264     0.001200     NO 
 Predicted change in Energy=-4.535609D-05
 GradGradGradGradGradGradGradGradGradGradGradGradGradGradGradGradGradGrad

                          Input orientation:                          
 ---------------------------------------------------------------------
 Center     Atomic      Atomic             Coordinates (Angstroms)
 Number     Number       Type             X           Y           Z
 ---------------------------------------------------------------------
      1          6           0       -1.608679    0.000000   -0.000000
      2          6           0       -0.283263   -0.000000   -0.000000
      3          6           0        0.995078    0.656658    0.000000
      4          6           0        0.995078   -0.656658   -0.000000
      5          1           0       -2.165641    0.925587   -0.000000
      6          1           0       -2.165641   -0.925587   -0.000000
      7          1           0        1.566251    1.568234    0.000000
      8          1           0        1.566251   -1.568234   -0.000000
 ---------------------------------------------------------------------
                    Distance matrix (angstroms):
                    1          2          3          4          5
     1  C    0.000000
     2  C    1.325416   0.000000
     3  C    2.685284   1.437135   0.000000
     4  C    2.685284   1.437135   1.313316   0.000000
     5  H    1.080240   2.097631   3.172139   3.534635   0.000000
     6  H    1.080240   2.097631   3.534635   3.172139   1.851174
     7  H    3.541120   2.424883   1.075736   2.297038   3.786820
     8  H    3.541120   2.424883   2.297038   1.075736   4.488447
                    6          7          8
     6  H    0.000000
     7  H    4.488447   0.000000
     8  H    3.786820   3.136467   0.000000
 Stoichiometry    C4H4
 Framework group  C2V[C2(CC),SGV(C2H4)]
 Deg. of freedom     7
 Full point group                 C2V     NOp   4
 Largest Abelian subgroup         C2V     NOp   4
 Largest concise Abelian subgroup C2      NOp   2
                         Standard orientation:                         
 ---------------------------------------------------------------------
 Center     Atomic      Atomic             Coordinates (Angstroms)
 Number     Number       Type             X           Y           Z
 ---------------------------------------------------------------------
      1          6           0       -0.000000    0.000000    1.586911
      2          6           0       -0.000000    0.000000    0.261495
      3          6           0        0.000000    0.656658   -1.016846
      4          6           0       -0.000000   -0.656658   -1.016846
      5          1           0        0.000000    0.925587    2.143873
      6          1           0       -0.000000   -0.925587    2.143873
      7          1           0        0.000000    1.568234   -1.588018
      8          1           0       -0.000000   -1.568234   -1.588018
 ---------------------------------------------------------------------
 Rotational constants (GHZ):          29.6708778           7.2012430           5.7948172
 Basis read from rwf:  (5D, 7F)
 There are    78 symmetry adapted cartesian basis functions of A1  symmetry.
 There are    25 symmetry adapted cartesian basis functions of A2  symmetry.
 There are    35 symmetry adapted cartesian basis functions of B1  symmetry.
 There are    62 symmetry adapted cartesian basis functions of B2  symmetry.
 There are    66 symmetry adapted basis functions of A1  symmetry.
 There are    24 symmetry adapted basis functions of A2  symmetry.
 There are    32 symmetry adapted basis functions of B1  symmetry.
 There are    54 symmetry adapted basis functions of B2  symmetry.
   176 basis functions,   276 primitive gaussians,   200 cartesian basis functions
    14 alpha electrons       14 beta electrons
       nuclear repulsion energy        96.3325270595 Hartrees.
 NAtoms=    8 NActive=    8 NUniq=    5 SFac= 2.56D+00 NAtFMM=   60 NAOKFM=F Big=F
 Integral buffers will be    131072 words long.
 Raffenetti 2 integral format.
 Two-electron integral symmetry is turned on.
 One-electron integrals computed using PRISM.
 NBasis=   176 RedAO= T EigKep=  1.16D-04  NBF=    66    24    32    54
 NBsUse=   176 1.00D-06 EigRej= -1.00D+00 NBFU=    66    24    32    54
 Initial guess from the checkpoint file:  "/wrk/irikura/Gau-14067.chk"
 B after Tr=     0.000000    0.000000    0.000000
         Rot=    1.000000   -0.000000    0.000000   -0.000000 Ang=   0.00 deg.
 Initial guess orbital symmetries:
       Occupied  (A1) (B2) (A1) (A1) (A1) (A1) (B2) (A1) (A1) (B2)
                 (B1) (A1) (B2) (B1)
       Virtual   (A2) (A1) (B2) (B1) (A1) (B2) (A1) (A1) (B2) (B1)
                 (B2) (A1) (B1) (A2) (A1) (B2) (A1) (B2) (A1) (B1)
                 (A1) (B2) (A1) (B2) (A1) (B2) (A1) (B2) (B2) (A1)
                 (A2) (B1) (A2) (B1) (A1) (A1) (A1) (B2) (A1) (B2)
                 (B1) (A2) (A1) (B2) (B2) (B1) (A1) (B2) (B1) (A1)
                 (A2) (B1) (B2) (A1) (A2) (B1) (B2) (A1) (B1) (A1)
                 (B2) (A2) (A1) (B2) (A1) (B2) (B2) (A1) (A2) (B1)
                 (A1) (A1) (B2) (B2) (A1) (A1) (A1) (B2) (B2) (A1)
                 (B1) (A2) (B1) (B2) (A1) (B1) (B1) (A1) (A2) (B2)
                 (A1) (B2) (B1) (B2) (A1) (A2) (A1) (B1) (B2) (A2)
                 (A1) (B2) (A1) (B1) (A2) (B1) (B2) (A2) (A2) (A1)
                 (A1) (A1) (B2) (B1) (A2) (A1) (B2) (B2) (B1) (A1)
                 (B2) (A2) (B1) (A1) (A2) (B2) (B1) (A2) (B1) (A1)
                 (B2) (A1) (B1) (A1) (B2) (A2) (B2) (A1) (B2) (A2)
                 (B1) (A1) (B2) (A1) (B2) (B1) (A1) (B2) (B1) (A1)
                 (A2) (A2) (A1) (B2) (A1) (B2) (A1) (B2) (B2) (B2)
                 (A1) (A1)
 Keep R1 ints in memory in symmetry-blocked form, NReq=152267675.
 Requested convergence on RMS density matrix=1.00D-08 within 128 cycles.
 Requested convergence on MAX density matrix=1.00D-06.
 Requested convergence on             energy=1.00D-06.
 No special actions if energy rises.
 SCF Done:  E(RB3LYP) =  -154.766608448     A.U. after    8 cycles
            NFock=  8  Conv=0.45D-08     -V/T= 2.0041
 Calling FoFJK, ICntrl=      2127 FMM=F ISym2X=1 I1Cent= 0 IOpClX= 0 NMat=1 NMatS=1 NMatT=0.
 ***** Axes restored to original set *****
 -------------------------------------------------------------------
 Center     Atomic                   Forces (Hartrees/Bohr)
 Number     Number              X              Y              Z
 -------------------------------------------------------------------
      1        6          -0.000633786    0.000000000   -0.000000000
      2        6           0.001550056   -0.000000000   -0.000000000
      3        6          -0.000712591   -0.000284156   -0.000000000
      4        6          -0.000712591    0.000284156    0.000000000
      5        1           0.000119278    0.000052345    0.000000000
      6        1           0.000119278   -0.000052345    0.000000000
      7        1           0.000135178   -0.000063130    0.000000000
      8        1           0.000135178    0.000063130    0.000000000
 -------------------------------------------------------------------
 Cartesian Forces:  Max     0.001550056 RMS     0.000411292

 GradGradGradGradGradGradGradGradGradGradGradGradGradGradGradGradGradGrad
 Berny optimization.
 Using GEDIIS/GDIIS optimizer.
 FormGI is forming the generalized inverse of G from B-inverse, IUseBI=4.
 Internal  Forces:  Max     0.000598109 RMS     0.000205446
 Search for a local minimum.
 Step number   2 out of a maximum of   35
 All quantities printed in internal units (Hartrees-Bohrs-Radians)
 Mixed Optimization -- En-DIIS/RFO-DIIS
 Update second derivatives using D2CorX and points    1    2
 DE= -5.10D-05 DEPred=-4.54D-05 R= 1.12D+00
 TightC=F SS=  1.41D+00  RLast= 1.50D-02 DXNew= 5.0454D-01 4.4880D-02
 Trust test= 1.12D+00 RLast= 1.50D-02 DXMaxT set to 3.00D-01
 ITU=  1  0
 Use linear search instead of GDIIS.
     Eigenvalues ---    0.01917   0.02687   0.03084   0.03084   0.03109
     Eigenvalues ---    0.15325   0.16000   0.16000   0.16002   0.25000
     Eigenvalues ---    0.33120   0.34691   0.35632   0.36064   0.36303
     Eigenvalues ---    0.37869   0.58299   0.61579
 RFO step:  Lambda=-2.18135596D-06 EMin= 1.91652793D-02
 Quartic linear search produced a step of  0.13807.
 Iteration  1 RMS(Cart)=  0.00065212 RMS(Int)=  0.00000031
 Iteration  2 RMS(Cart)=  0.00000031 RMS(Int)=  0.00000006
 ClnCor:  largest displacement from symmetrization is 1.03D-12 for atom     1.
 Variable       Old X    -DE/DX   Delta X   Delta X   Delta X     New X
                                 (Linear)    (Quad)   (Total)
    R1        2.50467   0.00040   0.00017   0.00060   0.00077   2.50544
    R2        2.04136  -0.00002  -0.00072   0.00055  -0.00017   2.04118
    R3        2.04136  -0.00002  -0.00072   0.00055  -0.00017   2.04118
    R4        2.71579  -0.00060  -0.00092  -0.00098  -0.00190   2.71389
    R5        2.71579  -0.00060  -0.00092  -0.00098  -0.00190   2.71389
    R6        2.48181  -0.00016  -0.00086   0.00045  -0.00041   2.48140
    R7        2.03285   0.00002  -0.00045   0.00043  -0.00002   2.03283
    R8        2.03285   0.00002  -0.00045   0.00043  -0.00002   2.03283
    A1        2.11249  -0.00009  -0.00012  -0.00053  -0.00064   2.11185
    A2        2.11249  -0.00009  -0.00012  -0.00053  -0.00064   2.11185
    A3        2.05820   0.00018   0.00024   0.00105   0.00129   2.05948
    A4        2.66706  -0.00008   0.00000  -0.00028  -0.00027   2.66679
    A5        2.66706  -0.00008   0.00000  -0.00028  -0.00027   2.66679
    A6        2.60506   0.00019   0.00025   0.00099   0.00125   2.60631
    A7        2.58186  -0.00011  -0.00026  -0.00072  -0.00097   2.58089
    A8        2.60506   0.00019   0.00025   0.00099   0.00125   2.60631
    A9        2.58186  -0.00011  -0.00026  -0.00072  -0.00097   2.58089
    D1        0.00000  -0.00000   0.00000  -0.00000  -0.00000   0.00000
    D2        3.14159  -0.00000   0.00000  -0.00000   0.00000   3.14159
    D3        3.14159   0.00000   0.00000   0.00000   0.00000   3.14159
    D4       -0.00000   0.00000   0.00000   0.00000   0.00000   0.00000
    D5       -0.00000   0.00000   0.00000   0.00000   0.00000   0.00000
    D6       -0.00000  -0.00000   0.00000  -0.00000   0.00000   0.00000
    D7        3.14159   0.00000   0.00000   0.00000   0.00000   3.14159
    D8        0.00000   0.00000   0.00000   0.00000   0.00000   0.00000
         Item               Value     Threshold  Converged?
 Maximum Force            0.000598     0.000450     NO 
 RMS     Force            0.000205     0.000300     YES
 Maximum Displacement     0.001446     0.001800     YES
 RMS     Displacement     0.000652     0.001200     YES
 Predicted change in Energy=-1.869314D-06
 GradGradGradGradGradGradGradGradGradGradGradGradGradGradGradGradGradGrad

                          Input orientation:                          
 ---------------------------------------------------------------------
 Center     Atomic      Atomic             Coordinates (Angstroms)
 Number     Number       Type             X           Y           Z
 ---------------------------------------------------------------------
      1          6           0       -1.608777    0.000000   -0.000000
      2          6           0       -0.282954    0.000000   -0.000000
      3          6           0        0.994313    0.656550    0.000000
      4          6           0        0.994313   -0.656550   -0.000000
      5          1           0       -2.165096    0.925867   -0.000000
      6          1           0       -2.165096   -0.925867   -0.000000
      7          1           0        1.566367    1.567562    0.000000
      8          1           0        1.566367   -1.567562   -0.000000
 ---------------------------------------------------------------------
                    Distance matrix (angstroms):
                    1          2          3          4          5
     1  C    0.000000
     2  C    1.325823   0.000000
     3  C    2.684611   1.436130   0.000000
     4  C    2.684611   1.436130   1.313099   0.000000
     5  H    1.080148   2.097543   3.170867   3.533541   0.000000
     6  H    1.080148   2.097543   3.533541   3.170867   1.851733
     7  H    3.541015   2.424302   1.075727   2.296501   3.786237
     8  H    3.541015   2.424302   2.296501   1.075727   4.487873
                    6          7          8
     6  H    0.000000
     7  H    4.487873   0.000000
     8  H    3.786237   3.135124   0.000000
 Stoichiometry    C4H4
 Framework group  C2V[C2(CC),SGV(C2H4)]
 Deg. of freedom     7
 Full point group                 C2V     NOp   4
 Largest Abelian subgroup         C2V     NOp   4
 Largest concise Abelian subgroup C2      NOp   2
                         Standard orientation:                         
 ---------------------------------------------------------------------
 Center     Atomic      Atomic             Coordinates (Angstroms)
 Number     Number       Type             X           Y           Z
 ---------------------------------------------------------------------
      1          6           0        0.000000    0.000000    1.586774
      2          6           0        0.000000    0.000000    0.260951
      3          6           0        0.000000    0.656550   -1.016316
      4          6           0       -0.000000   -0.656550   -1.016316
      5          1           0        0.000000    0.925867    2.143093
      6          1           0       -0.000000   -0.925867    2.143093
      7          1           0        0.000000    1.567562   -1.588370
      8          1           0       -0.000000   -1.567562   -1.588370
 ---------------------------------------------------------------------
 Rotational constants (GHZ):          29.6824143           7.2052342           5.7978417
 Basis read from rwf:  (5D, 7F)
 There are    78 symmetry adapted cartesian basis functions of A1  symmetry.
 There are    25 symmetry adapted cartesian basis functions of A2  symmetry.
 There are    35 symmetry adapted cartesian basis functions of B1  symmetry.
 There are    62 symmetry adapted cartesian basis functions of B2  symmetry.
 There are    66 symmetry adapted basis functions of A1  symmetry.
 There are    24 symmetry adapted basis functions of A2  symmetry.
 There are    32 symmetry adapted basis functions of B1  symmetry.
 There are    54 symmetry adapted basis functions of B2  symmetry.
   176 basis functions,   276 primitive gaussians,   200 cartesian basis functions
    14 alpha electrons       14 beta electrons
       nuclear repulsion energy        96.3560336287 Hartrees.
 NAtoms=    8 NActive=    8 NUniq=    5 SFac= 2.56D+00 NAtFMM=   60 NAOKFM=F Big=F
 Integral buffers will be    131072 words long.
 Raffenetti 2 integral format.
 Two-electron integral symmetry is turned on.
 One-electron integrals computed using PRISM.
 NBasis=   176 RedAO= T EigKep=  1.16D-04  NBF=    66    24    32    54
 NBsUse=   176 1.00D-06 EigRej= -1.00D+00 NBFU=    66    24    32    54
 Initial guess from the checkpoint file:  "/wrk/irikura/Gau-14067.chk"
 B after Tr=     0.000000    0.000000   -0.000000
         Rot=    1.000000   -0.000000   -0.000000    0.000000 Ang=   0.00 deg.
 Initial guess orbital symmetries:
       Occupied  (A1) (B2) (A1) (A1) (A1) (A1) (B2) (A1) (A1) (B2)
                 (B1) (A1) (B2) (B1)
       Virtual   (A2) (A1) (B2) (B1) (A1) (B2) (A1) (A1) (B2) (B1)
                 (B2) (A1) (B1) (A2) (A1) (B2) (A1) (B2) (A1) (B1)
                 (A1) (B2) (A1) (B2) (A1) (B2) (A1) (B2) (B2) (A1)
                 (A2) (B1) (A2) (B1) (A1) (A1) (A1) (B2) (A1) (B2)
                 (B1) (A2) (A1) (B2) (B2) (B1) (A1) (B2) (B1) (A1)
                 (A2) (B1) (B2) (A1) (A2) (B1) (B2) (A1) (B1) (A1)
                 (B2) (A2) (A1) (B2) (A1) (B2) (B2) (A1) (A2) (B1)
                 (A1) (A1) (B2) (B2) (A1) (A1) (A1) (B2) (B2) (A1)
                 (B1) (A2) (B1) (B2) (A1) (B1) (B1) (A1) (A2) (B2)
                 (A1) (B2) (B1) (B2) (A1) (A2) (A1) (B1) (B2) (A2)
                 (A1) (B2) (B1) (A1) (A2) (B1) (B2) (A2) (A2) (A1)
                 (A1) (A1) (B2) (B1) (A2) (A1) (B2) (B2) (B1) (A1)
                 (B2) (A2) (B1) (A2) (A1) (B2) (B1) (A2) (B1) (A1)
                 (B2) (A1) (B1) (A1) (B2) (A2) (B2) (A1) (B2) (A2)
                 (B1) (A1) (B2) (A1) (B2) (B1) (A1) (B2) (B1) (A1)
                 (A2) (A2) (A1) (B2) (A1) (B2) (A1) (B2) (B2) (B2)
                 (A1) (A1)
 Keep R1 ints in memory in symmetry-blocked form, NReq=152267675.
 Requested convergence on RMS density matrix=1.00D-08 within 128 cycles.
 Requested convergence on MAX density matrix=1.00D-06.
 Requested convergence on             energy=1.00D-06.
 No special actions if energy rises.
 SCF Done:  E(RB3LYP) =  -154.766610584     A.U. after    7 cycles
            NFock=  7  Conv=0.64D-08     -V/T= 2.0041
 Calling FoFJK, ICntrl=      2127 FMM=F ISym2X=1 I1Cent= 0 IOpClX= 0 NMat=1 NMatS=1 NMatT=0.
 ***** Axes restored to original set *****
 -------------------------------------------------------------------
 Center     Atomic                   Forces (Hartrees/Bohr)
 Number     Number              X              Y              Z
 -------------------------------------------------------------------
      1        6          -0.000127982   -0.000000000   -0.000000000
      2        6           0.000138796    0.000000000   -0.000000000
      3        6          -0.000108358    0.000167456   -0.000000000
      4        6          -0.000108358   -0.000167456    0.000000000
      5        1           0.000028645    0.000043851    0.000000000
      6        1           0.000028645   -0.000043851    0.000000000
      7        1           0.000074306   -0.000025328    0.000000000
      8        1           0.000074306    0.000025328    0.000000000
 -------------------------------------------------------------------
 Cartesian Forces:  Max     0.000167456 RMS     0.000074449

 GradGradGradGradGradGradGradGradGradGradGradGradGradGradGradGradGradGrad
 Berny optimization.
 Using GEDIIS/GDIIS optimizer.
 FormGI is forming the generalized inverse of G from B-inverse, IUseBI=4.
 Internal  Forces:  Max     0.000111238 RMS     0.000045574
 Search for a local minimum.
 Step number   3 out of a maximum of   35
 All quantities printed in internal units (Hartrees-Bohrs-Radians)
 Mixed Optimization -- En-DIIS/RFO-DIIS
 Swapping is turned off.
 Update second derivatives using D2CorX and points    1    2    3
 DE= -2.14D-06 DEPred=-1.87D-06 R= 1.14D+00
 TightC=F SS=  1.41D+00  RLast= 3.96D-03 DXNew= 5.0454D-01 1.1871D-02
 Trust test= 1.14D+00 RLast= 3.96D-03 DXMaxT set to 3.00D-01
 ITU=  1  1  0
     Eigenvalues ---    0.01915   0.02685   0.03084   0.03084   0.03109
     Eigenvalues ---    0.11995   0.16000   0.16000   0.16026   0.25000
     Eigenvalues ---    0.34691   0.35632   0.35930   0.36283   0.36303
     Eigenvalues ---    0.37610   0.59560   0.62842
 En-DIIS/RFO-DIIS/Sim-DIIS IScMMF=       -3 using points:     3    2
 RFO step:  Lambda=-2.92291472D-07.
 DidBck=F Rises=F RFO-DIIS coefs:    1.30592   -0.30592
 Iteration  1 RMS(Cart)=  0.00028834 RMS(Int)=  0.00000011
 Iteration  2 RMS(Cart)=  0.00000010 RMS(Int)=  0.00000002
 ClnCor:  largest displacement from symmetrization is 1.04D-12 for atom     1.
 Variable       Old X    -DE/DX   Delta X   Delta X   Delta X     New X
                                 (Linear)    (Quad)   (Total)
    R1        2.50544   0.00007   0.00024  -0.00005   0.00018   2.50563
    R2        2.04118   0.00002  -0.00005   0.00007   0.00002   2.04121
    R3        2.04118   0.00002  -0.00005   0.00007   0.00002   2.04121
    R4        2.71389  -0.00002  -0.00058   0.00037  -0.00021   2.71368
    R5        2.71389  -0.00002  -0.00058   0.00037  -0.00021   2.71368
    R6        2.48140   0.00011  -0.00013   0.00027   0.00015   2.48155
    R7        2.03283   0.00002  -0.00001   0.00003   0.00003   2.03286
    R8        2.03283   0.00002  -0.00001   0.00003   0.00003   2.03286
    A1        2.11185  -0.00003  -0.00020  -0.00007  -0.00027   2.11158
    A2        2.11185  -0.00003  -0.00020  -0.00007  -0.00027   2.11158
    A3        2.05948   0.00006   0.00039   0.00015   0.00054   2.06003
    A4        2.66679  -0.00003  -0.00008   0.00001  -0.00007   2.66672
    A5        2.66679  -0.00003  -0.00008   0.00001  -0.00007   2.66672
    A6        2.60631   0.00009   0.00038   0.00029   0.00067   2.60697
    A7        2.58089  -0.00006  -0.00030  -0.00030  -0.00060   2.58029
    A8        2.60631   0.00009   0.00038   0.00029   0.00067   2.60697
    A9        2.58089  -0.00006  -0.00030  -0.00030  -0.00060   2.58029
    D1       -0.00000  -0.00000   0.00000  -0.00000   0.00000   0.00000
    D2        3.14159  -0.00000   0.00000  -0.00000   0.00000   3.14159
    D3        3.14159   0.00000   0.00000   0.00000   0.00000   3.14159
    D4        0.00000   0.00000   0.00000   0.00000   0.00000   0.00000
    D5        0.00000   0.00000   0.00000   0.00000   0.00000   0.00000
    D6       -0.00000  -0.00000   0.00000  -0.00000   0.00000   0.00000
    D7        3.14159   0.00000   0.00000   0.00000   0.00000   3.14159
    D8       -0.00000   0.00000   0.00000   0.00000   0.00000   0.00000
         Item               Value     Threshold  Converged?
 Maximum Force            0.000111     0.000450     YES
 RMS     Force            0.000046     0.000300     YES
 Maximum Displacement     0.000596     0.001800     YES
 RMS     Displacement     0.000288     0.001200     YES
 Predicted change in Energy=-1.461461D-07
 Optimization completed.
    -- Stationary point found.
                           ----------------------------
                           !   Optimized Parameters   !
                           ! (Angstroms and Degrees)  !
 --------------------------                            --------------------------
 ! Name  Definition              Value          Derivative Info.                !
 --------------------------------------------------------------------------------
 ! R1    R(1,2)                  1.3258         -DE/DX =    0.0001              !
 ! R2    R(1,5)                  1.0801         -DE/DX =    0.0                 !
 ! R3    R(1,6)                  1.0801         -DE/DX =    0.0                 !
 ! R4    R(2,3)                  1.4361         -DE/DX =    0.0                 !
 ! R5    R(2,4)                  1.4361         -DE/DX =    0.0                 !
 ! R6    R(3,4)                  1.3131         -DE/DX =    0.0001              !
 ! R7    R(3,7)                  1.0757         -DE/DX =    0.0                 !
 ! R8    R(4,8)                  1.0757         -DE/DX =    0.0                 !
 ! A1    A(2,1,5)              121.0001         -DE/DX =    0.0                 !
 ! A2    A(2,1,6)              121.0001         -DE/DX =    0.0                 !
 ! A3    A(5,1,6)              117.9998         -DE/DX =    0.0001              !
 ! A4    A(1,2,3)              152.7956         -DE/DX =    0.0                 !
 ! A5    A(1,2,4)              152.7956         -DE/DX =    0.0                 !
 ! A6    A(2,3,7)              149.3304         -DE/DX =    0.0001              !
 ! A7    A(4,3,7)              147.874          -DE/DX =   -0.0001              !
 ! A8    A(2,4,8)              149.3304         -DE/DX =    0.0001              !
 ! A9    A(3,4,8)              147.874          -DE/DX =   -0.0001              !
 ! D1    D(5,1,2,3)              0.0            -DE/DX =    0.0                 !
 ! D2    D(5,1,2,4)            180.0            -DE/DX =    0.0                 !
 ! D3    D(6,1,2,3)            180.0            -DE/DX =    0.0                 !
 ! D4    D(6,1,2,4)              0.0            -DE/DX =    0.0                 !
 ! D5    D(1,2,3,7)              0.0            -DE/DX =    0.0                 !
 ! D6    D(1,2,4,8)              0.0            -DE/DX =    0.0                 !
 ! D7    D(2,3,4,7)            180.0            -DE/DX =    0.0                 !
 ! D8    D(7,3,4,8)              0.0            -DE/DX =    0.0                 !
 --------------------------------------------------------------------------------
 GradGradGradGradGradGradGradGradGradGradGradGradGradGradGradGradGradGrad

                          Input orientation:                          
 ---------------------------------------------------------------------
 Center     Atomic      Atomic             Coordinates (Angstroms)
 Number     Number       Type             X           Y           Z
 ---------------------------------------------------------------------
      1          6           0       -1.608777    0.000000   -0.000000
      2          6           0       -0.282954    0.000000   -0.000000
      3          6           0        0.994313    0.656550    0.000000
      4          6           0        0.994313   -0.656550   -0.000000
      5          1           0       -2.165096    0.925867   -0.000000
      6          1           0       -2.165096   -0.925867   -0.000000
      7          1           0        1.566367    1.567562    0.000000
      8          1           0        1.566367   -1.567562   -0.000000
 ---------------------------------------------------------------------
                    Distance matrix (angstroms):
                    1          2          3          4          5
     1  C    0.000000
     2  C    1.325823   0.000000
     3  C    2.684611   1.436130   0.000000
     4  C    2.684611   1.436130   1.313099   0.000000
     5  H    1.080148   2.097543   3.170867   3.533541   0.000000
     6  H    1.080148   2.097543   3.533541   3.170867   1.851733
     7  H    3.541015   2.424302   1.075727   2.296501   3.786237
     8  H    3.541015   2.424302   2.296501   1.075727   4.487873
                    6          7          8
     6  H    0.000000
     7  H    4.487873   0.000000
     8  H    3.786237   3.135124   0.000000
 Stoichiometry    C4H4
 Framework group  C2V[C2(CC),SGV(C2H4)]
 Deg. of freedom     7
 Full point group                 C2V     NOp   4
 Largest Abelian subgroup         C2V     NOp   4
 Largest concise Abelian subgroup C2      NOp   2
                         Standard orientation:                         
 ---------------------------------------------------------------------
 Center     Atomic      Atomic             Coordinates (Angstroms)
 Number     Number       Type             X           Y           Z
 ---------------------------------------------------------------------
      1          6           0        0.000000   -0.000000    1.586774
      2          6           0        0.000000   -0.000000    0.260951
      3          6           0        0.000000    0.656550   -1.016316
      4          6           0       -0.000000   -0.656550   -1.016316
      5          1           0        0.000000    0.925867    2.143093
      6          1           0       -0.000000   -0.925867    2.143093
      7          1           0        0.000000    1.567562   -1.588370
      8          1           0       -0.000000   -1.567562   -1.588370
 ---------------------------------------------------------------------
 Rotational constants (GHZ):          29.6824143           7.2052342           5.7978417

 **********************************************************************

            Population analysis using the SCF Density.

 **********************************************************************

 Orbital symmetries:
       Occupied  (A1) (B2) (A1) (A1) (A1) (A1) (B2) (A1) (A1) (B2)
                 (B1) (A1) (B2) (B1)
       Virtual   (A2) (A1) (B2) (B1) (A1) (B2) (A1) (A1) (B2) (B1)
                 (B2) (A1) (B1) (A2) (A1) (B2) (A1) (A1) (B2) (B1)
                 (A1) (B2) (A1) (B2) (A1) (B2) (A1) (B2) (B2) (A1)
                 (A2) (B1) (A2) (B1) (A1) (A1) (A1) (B2) (A1) (B2)
                 (B1) (A2) (A1) (B2) (B2) (B1) (A1) (B2) (B1) (A1)
                 (A2) (B1) (B2) (A1) (A2) (B1) (B2) (A1) (B1) (A1)
                 (B2) (A2) (A1) (B2) (A1) (B2) (B2) (A1) (A2) (B1)
                 (A1) (A1) (B2) (B2) (A1) (A1) (A1) (B2) (B2) (A1)
                 (B1) (A2) (B1) (B2) (A1) (B1) (B1) (A1) (A2) (B2)
                 (A1) (B2) (B1) (B2) (A1) (A2) (A1) (B1) (B2) (A2)
                 (A1) (B2) (B1) (A1) (A2) (B1) (B2) (A2) (A2) (A1)
                 (A1) (A1) (B2) (B1) (A2) (A1) (B2) (B2) (B1) (A1)
                 (B2) (A2) (B1) (A1) (A2) (B2) (B1) (A2) (B1) (A1)
                 (B2) (A1) (B1) (A1) (B2) (A2) (B2) (A1) (B2) (A2)
                 (B1) (A1) (B2) (A1) (B2) (B1) (A1) (B2) (B1) (A1)
                 (A2) (A2) (A1) (B2) (A1) (B2) (A1) (B2) (B2) (B2)
                 (A1) (A1)
 The electronic state is 1-A1.
 Alpha  occ. eigenvalues --  -10.21769 -10.21661 -10.20390 -10.13766  -0.91612
 Alpha  occ. eigenvalues --   -0.71297  -0.59432  -0.56907  -0.47968  -0.42555
 Alpha  occ. eigenvalues --   -0.39047  -0.38101  -0.31049  -0.21407
 Alpha virt. eigenvalues --   -0.03239   0.02737   0.03941   0.04412   0.04952
 Alpha virt. eigenvalues --    0.07554   0.10298   0.12531   0.14646   0.15755
 Alpha virt. eigenvalues --    0.17584   0.18548   0.21875   0.24094   0.24867
 Alpha virt. eigenvalues --    0.27269   0.28611   0.30634   0.30642   0.30707
 Alpha virt. eigenvalues --    0.31978   0.36416   0.37984   0.39615   0.46556
 Alpha virt. eigenvalues --    0.49543   0.51243   0.55685   0.62268   0.65402
 Alpha virt. eigenvalues --    0.68237   0.71117   0.79761   0.84122   0.88020
 Alpha virt. eigenvalues --    0.89564   0.91121   0.95842   1.00291   1.00583
 Alpha virt. eigenvalues --    1.04526   1.04758   1.05683   1.06449   1.11800
 Alpha virt. eigenvalues --    1.18465   1.19422   1.21605   1.23129   1.26528
 Alpha virt. eigenvalues --    1.29139   1.31052   1.31532   1.35083   1.37302
 Alpha virt. eigenvalues --    1.38390   1.46516   1.48090   1.55934   1.56891
 Alpha virt. eigenvalues --    1.58762   1.59117   1.60610   1.67337   1.67944
 Alpha virt. eigenvalues --    1.78977   1.82360   1.87024   1.88263   1.93023
 Alpha virt. eigenvalues --    1.97348   2.01271   2.08213   2.22671   2.31040
 Alpha virt. eigenvalues --    2.45927   2.57515   2.64892   2.70198   2.82062
 Alpha virt. eigenvalues --    2.91433   3.07709   3.11515   3.16808   3.17345
 Alpha virt. eigenvalues --    3.20463   3.31851   3.37079   3.42603   3.47976
 Alpha virt. eigenvalues --    3.50367   3.58929   3.63045   3.66075   3.71089
 Alpha virt. eigenvalues --    3.73198   3.78028   3.84438   3.85027   3.85362
 Alpha virt. eigenvalues --    3.90773   3.91477   3.97129   3.97390   3.98066
 Alpha virt. eigenvalues --    3.99075   3.99716   4.00958   4.09213   4.12201
 Alpha virt. eigenvalues --    4.13232   4.16111   4.16835   4.20368   4.22043
 Alpha virt. eigenvalues --    4.22381   4.25416   4.30785   4.33801   4.36493
 Alpha virt. eigenvalues --    4.38259   4.39149   4.42138   4.43132   4.43145
 Alpha virt. eigenvalues --    4.47822   4.51542   4.53005   4.55152   4.56754
 Alpha virt. eigenvalues --    4.57205   4.66480   4.73530   4.77484   4.79696
 Alpha virt. eigenvalues --    4.86214   4.89953   4.95413   5.07501   5.14791
 Alpha virt. eigenvalues --    5.17314   5.17599   5.22809   5.34348   5.37970
 Alpha virt. eigenvalues --    5.38216   5.49675   5.54311   5.63302   5.67944
 Alpha virt. eigenvalues --    5.69958   5.78563   5.87647   5.90095   5.92318
 Alpha virt. eigenvalues --    6.12098   6.12445   6.29157   6.57128   6.80684
 Alpha virt. eigenvalues --    6.91767   7.27068
          Condensed to atoms (all electrons):
               1          2          3          4          5          6
     1  C    4.839265   0.617934  -0.073131  -0.073131   0.447196   0.447196
     2  C    0.617934   4.901561   0.273322   0.273322  -0.056254  -0.056254
     3  C   -0.073131   0.273322   4.907205   0.559792  -0.014480   0.008514
     4  C   -0.073131   0.273322   0.559792   4.907205   0.008514  -0.014480
     5  H    0.447196  -0.056254  -0.014480   0.008514   0.609144  -0.032770
     6  H    0.447196  -0.056254   0.008514  -0.014480  -0.032770   0.609144
     7  H    0.000305  -0.026879   0.415580  -0.026719   0.001361  -0.000465
     8  H    0.000305  -0.026879  -0.026719   0.415580  -0.000465   0.001361
               7          8
     1  C    0.000305   0.000305
     2  C   -0.026879  -0.026879
     3  C    0.415580  -0.026719
     4  C   -0.026719   0.415580
     5  H    0.001361  -0.000465
     6  H   -0.000465   0.001361
     7  H    0.575677  -0.004096
     8  H   -0.004096   0.575677
 Mulliken charges:
               1
     1  C   -0.205936
     2  C    0.100127
     3  C   -0.050084
     4  C   -0.050084
     5  H    0.037753
     6  H    0.037753
     7  H    0.065235
     8  H    0.065235
 Sum of Mulliken charges =  -0.00000
 Mulliken charges with hydrogens summed into heavy atoms:
               1
     1  C   -0.130430
     2  C    0.100127
     3  C    0.015151
     4  C    0.015151
 Electronic spatial extent (au):  <R**2>=            245.1146
 Charge=             -0.0000 electrons
 Dipole moment (field-independent basis, Debye):
    X=             -0.0000    Y=             -0.0000    Z=             -2.1306  Tot=              2.1306
 Quadrupole moment (field-independent basis, Debye-Ang):
   XX=            -26.7815   YY=            -20.6704   ZZ=            -23.1333
   XY=              0.0000   XZ=              0.0000   YZ=              0.0000
 Traceless Quadrupole moment (field-independent basis, Debye-Ang):
   XX=             -3.2531   YY=              2.8580   ZZ=              0.3951
   XY=              0.0000   XZ=              0.0000   YZ=              0.0000
 Octapole moment (field-independent basis, Debye-Ang**2):
  XXX=              0.0000  YYY=             -0.0000  ZZZ=             -4.3948  XYY=              0.0000
  XXY=              0.0000  XXZ=             -2.7638  XZZ=              0.0000  YZZ=             -0.0000
  YYZ=             -5.2730  XYZ=             -0.0000
 Hexadecapole moment (field-independent basis, Debye-Ang**3):
 XXXX=            -33.2279 YYYY=            -70.7628 ZZZZ=           -237.7994 XXXY=             -0.0000
 XXXZ=             -0.0000 YYYX=             -0.0000 YYYZ=             -0.0000 ZZZX=             -0.0000
 ZZZY=              0.0000 XXYY=            -19.5425 XXZZ=            -52.2572 YYZZ=            -40.4229
 XXYZ=             -0.0000 YYXZ=             -0.0000 ZZXY=              0.0000
 N-N= 9.635603362865D+01 E-N=-5.513635662039D+02  KE= 1.541401560658D+02
 Symmetry A1   KE= 1.105001024273D+02
 Symmetry A2   KE= 1.415627816673D-21
 Symmetry B1   KE= 4.386690657513D+00
 Symmetry B2   KE= 3.925336298096D+01
 1\1\GINC-GAMBA\FOpt\RB3LYP\Gen\C4H4\IRIKURA\16-Jun-2022\0\\# b3lyp/gen
  opt freq\\3-methylenecyclopropene, B3LYP/pcseg-2\\0,1\C,-1.6087770652
 ,0.,0.\C,-0.2829544453,0.,0.\C,0.9943129872,0.6565496494,0.\C,0.994312
 9872,-0.6565496494,0.\H,-2.1650964708,0.9258667372,0.\H,-2.1650964708,
 -0.9258667372,0.\H,1.5663667389,1.5675619224,0.\H,1.5663667389,-1.5675
 619224,0.\\Version=ES64L-G16RevB.01\State=1-A1\HF=-154.7666106\RMSD=6.
 443e-09\RMSF=7.445e-05\Dipole=0.8382328,0.,0.\Quadrupole=0.293726,2.12
 48583,-2.4185843,0.,0.,0.\PG=C02V [C2(C1C1),SGV(C2H4)]\\@


 IF AT FIRST YOU DON'T SUCCEED, TRY LOOKING IN 
 THE WASTEBASKET FOR THE DIRECTIONS.
 Job cpu time:       0 days  0 hours  3 minutes  5.1 seconds.
 Elapsed time:       0 days  0 hours  0 minutes 16.0 seconds.
 File lengths (MBytes):  RWF=     19 Int=      0 D2E=      0 Chk=      3 Scr=      1
 Normal termination of Gaussian 16 at Thu Jun 16 08:11:51 2022.
 Link1:  Proceeding to internal job step number  2.
 ------------------------------------------------------------------
 #N Geom=AllCheck Guess=TCheck SCRF=Check GenChk RB3LYP/ChkBas Freq
 ------------------------------------------------------------------
 1/10=4,29=7,30=1,38=1,40=1/1,3;
 2/12=2,40=1/2;
 3/5=7,6=2,11=2,14=-4,25=1,30=1,67=1,70=2,71=2,74=-5,82=7,116=1,140=1/1,2,3;
 4/5=101/1;
 5/5=2,38=6,98=1/2;
 8/6=4,10=90,11=11/1;
 11/6=1,8=1,9=11,15=111,16=1/1,2,10;
 10/6=1/2;
 6/7=2,8=2,9=2,10=2,28=1/1;
 7/8=1,10=1,25=1/1,2,3,16;
 1/10=4,30=1/3;
 99//99;
 Structure from the checkpoint file:  "/wrk/irikura/Gau-14067.chk"
 --------------------------------------
 3-methylenecyclopropene, B3LYP/pcseg-2
 --------------------------------------
 Charge =  0 Multiplicity = 1
 Redundant internal coordinates found in file.  (old form).
 C,0,-1.6087770652,0.,0.
 C,0,-0.2829544453,0.,0.
 C,0,0.9943129872,0.6565496494,0.
 C,0,0.9943129872,-0.6565496494,0.
 H,0,-2.1650964708,0.9258667372,0.
 H,0,-2.1650964708,-0.9258667372,0.
 H,0,1.5663667389,1.5675619224,0.
 H,0,1.5663667389,-1.5675619224,0.
 Recover connectivity data from disk.

 GradGradGradGradGradGradGradGradGradGradGradGradGradGradGradGradGradGrad
 Berny optimization.
 Initialization pass.
                           ----------------------------
                           !    Initial Parameters    !
                           ! (Angstroms and Degrees)  !
 --------------------------                            --------------------------
 ! Name  Definition              Value          Derivative Info.                !
 --------------------------------------------------------------------------------
 ! R1    R(1,2)                  1.3258         calculate D2E/DX2 analytically  !
 ! R2    R(1,5)                  1.0801         calculate D2E/DX2 analytically  !
[...]
     8   1     0.00  -0.31   0.42     0.00  -0.30   0.27     0.00   0.02  -0.04
                     13                     14                     15
                     A1                     A1                     A1
 Frequencies --   1602.6273              1818.6093              3150.0331
 Red. masses --      6.0871                 7.6273                 1.0554
 Frc consts  --      9.2114                14.8627                 6.1703
 IR Inten    --     27.7714               222.7719                 3.0213
  Atom  AN      X      Y      Z        X      Y      Z        X      Y      Z
     1   6    -0.00  -0.00   0.20     0.00  -0.00  -0.35     0.00   0.00  -0.07
     2   6     0.00   0.00  -0.20    -0.00   0.00   0.60    -0.00   0.00   0.01
     3   6    -0.00   0.43   0.04    -0.00   0.21  -0.11     0.00   0.00   0.00
     4   6     0.00  -0.43   0.04     0.00  -0.21  -0.11    -0.00  -0.00   0.00
     5   1     0.00   0.18  -0.09    -0.00  -0.25  -0.02     0.00   0.61   0.35
     6   1    -0.00  -0.18  -0.09     0.00   0.25  -0.02    -0.00  -0.61   0.35
     7   1    -0.00   0.31  -0.36     0.00   0.33  -0.17    -0.00   0.00  -0.00
     8   1     0.00  -0.31  -0.36    -0.00  -0.33  -0.17     0.00  -0.00  -0.00
                     16                     17                     18
                     B2                     B2                     A1
 Frequencies --   3231.9915              3241.5757              3280.6670
 Red. masses --      1.1160                 1.0868                 1.1389
 Frc consts  --      6.8686                 6.7282                 7.2219
 IR Inten    --     10.5470                 1.0365                 2.2848
  Atom  AN      X      Y      Z        X      Y      Z        X      Y      Z
     1   6     0.00  -0.10  -0.00    -0.00   0.01   0.00    -0.00  -0.00   0.00
     2   6    -0.00  -0.00   0.00     0.00   0.00  -0.00     0.00   0.00  -0.01
     3   6    -0.00  -0.01   0.00     0.00  -0.05   0.03    -0.00  -0.07   0.04
     4   6    -0.00  -0.01  -0.00     0.00  -0.05  -0.03     0.00   0.07   0.04
     5   1    -0.00   0.59   0.37     0.00  -0.07  -0.04     0.00  -0.00  -0.00
     6   1    -0.00   0.59  -0.37     0.00  -0.07   0.04    -0.00   0.00  -0.00
     7   1     0.00   0.07  -0.04    -0.00   0.60  -0.37     0.00   0.60  -0.37
     8   1     0.00   0.07   0.04    -0.00   0.60   0.37    -0.00  -0.60  -0.37

 -------------------
 - Thermochemistry -
 -------------------
 Temperature   298.150 Kelvin.  Pressure   1.00000 Atm.
 Atom     1 has atomic number  6 and mass  12.00000
 Atom     2 has atomic number  6 and mass  12.00000
 Atom     3 has atomic number  6 and mass  12.00000
 Atom     4 has atomic number  6 and mass  12.00000
 Atom     5 has atomic number  1 and mass   1.00783
 Atom     6 has atomic number  1 and mass   1.00783
 Atom     7 has atomic number  1 and mass   1.00783
 Atom     8 has atomic number  1 and mass   1.00783
 Molecular mass:    52.03130 amu.
 Principal axes and moments of inertia in atomic units:
                           1         2         3
     Eigenvalues --    60.80170 250.47641 311.27811
           X            0.00000   0.00000   1.00000
           Y            0.00000   1.00000   0.00000
           Z            1.00000   0.00000   0.00000
 This molecule is an asymmetric top.
 Rotational symmetry number  2.
 Rotational temperatures (Kelvin)      1.42453     0.34580     0.27825
 Rotational constants (GHZ):          29.68241     7.20523     5.79784
 Zero-point vibrational energy     159092.8 (Joules/Mol)
                                   38.02409 (Kcal/Mol)
 Warning -- explicit consideration of   2 degrees of freedom as
           vibrations may cause significant error
 Vibrational temperatures:    520.10   620.63   993.87  1026.05  1124.91
          (Kelvin)           1212.34  1226.42  1321.22  1472.66  1540.24
                             1619.18  2102.55  2305.82  2616.57  4532.19
                             4650.11  4663.90  4720.15
 
 Zero-point correction=                           0.060595 (Hartree/Particle)
 Thermal correction to Energy=                    0.064641
 Thermal correction to Enthalpy=                  0.065585
 Thermal correction to Gibbs Free Energy=         0.035661
 Sum of electronic and zero-point Energies=           -154.706015
 Sum of electronic and thermal Energies=              -154.701970
 Sum of electronic and thermal Enthalpies=            -154.701026
 Sum of electronic and thermal Free Energies=         -154.730949
 
                     E (Thermal)             CV                S
                      KCal/Mol        Cal/Mol-Kelvin    Cal/Mol-Kelvin
 Total                   40.563             13.953             62.980
 Electronic               0.000              0.000              0.000
 Translational            0.889              2.981             37.771
 Rotational               0.889              2.981             21.699
 Vibrational             38.785              7.992              3.510
 Vibration     1          0.736              1.552              1.116
 Vibration     2          0.792              1.402              0.854
                       Q            Log10(Q)             Ln(Q)
 Total Bot       0.395385D-16        -16.402980        -37.769258
 Total V=0       0.294355D+12         11.468872         26.408054
 Vib (Bot)       0.217489D-27        -27.662562        -63.695403
 Vib (Bot)    1  0.506545D+00         -0.295382         -0.680143
 Vib (Bot)    2  0.403497D+00         -0.394160         -0.907587
 Vib (V=0)       0.161916D+01          0.209290          0.481908
 Vib (V=0)    1  0.121175D+01          0.083413          0.192065
 Vib (V=0)    2  0.114250D+01          0.057857          0.133221
 Electronic      0.100000D+01          0.000000          0.000000
 Translational   0.147520D+08          7.168851         16.506889
 Rotational      0.123234D+05          4.090731          9.419257
 ***** Axes restored to original set *****
 -------------------------------------------------------------------
 Center     Atomic                   Forces (Hartrees/Bohr)
 Number     Number              X              Y              Z
 -------------------------------------------------------------------
      1        6          -0.000128119   -0.000000000   -0.000000000
      2        6           0.000138798    0.000000000   -0.000000000
      3        6          -0.000108262    0.000167505   -0.000000000
      4        6          -0.000108262   -0.000167505    0.000000000
      5        1           0.000028645    0.000043858   -0.000000000
      6        1           0.000028645   -0.000043858    0.000000000
      7        1           0.000074277   -0.000025356    0.000000000
      8        1           0.000074277    0.000025356    0.000000000
 -------------------------------------------------------------------
 Cartesian Forces:  Max     0.000167505 RMS     0.000074455
 FormGI is forming the generalized inverse of G from B-inverse, IUseBI=4.

 GradGradGradGradGradGradGradGradGradGradGradGradGradGradGradGradGradGrad
 Berny optimization.
 Internal  Forces:  Max     0.000111236 RMS     0.000045576
 Search for a local minimum.
 Step number   1 out of a maximum of    2
 All quantities printed in internal units (Hartrees-Bohrs-Radians)
 Second derivative matrix not updated -- analytic derivatives used.
 ITU=  0
     Eigenvalues ---    0.00431   0.00672   0.01617   0.02718   0.02847
     Eigenvalues ---    0.05984   0.06901   0.07825   0.10139   0.12181
     Eigenvalues ---    0.24456   0.31159   0.35854   0.36262   0.37078
     Eigenvalues ---    0.37217   0.56027   0.61544
 Angle between quadratic step and forces=  32.69 degrees.
 Linear search not attempted -- first point.
 Iteration  1 RMS(Cart)=  0.00054456 RMS(Int)=  0.00000036
 Iteration  2 RMS(Cart)=  0.00000035 RMS(Int)=  0.00000000
 ClnCor:  largest displacement from symmetrization is 1.44D-11 for atom     6.
 Variable       Old X    -DE/DX   Delta X   Delta X   Delta X     New X
                                 (Linear)    (Quad)   (Total)
    R1        2.50544   0.00007   0.00000   0.00017   0.00017   2.50561
    R2        2.04118   0.00002   0.00000   0.00004   0.00004   2.04122
    R3        2.04118   0.00002   0.00000   0.00004   0.00004   2.04122
    R4        2.71389  -0.00002   0.00000  -0.00009  -0.00009   2.71380
    R5        2.71389  -0.00002   0.00000  -0.00009  -0.00009   2.71380
    R6        2.48140   0.00011   0.00000   0.00025   0.00025   2.48165
    R7        2.03283   0.00002   0.00000   0.00005   0.00005   2.03288
    R8        2.03283   0.00002   0.00000   0.00005   0.00005   2.03288
    A1        2.11185  -0.00003   0.00000  -0.00034  -0.00034   2.11151
    A2        2.11185  -0.00003   0.00000  -0.00034  -0.00034   2.11151
    A3        2.05948   0.00006   0.00000   0.00069   0.00069   2.06017
    A4        2.66679  -0.00003   0.00000  -0.00007  -0.00007   2.66672
    A5        2.66679  -0.00003   0.00000  -0.00007  -0.00007   2.66672
    A6        2.60631   0.00009   0.00000   0.00119   0.00119   2.60750
    A7        2.58089  -0.00006   0.00000  -0.00112  -0.00112   2.57977
    A8        2.60631   0.00009   0.00000   0.00119   0.00119   2.60750
    A9        2.58089  -0.00006   0.00000  -0.00112  -0.00112   2.57977
    D1        0.00000  -0.00000   0.00000   0.00000   0.00000   0.00000
    D2        3.14159  -0.00000   0.00000  -0.00000   0.00000   3.14159
    D3        3.14159   0.00000   0.00000   0.00000   0.00000   3.14159
    D4        0.00000   0.00000   0.00000  -0.00000  -0.00000   0.00000
    D5       -0.00000   0.00000   0.00000   0.00000   0.00000   0.00000
    D6       -0.00000  -0.00000   0.00000   0.00000   0.00000   0.00000
    D7        3.14159   0.00000   0.00000   0.00000   0.00000   3.14159
    D8        0.00000  -0.00000   0.00000  -0.00000  -0.00000   0.00000
         Item               Value     Threshold  Converged?
 Maximum Force            0.000111     0.000450     YES
 RMS     Force            0.000046     0.000300     YES
 Maximum Displacement     0.001296     0.001800     YES
 RMS     Displacement     0.000545     0.001200     YES
 Predicted change in Energy=-2.380654D-07
 Optimization completed.
    -- Stationary point found.
                           ----------------------------
                           !   Optimized Parameters   !
                           ! (Angstroms and Degrees)  !
 --------------------------                            --------------------------
 ! Name  Definition              Value          Derivative Info.                !
 --------------------------------------------------------------------------------
 ! R1    R(1,2)                  1.3258         -DE/DX =    0.0001              !
 ! R2    R(1,5)                  1.0801         -DE/DX =    0.0                 !
 ! R3    R(1,6)                  1.0801         -DE/DX =    0.0                 !
 ! R4    R(2,3)                  1.4361         -DE/DX =    0.0                 !
 ! R5    R(2,4)                  1.4361         -DE/DX =    0.0                 !
 ! R6    R(3,4)                  1.3131         -DE/DX =    0.0001              !
 ! R7    R(3,7)                  1.0757         -DE/DX =    0.0                 !
 ! R8    R(4,8)                  1.0757         -DE/DX =    0.0                 !
 ! A1    A(2,1,5)              121.0001         -DE/DX =    0.0                 !
 ! A2    A(2,1,6)              121.0001         -DE/DX =    0.0                 !
 ! A3    A(5,1,6)              117.9998         -DE/DX =    0.0001              !
 ! A4    A(1,2,3)              152.7956         -DE/DX =    0.0                 !
 ! A5    A(1,2,4)              152.7956         -DE/DX =    0.0                 !
 ! A6    A(2,3,7)              149.3304         -DE/DX =    0.0001              !
 ! A7    A(4,3,7)              147.874          -DE/DX =   -0.0001              !
 ! A8    A(2,4,8)              149.3304         -DE/DX =    0.0001              !
 ! A9    A(3,4,8)              147.874          -DE/DX =   -0.0001              !
 ! D1    D(5,1,2,3)              0.0            -DE/DX =    0.0                 !
 ! D2    D(5,1,2,4)            180.0            -DE/DX =    0.0                 !
 ! D3    D(6,1,2,3)            180.0            -DE/DX =    0.0                 !
 ! D4    D(6,1,2,4)              0.0            -DE/DX =    0.0                 !
 ! D5    D(1,2,3,7)              0.0            -DE/DX =    0.0                 !
 ! D6    D(1,2,4,8)              0.0            -DE/DX =    0.0                 !
 ! D7    D(2,3,4,7)            180.0            -DE/DX =    0.0                 !
 ! D8    D(7,3,4,8)              0.0            -DE/DX =    0.0                 !
 --------------------------------------------------------------------------------
 GradGradGradGradGradGradGradGradGradGradGradGradGradGradGradGradGradGrad


 ----------------------------------------------------------------------

 Electric dipole moment (input orientation):
 (Debye = 10**-18 statcoulomb cm , SI units = C m)
                  (au)            (Debye)         (10**-30 SI)
   Tot        0.838234D+00      0.213058D+01      0.710684D+01
   x          0.838234D+00      0.213058D+01      0.710684D+01
   y          0.000000D+00      0.000000D+00      0.000000D+00
   z          0.000000D+00      0.000000D+00      0.000000D+00

 Dipole polarizability, Alpha (input orientation).
 (esu units = cm**3 , SI units = C**2 m**2 J**-1)
 Alpha(0;0):
               (au)            (10**-24 esu)      (10**-40 SI)
   iso        0.453744D+02      0.672379D+01      0.748122D+01
   aniso      0.331297D+02      0.490931D+01      0.546234D+01
   xx         0.658903D+02      0.976393D+01      0.108638D+02
   yx         0.000000D+00      0.000000D+00      0.000000D+00
   yy         0.422002D+02      0.625342D+01      0.695787D+01
   zx         0.000000D+00      0.000000D+00      0.000000D+00
   zy         0.000000D+00      0.000000D+00      0.000000D+00
   zz         0.280326D+02      0.415400D+01      0.462195D+01

 ----------------------------------------------------------------------

 Dipole orientation:
     6          0.00000000          0.00000000         -3.04014805
     6          0.00000000          0.00000000         -0.53470641
     6         -0.00000000          1.24069902          1.87897923
     6          0.00000000         -1.24069902          1.87897923
     1         -0.00000000          1.74963456         -4.09143936
     1          0.00000000         -1.74963456         -4.09143936
     1         -0.00000000          2.96226272          2.96000415
     1          0.00000000         -2.96226272          2.96000415

 Electric dipole moment (dipole orientation):
 (Debye = 10**-18 statcoulomb cm , SI units = C m)
                  (au)            (Debye)         (10**-30 SI)
   Tot        0.838234D+00      0.213058D+01      0.710684D+01
   x          0.000000D+00      0.000000D+00      0.000000D+00
   y          0.000000D+00      0.000000D+00      0.000000D+00
   z          0.838234D+00      0.213058D+01      0.710684D+01

 Dipole polarizability, Alpha (dipole orientation).
 (esu units = cm**3 , SI units = C**2 m**2 J**-1)
 Alpha(0;0):
               (au)            (10**-24 esu)      (10**-40 SI)
   iso        0.453744D+02      0.672379D+01      0.748122D+01
   aniso      0.331297D+02      0.490931D+01      0.546234D+01
   xx         0.280326D+02      0.415400D+01      0.462195D+01
   yx         0.000000D+00      0.000000D+00      0.000000D+00
   yy         0.422002D+02      0.625342D+01      0.695787D+01
   zx         0.000000D+00      0.000000D+00      0.000000D+00
   zy         0.000000D+00      0.000000D+00      0.000000D+00
   zz         0.658903D+02      0.976393D+01      0.108638D+02

 ----------------------------------------------------------------------
 1\1\GINC-GAMBA\Freq\RB3LYP\Gen\C4H4\IRIKURA\16-Jun-2022\0\\#N Geom=All
 Check Guess=TCheck SCRF=Check GenChk RB3LYP/ChkBas Freq\\3-methylenecy
 clopropene, B3LYP/pcseg-2\\0,1\C,-1.6087770652,0.,0.\C,-0.2829544453,0
 .,0.\C,0.9943129872,0.6565496494,0.\C,0.9943129872,-0.6565496494,0.\H,
 -2.1650964708,0.9258667372,0.\H,-2.1650964708,-0.9258667372,0.\H,1.566
 3667389,1.5675619224,0.\H,1.5663667389,-1.5675619224,0.\\Version=ES64L
 -G16RevB.01\State=1-A1\HF=-154.7666106\RMSD=2.586e-09\RMSF=7.445e-05\Z
 eroPoint=0.0605952\Thermal=0.0646407\Dipole=0.8382336,0.,0.\DipoleDeri
 v=-0.6658422,0.,0.,0.,0.1557118,0.,0.,0.,-0.4874379,1.4896588,0.,0.,0.
 ,-0.111362,0.,0.,0.,-0.1023441,-0.431676,0.0439319,0.,-0.1023924,-0.03
 15192,0.,0.,0.,-0.0668883,-0.431676,-0.0439319,0.,0.1023924,-0.0315192
 ,0.,0.,0.,-0.0668883,-0.0201475,0.0236674,0.,0.076826,-0.0669771,0.,0.
 ,0.,0.1835652,-0.0201475,-0.0236674,0.,-0.076826,-0.0669771,0.,0.,0.,0
 .1835652,0.0399153,-0.094933,0.,-0.0333188,0.0763214,0.,0.,0.,0.178214
 1,0.0399153,0.094933,0.,0.0333188,0.0763214,0.,0.,0.,0.1782141\Polar=6
 5.8902966,0.,42.2001626,0.,0.,28.032595\Quadrupole=0.2937309,2.1248562
 ,-2.4185872,0.,0.,0.\PG=C02V [C2(C1C1),SGV(C2H4)]\NImag=0\\0.80835725,
 0.,0.62030300,0.,0.,0.07408816,-0.51498839,0.,0.,1.03847734,0.,-0.0949
 7294,0.,0.,0.24344964,0.,0.,-0.04123791,0.,0.,0.08900492,-0.02358173,-
 0.01636868,0.,-0.24666354,-0.08554413,0.,0.41745252,0.01011403,0.00240
 796,0.,-0.11400707,-0.07433768,0.,0.23795145,0.95415360,0.,0.,0.006424
 81,0.,0.,-0.03210856,0.,0.,0.08960636,-0.02358173,0.01636868,0.,-0.246
 66354,0.08554413,0.,-0.01580762,0.01757253,0.,0.41745252,-0.01011403,0
 .00240796,0.,0.11400707,-0.07433768,0.,-0.01757253,-0.60906704,0.,-0.2
 3795145,0.95415360,0.,0.,0.00642481,0.,0.,-0.03210856,0.,0.,-0.0477299
 9,0.,0.,0.08960636,-0.12286282,0.12211900,0.,-0.02118451,0.02791023,0.
 ,0.00247422,-0.00166927,0.,-0.00077470,0.00169084,0.,0.13379989,0.1251
 5291,-0.26750680,0.,0.00001889,0.00354538,0.,0.00091464,0.00177854,0.,
 -0.00304261,0.00075760,0.,-0.13619479,0.27764614,0.,0.,-0.02229608,0.,
 0.,0.00042202,0.,0.,-0.00573694,0.,0.,0.00974902,0.,0.,0.01780183,-0.1
 2286282,-0.12211900,0.,-0.02118451,-0.02791023,0.,-0.00077470,-0.00169
 084,0.,0.00247422,0.00166927,0.,0.00980627,0.01305509,0.,0.13379989,-0
 .12515291,-0.26750680,0.,-0.00001889,0.00354538,0.,0.00304261,0.000757
 60,0.,-0.00091464,0.00177854,0.,-0.01305509,-0.01595229,0.,0.13619479,
 0.27764614,0.,0.,-0.02229608,0.,0.,0.00042202,0.,0.,0.00974902,0.,0.,-
 0.00573694,0.,0.,0.00034913,0.,0.,0.01780183,-0.00023988,-0.00159613,0
 .,0.00610357,-0.00936299,0.,-0.13615487,-0.14488486,0.,0.00305571,0.00
 338597,0.,-0.00044027,0.00019856,0.,-0.00081808,0.00010270,0.,0.125894
 28,-0.00060467,0.00243380,0.,0.00254229,-0.00344605,0.,-0.13810525,-0.
 27209190,0.,-0.01568190,-0.00360109,0.,-0.00023620,-0.00023156,0.,0.00
 056472,-0.00003702,0.,0.15183888,0.27633465,0.,0.,-0.00055386,0.,0.,0.
 00780304,0.,0.,-0.03431994,0.,0.,0.01411523,0.,0.,-0.00206273,0.,0.,0.
 00177375,0.,0.,0.01790486,-0.00023988,0.00159613,0.,0.00610357,0.00936
 299,0.,0.00305571,-0.00338597,0.,-0.13615487,0.14488486,0.,-0.00081808
 ,-0.00010270,0.,-0.00044027,-0.00019856,0.,0.00259954,-0.00031787,0.,0
 .12589428,0.00060467,0.00243380,0.,-0.00254229,-0.00344605,0.,0.015681
 90,-0.00360109,0.,0.13810525,-0.27209190,0.,-0.00056472,-0.00003702,0.
 ,0.00023620,-0.00023156,0.,0.00031787,0.00063915,0.,-0.15183888,0.2763
 3465,0.,0.,-0.00055386,0.,0.,0.00780304,0.,0.,0.01411523,0.,0.,-0.0343
 1994,0.,0.,0.00177375,0.,0.,-0.00206273,0.,0.,-0.00466036,0.,0.,0.0179
 0486\\0.00012812,0.,0.,-0.00013880,0.,0.,0.00010826,-0.00016751,0.,0.0
 0010826,0.00016751,0.,-0.00002864,-0.00004386,0.,-0.00002864,0.0000438
 6,0.,-0.00007428,0.00002536,0.,-0.00007428,-0.00002536,0.\\\@


 You can't act like a skunk without someone's getting wind of it.
 -- Lorene Workman
 Job cpu time:       0 days  0 hours  5 minutes 46.6 seconds.
 Elapsed time:       0 days  0 hours  0 minutes 28.9 seconds.
 File lengths (MBytes):  RWF=     20 Int=      0 D2E=      0 Chk=      4 Scr=      1
 Normal termination of Gaussian 16 at Thu Jun 16 08:12:20 2022.
