 Entering Gaussian System, Link 0=g16
 AtFile(1): pcseg2.gbs
            -H     0
            S   4   1.00
                  0.754732D+02           0.427821D-02
                  0.113575D+02           0.328672D-01
                  0.260081D+01           0.159578D+00
                  0.735503D+00           0.500000D+00
            S   1   1.00
                  0.231761D+00           1.0000000
            S   1   1.00
                  0.741675D-01           1.0000000
            P   1   1.00
                  0.160000D+01           1.0000000
            P   1   1.00
                  0.450000D+00           1.0000000
            D   1   1.00
                  0.125000D+01           1.0000000
            ****
            -C     0
            S   7   1.00
                  0.731999D+04           0.695369D-03
                  0.109818D+04           0.537138D-02
                  0.250014D+03           0.274734D-01
                  0.707586D+02           0.105078D+00
                  0.228595D+02           0.291262D+00
                  0.803936D+01           0.500000D+00
                  0.289309D+01           0.362224D+00
            S   2   1.00
                  0.521640D+01          -0.957844D-01
                  0.556124D+00           0.500000D+00
            S   1   1.00
                  0.228813D+00           1.0000000
            S   1   1.00
                  0.936338D-01           1.0000000
            P   4   1.00
                  0.339855D+02           0.818395D-02
                  0.772957D+01           0.586921D-01
                  0.224954D+01           0.222514D+00
                  0.767681D+00           0.500000D+00
            P   1   1.00
                  0.263283D+00           1.0000000
            P   1   1.00
                  0.848744D-01           1.0000000
            D   1   1.00
                  0.140000D+01           1.0000000
            D   1   1.00
                  0.450000D+00           1.0000000
            F   1   1.00
                  0.950000D+00           1.0000000
            ****
            -O     0
            S   7   1.00
                  0.135887D+05           0.665492D-03
                  0.203847D+04           0.514222D-02
                  0.464041D+03           0.263472D-01
                  0.131339D+03           0.101500D+00
                  0.425340D+02           0.285877D+00
                  0.150429D+02           0.500000D+00
                  0.546616D+01           0.368211D+00
            S   2   1.00
                  0.100915D+02          -0.100084D+00
                  0.110429D+01           0.500000D+00
            S   1   1.00
                  0.448082D+00           1.0000000
            S   1   1.00
                  0.175325D+00           1.0000000
            P   4   1.00
                  0.608220D+02           0.908253D-02
                  0.140332D+02           0.645878D-01
                  0.418244D+01           0.241502D+00
                  0.142490D+01           0.500000D+00
            P   1   1.00
                  0.478741D+00           1.0000000
            P   1   1.00
                  0.146257D+00           1.0000000
            D   1   1.00
                  0.220000D+01           1.0000000
            D   1   1.00
                  0.650000D+00           1.0000000
            F   1   1.00
                  0.110000D+01           1.0000000
            ****
            -N     0
            S   7   1.00
                  0.101643D+05           0.682757D-03
                  0.152481D+04           0.527488D-02
                  0.347119D+03           0.270037D-01
                  0.982389D+02           0.103673D+00
                  0.317799D+02           0.289575D+00
                  0.112240D+02           0.500000D+00
                  0.406611D+01           0.364621D+00
            S   2   1.00
                  0.747898D+01          -0.975681D-01
                  0.805040D+00           0.500000D+00
            S   1   1.00
                  0.324626D+00           1.0000000
            S   1   1.00
                  0.128132D+00           1.0000000
            P   4   1.00
                  0.482704D+02           0.829547D-02
                  0.110815D+02           0.596223D-01
                  0.326643D+01           0.227889D+00
                  0.111680D+01           0.500000D+00
            P   1   1.00
                  0.382049D+00           1.0000000
            P   1   1.00
                  0.121222D+00           1.0000000
            D   1   1.00
                  0.180000D+01           1.0000000
            D   1   1.00
                  0.550000D+00           1.0000000
            F   1   1.00
                  0.102000D+01           1.0000000
            ****
            -F     0
            S   7   1.00
                  0.174507D+05           0.655972D-03
                  0.261768D+04           0.506944D-02
                  0.595857D+03           0.259899D-01
                  0.168651D+03           0.100353D+00
                  0.546654D+02           0.284095D+00
                  0.193717D+02           0.500000D+00
                  0.706202D+01           0.370721D+00
            S   2   1.00
                  0.131197D+02          -0.101997D+00
                  0.145046D+01           0.500000D+00
            S   1   1.00
                  0.588255D+00           1.0000000
            S   1   1.00
                  0.227960D+00           1.0000000
            P   4   1.00
                  0.779407D+02           0.931135D-02
                  0.180425D+02           0.663964D-01
                  0.542342D+01           0.246386D+00
                  0.184876D+01           0.500000D+00
            P   1   1.00
                  0.617455D+00           1.0000000
            P   1   1.00
                  0.185496D+00           1.0000000
            D   1   1.00
                  0.280000D+01           1.0000000
            D   1   1.00
                  0.800000D+00           1.0000000
            F   1   1.00
                  0.120000D+01           1.0000000
            ****
            -Cl     0
            S   8   1.00
                  0.154272D+06           0.222473D-03
                  0.231232D+05           0.172590D-02
                  0.526257D+04           0.899286D-02
                  0.148995D+04           0.367724D-01
                  0.485417D+03           0.121446D+00
                  0.174634D+03           0.304148D+00
                  0.672393D+02           0.500000D+00
                  0.265780D+02           0.360252D+00
            S   3   1.00
                  0.131826D+03          -0.531330D-01
                  0.400703D+02          -0.233346D+00
                  0.789448D+01           0.500000D+00
            S   2   1.00
                  0.427711D+01           0.500000D+00
                  0.196233D+01           0.370517D+00
            S   1   1.00
                  0.520793D+00           1.0000000
            S   1   1.00
                  0.181633D+00           1.0000000
            P   7   1.00
                  0.124440D+04           0.988206D-03
                  0.295109D+03           0.829674D-02
                  0.947224D+02           0.430906D-01
                  0.352588D+02           0.148443D+00
                  0.144211D+02           0.344744D+00
                  0.610371D+01           0.500000D+00
                  0.258886D+01           0.348278D+00
            P   2   1.00
                  0.109447D+02          -0.196768D-01
                  0.104413D+01           0.500000D+00
            P   1   1.00
                  0.376184D+00           1.0000000
            P   1   1.00
                  0.120613D+00           1.0000000
            D   1   1.00
                  0.231000D+01           1.0000000
            D   1   1.00
                  0.520000D+00           1.0000000
            F   1   1.00
                  0.720000D+00           1.0000000
            ****
            -S     0
            S   8   1.00
                  0.134700D+06           0.226231D-03
                  0.201904D+05           0.175488D-02
                  0.459528D+04           0.914190D-02
                  0.130109D+04           0.373551D-01
                  0.423902D+03           0.123121D+00
                  0.152485D+03           0.306801D+00
                  0.586925D+02           0.500000D+00
                  0.231461D+02           0.354358D+00
            S   3   1.00
                  0.116327D+03          -0.491772D-01
                  0.352841D+02          -0.215962D+00
                  0.677831D+01           0.500000D+00
            S   2   1.00
                  0.360404D+01           0.500000D+00
                  0.164871D+01           0.366278D+00
            S   1   1.00
                  0.421821D+00           1.0000000
            S   1   1.00
                  0.147554D+00           1.0000000
            P   7   1.00
                  0.104863D+04           0.105273D-02
                  0.248717D+03           0.879338D-02
                  0.797887D+02           0.453358D-01
                  0.296023D+02           0.154476D+00
                  0.120627D+02           0.352366D+00
                  0.507628D+01           0.500000D+00
                  0.213375D+01           0.346429D+00
            P   2   1.00
                  0.928958D+01          -0.185932D-01
                  0.837819D+00           0.500000D+00
            P   1   1.00
                  0.301495D+00           1.0000000
            P   1   1.00
                  0.974740D-01           1.0000000
            D   1   1.00
                  0.210000D+01           1.0000000
            D   1   1.00
                  0.480000D+00           1.0000000
            F   1   1.00
                  0.660000D+00           1.0000000
            ****
            -Br     0
            S    10   1.00
                  0.233625D+07           0.532336D-04
                  0.349961D+06           0.413715D-03
                  0.796444D+05           0.217123D-02
                  0.225555D+05           0.910109D-02
                  0.735546D+04           0.323789D-01
                  0.265352D+04           0.988755D-01
                  0.103517D+04           0.248138D+00
                  0.422205D+03           0.474328D+00
                  0.180035D+03           0.500000D+00
                  0.793308D+02           0.187769D+00
            S    4   1.00
                  0.620834D+03          -0.226511D-01
                  0.190829D+03          -0.109497D+00
                  0.312505D+02           0.500000D+00
                  0.135270D+02           0.492812D+00
            S    2   1.00
                  0.216097D+02          -0.165418D+00
                  0.372566D+01           0.500000D+00
            S    1   1.00
                  0.169770D+01           1.0000000
            S    1   1.00
                  0.489332D+00           1.0000000
            S    1   1.00
                  0.175712D+00           1.0000000
            P    8   1.00
                  0.960829D+04           0.478974D-03
                  0.227618D+04           0.417853D-02
                  0.736723D+03           0.229315D-01
                  0.281579D+03           0.892653D-01
                  0.118395D+03           0.255288D+00
                  0.527481D+02           0.479074D+00
                  0.245098D+02           0.500000D+00
                  0.112009D+02           0.200944D+00
            P    4   1.00
                  0.587849D+02          -0.189674D-01
                  0.918962D+01           0.264104D+00
                  0.413895D+01           0.500000D+00
                  0.184225D+01           0.319316D+00
            P    1   1.00
                  0.713862D+00           1.0000000
            P    1   1.00
                  0.274232D+00           1.0000000
            P    1   1.00
                  0.944411D-01           1.0000000
            D    7   1.00
                  0.398470D+03           0.204066D-02
                  0.118967D+03           0.175171D-01
                  0.450197D+02           0.829708D-01
                  0.190320D+02           0.236284D+00
                  0.855686D+01           0.428468D+00
                  0.382950D+01           0.500000D+00
                  0.166291D+01           0.349360D+00
            D    1   1.00
                  0.672953D+00           1.0000000
            D    1   1.00
                  0.252000D+00           1.0000000
            F    1   1.00
                  0.530000D+00           1.0000000
            ****
            -Si     0
            S    8   1.00
                  0.996133D+05           0.235546D-03
                  0.149311D+05           0.182707D-02
                  0.339820D+04           0.951425D-02
                  0.962140D+03           0.388172D-01
                  0.313430D+03           0.127328D+00
                  0.112683D+03           0.313522D+00
                  0.433372D+02           0.500000D+00
                  0.170029D+02           0.340347D+00
            S    3   1.00
                  0.884208D+02          -0.404451D-01
                  0.266756D+02          -0.178059D+00
                  0.479640D+01           0.500000D+00
            S    2   1.00
                  0.239385D+01           0.500000D+00
                  0.108333D+01           0.338016D+00
            S    1   1.00
                  0.252420D+00           1.0000000
            S    1   1.00
                  0.891210D-01           1.0000000
            P    7   1.00
                  0.709901D+03           0.123028D-02
                  0.168426D+03           0.101366D-01
                  0.539946D+02           0.511840D-01
                  0.198646D+02           0.169967D+00
                  0.801369D+01           0.370717D+00
                  0.331870D+01           0.500000D+00
                  0.136112D+01           0.344128D+00
            P    2   1.00
                  0.622158D+01          -0.166609D-01
                  0.503049D+00           0.500000D+00
            P    1   1.00
                  0.179848D+00           1.0000000
            P    1   1.00
                  0.591912D-01           1.0000000
            D    1   1.00
                  0.168000D+01           1.0000000
            D    1   1.00
                  0.380000D+00           1.0000000
            F    1   1.00
                  0.540000D+00           1.0000000
            ****
            -P     0
            S    8   1.00
                  0.116416D+06           0.230715D-03
                  0.174500D+05           0.178960D-02
                  0.397149D+04           0.932116D-02
                  0.112447D+04           0.380591D-01
                  0.366347D+03           0.125148D+00
                  0.131757D+03           0.310022D+00
                  0.506988D+02           0.500000D+00
                  0.199436D+02           0.347528D+00
            S    3   1.00
                  0.101878D+03          -0.446755D-01
                  0.308249D+02          -0.196376D+00
                  0.573688D+01           0.500000D+00
            S    2   1.00
                  0.296868D+01           0.500000D+00
                  0.135315D+01           0.355098D+00
            S    1   1.00
                  0.332196D+00           1.0000000
            S    1   1.00
                  0.116229D+00           1.0000000
            P    7   1.00
                  0.873928D+03           0.112375D-02
                  0.207298D+03           0.933330D-02
                  0.664628D+02           0.477213D-01
                  0.245665D+02           0.160733D+00
                  0.996820D+01           0.359760D+00
                  0.416536D+01           0.500000D+00
                  0.173022D+01           0.346593D+00
            P    2   1.00
                  0.772530D+01          -0.175718D-01
                  0.657252D+00           0.500000D+00
            P    1   1.00
                  0.239903D+00           1.0000000
            P    1   1.00
                  0.800988D-01           1.0000000
            D    1   1.00
                  0.189000D+01           1.0000000
            D    1   1.00
                  0.430000D+00           1.0000000
            F    1   1.00
                  0.600000D+00           1.0000000
            ****
            
 Initial command:
 /usr/local/apps/g16_b01_avx/g16/l1.exe "/wrk/irikura/Gau-397749.inp" -scrdir="/wrk/irikura/"
 Entering Link 1 = /usr/local/apps/g16_b01_avx/g16/l1.exe PID=    397751.
  
 Copyright (c) 1988-2017, Gaussian, Inc.  All Rights Reserved.
  
 This is part of the Gaussian(R) 16 program.  It is based on
 the Gaussian(R) 09 system (copyright 2009, Gaussian, Inc.),
 the Gaussian(R) 03 system (copyright 2003, Gaussian, Inc.),
 the Gaussian(R) 98 system (copyright 1998, Gaussian, Inc.),
 the Gaussian(R) 94 system (copyright 1995, Gaussian, Inc.),
 the Gaussian 92(TM) system (copyright 1992, Gaussian, Inc.),
 the Gaussian 90(TM) system (copyright 1990, Gaussian, Inc.),
 the Gaussian 88(TM) system (copyright 1988, Gaussian, Inc.),
 the Gaussian 86(TM) system (copyright 1986, Carnegie Mellon
 University), and the Gaussian 82(TM) system (copyright 1983,
 Carnegie Mellon University). Gaussian is a federally registered
 trademark of Gaussian, Inc.
  
 This software contains proprietary and confidential information,
 including trade secrets, belonging to Gaussian, Inc.
  
 This software is provided under written license and may be
 used, copied, transmitted, or stored only in accord with that
 written license.
  
 The following legend is applicable only to US Government
 contracts under FAR:
  
                    RESTRICTED RIGHTS LEGEND
  
 Use, reproduction and disclosure by the US Government is
 subject to restrictions as set forth in subparagraphs (a)
 and (c) of the Commercial Computer Software - Restricted
 Rights clause in FAR 52.227-19.
  
 Gaussian, Inc.
 340 Quinnipiac St., Bldg. 40, Wallingford CT 06492
  
  
 ---------------------------------------------------------------
 Warning -- This program may not be used in any manner that
 competes with the business of Gaussian, Inc. or will provide
 assistance to any competitor of Gaussian, Inc.  The licensee
 of this program is prohibited from giving any competitor of
 Gaussian, Inc. access to this program.  By using this program,
 the user acknowledges that Gaussian, Inc. is engaged in the
 business of creating and licensing software in the field of
 computational chemistry and represents and warrants to the
 licensee that it is not a competitor of Gaussian, Inc. and that
 it will not use this program in any manner prohibited above.
 ---------------------------------------------------------------
  

 Cite this work as:
 Gaussian 16, Revision B.01,
 M. J. Frisch, G. W. Trucks, H. B. Schlegel, G. E. Scuseria, 
 M. A. Robb, J. R. Cheeseman, G. Scalmani, V. Barone, 
 G. A. Petersson, H. Nakatsuji, X. Li, M. Caricato, A. V. Marenich, 
 J. Bloino, B. G. Janesko, R. Gomperts, B. Mennucci, H. P. Hratchian, 
 J. V. Ortiz, A. F. Izmaylov, J. L. Sonnenberg, D. Williams-Young, 
 F. Ding, F. Lipparini, F. Egidi, J. Goings, B. Peng, A. Petrone, 
 T. Henderson, D. Ranasinghe, V. G. Zakrzewski, J. Gao, N. Rega, 
 G. Zheng, W. Liang, M. Hada, M. Ehara, K. Toyota, R. Fukuda, 
 J. Hasegawa, M. Ishida, T. Nakajima, Y. Honda, O. Kitao, H. Nakai, 
 T. Vreven, K. Throssell, J. A. Montgomery, Jr., J. E. Peralta, 
 F. Ogliaro, M. J. Bearpark, J. J. Heyd, E. N. Brothers, K. N. Kudin, 
 V. N. Staroverov, T. A. Keith, R. Kobayashi, J. Normand, 
 K. Raghavachari, A. P. Rendell, J. C. Burant, S. S. Iyengar, 
 J. Tomasi, M. Cossi, J. M. Millam, M. Klene, C. Adamo, R. Cammi, 
 J. W. Ochterski, R. L. Martin, K. Morokuma, O. Farkas, 
 J. B. Foresman, and D. J. Fox, Gaussian, Inc., Wallingford CT, 2016.
 
 ******************************************
 Gaussian 16:  ES64L-G16RevB.01 20-Dec-2017
                29-Sep-2023 
 ******************************************
 %chk=ch2ccn.chk
 %mem=500mw
 %nprocs=4
 Will use up to    4 processors via shared memory.
 ---------------------------------------
 # b3lyp/gen opt freq CPHF(Grid=OneStep)
 ---------------------------------------
 1/18=20,19=15,26=3,38=1/1,3;
 2/9=110,12=2,17=6,18=5,40=1/2;
 3/5=7,11=2,25=1,30=1,71=1,74=-5/1,2,3;
 4//1;
 5/5=2,38=5/2;
 6/7=2,8=2,9=2,10=2,28=1/1;
 7//1,2,3,16;
 1/18=20,19=15,26=3/3(2);
 2/9=110/2;
 99//99;
 2/9=110/2;
 3/5=7,6=1,11=2,25=1,30=1,71=1,74=-5,82=7/1,2,3;
 4/5=5,16=3,69=1/1;
 5/5=2,38=5/2;
 7//1,2,3,16;
 1/18=20,19=15,26=3/3(-5);
 2/9=110/2;
 6/7=2,8=2,9=2,10=2,19=2,28=1/1;
 99/9=1/99;
 ---------------------------
 1-cyanovinyl, B3LYP/pcseg-2
 ---------------------------
 Symbolic Z-matrix:
 Charge =  0 Multiplicity = 2
 C                     0.53337   1.72471   0. 
 C                     0.        0.53973   0. 
 C                    -0.22385  -0.77501   0. 
 N                    -0.48532  -1.91845   0. 
 H                    -0.07243   2.62597   0. 
 H                     1.61255   1.86656   0. 
 

 GradGradGradGradGradGradGradGradGradGradGradGradGradGradGradGradGradGrad
 Berny optimization.
 Initialization pass.
                           ----------------------------
                           !    Initial Parameters    !
                           ! (Angstroms and Degrees)  !
 --------------------------                            --------------------------
 ! Name  Definition              Value          Derivative Info.                !
 --------------------------------------------------------------------------------
 ! R1    R(1,2)                  1.2995         estimate D2E/DX2                !
 ! R2    R(1,5)                  1.0859         estimate D2E/DX2                !
 ! R3    R(1,6)                  1.0885         estimate D2E/DX2                !
 ! R4    R(2,3)                  1.3337         estimate D2E/DX2                !
 ! R5    R(3,4)                  1.173          estimate D2E/DX2                !
 ! A1    A(2,1,5)              121.8593         estimate D2E/DX2                !
 ! A2    A(2,1,6)              121.7212         estimate D2E/DX2                !
 ! A3    A(5,1,6)              116.4195         estimate D2E/DX2                !
 ! A4    L(1,2,3,6,-1)         165.4296         estimate D2E/DX2                !
 ! A5    L(2,3,4,6,-1)         183.218          estimate D2E/DX2                !
 ! A6    L(1,2,3,6,-2)         180.0            estimate D2E/DX2                !
 ! A7    L(2,3,4,6,-2)         180.0            estimate D2E/DX2                !
 ! D1    D(2,1,6,5)            180.0            estimate D2E/DX2                !
 --------------------------------------------------------------------------------
 Trust Radius=3.00D-01 FncErr=1.00D-07 GrdErr=1.00D-06 EigMax=2.50D+02 EigMin=1.00D-04
 Number of steps in this run=     23 maximum allowed number of steps=    100.
 GradGradGradGradGradGradGradGradGradGradGradGradGradGradGradGradGradGrad

                          Input orientation:                          
 ---------------------------------------------------------------------
 Center     Atomic      Atomic             Coordinates (Angstroms)
 Number     Number       Type             X           Y           Z
 ---------------------------------------------------------------------
      1          6           0        0.533370    1.724711    0.000000
      2          6           0        0.000000    0.539731    0.000000
      3          6           0       -0.223847   -0.775007    0.000000
      4          7           0       -0.485322   -1.918450    0.000000
      5          1           0       -0.072431    2.625973    0.000000
      6          1           0        1.612552    1.866564    0.000000
 ---------------------------------------------------------------------
                    Distance matrix (angstroms):
                    1          2          3          4          5
     1  C    0.000000
     2  C    1.299485   0.000000
     3  C    2.611890   1.333658   0.000000
     4  N    3.782903   2.505632   1.172958   0.000000
     5  H    1.085941   2.087499   3.404349   4.563141   0.000000
     6  H    1.088465   2.088255   3.217182   4.327517   1.848207
                    6
     6  H    0.000000
 Stoichiometry    C3H2N(2)
 Framework group  CS[SG(C3H2N)]
 Deg. of freedom     9
 Full point group                 CS      NOp   2
 Largest Abelian subgroup         CS      NOp   2
 Largest concise Abelian subgroup C1      NOp   1
                         Standard orientation:                         
 ---------------------------------------------------------------------
 Center     Atomic      Atomic             Coordinates (Angstroms)
 Number     Number       Type             X           Y           Z
 ---------------------------------------------------------------------
      1          6           0        0.533370    1.724711   -0.000000
      2          6           0       -0.000000    0.539731   -0.000000
      3          6           0       -0.223847   -0.775007    0.000000
      4          7           0       -0.485323   -1.918450    0.000000
      5          1           0       -0.072430    2.625973   -0.000000
      6          1           0        1.612552    1.866564   -0.000000
 ---------------------------------------------------------------------
 Rotational constants (GHZ):         248.8742829           4.3612940           4.2861825
 General basis read from cards:  (5D, 7F)
 There are   118 symmetry adapted cartesian basis functions of A'  symmetry.
 There are    52 symmetry adapted cartesian basis functions of A"  symmetry.
 There are   100 symmetry adapted basis functions of A'  symmetry.
 There are    48 symmetry adapted basis functions of A"  symmetry.
   148 basis functions,   240 primitive gaussians,   170 cartesian basis functions
    14 alpha electrons       13 beta electrons
       nuclear repulsion energy        82.6874453501 Hartrees.
 NAtoms=    6 NActive=    6 NUniq=    6 SFac= 1.00D+00 NAtFMM=   60 NAOKFM=F Big=F
 Integral buffers will be    131072 words long.
 Raffenetti 2 integral format.
 Two-electron integral symmetry is turned on.
 One-electron integrals computed using PRISM.
 NBasis=   148 RedAO= T EigKep=  5.70D-05  NBF=   100    48
 NBsUse=   148 1.00D-06 EigRej= -1.00D+00 NBFU=   100    48
 ExpMin= 7.42D-02 ExpMax= 1.02D+04 ExpMxC= 3.47D+02 IAcc=3 IRadAn=         5 AccDes= 0.00D+00
 Harris functional with IExCor=  402 and IRadAn=       5 diagonalized for initial guess.
 HarFok:  IExCor=  402 AccDes= 0.00D+00 IRadAn=         5 IDoV= 1 UseB2=F ITyADJ=14
 ICtDFT=  3500011 ScaDFX=  1.000000  1.000000  1.000000  1.000000
 FoFCou: FMM=F IPFlag=           0 FMFlag=      100000 FMFlg1=           0
         NFxFlg=           0 DoJE=T BraDBF=F KetDBF=T FulRan=T
         wScrn=  0.000000 ICntrl=       500 IOpCl=  0 I1Cent=   200000004 NGrid=           0
         NMat0=    1 NMatS0=      1 NMatT0=    0 NMatD0=    1 NMtDS0=    0 NMtDT0=    0
 Petite list used in FoFCou.
 Initial guess orbital symmetries:
 Alpha Orbitals:
       Occupied  (A') (A') (A') (A') (A') (A') (A') (A') (A') (A")
                 (A') (A') (A") (A')
       Virtual   (A") (A') (A') (A") (A') (A') (A') (A") (A') (A')
                 (A') (A") (A') (A') (A') (A") (A') (A') (A') (A")
                 (A') (A') (A') (A') (A") (A') (A') (A") (A') (A")
                 (A') (A') (A") (A') (A') (A') (A") (A') (A") (A')
                 (A') (A") (A') (A") (A') (A") (A') (A") (A') (A')
                 (A") (A') (A') (A") (A') (A') (A') (A') (A") (A')
                 (A') (A') (A") (A') (A') (A') (A') (A") (A') (A")
                 (A') (A') (A") (A") (A') (A') (A") (A') (A') (A")
                 (A') (A") (A') (A") (A') (A") (A') (A") (A') (A')
                 (A") (A') (A") (A') (A") (A') (A') (A") (A') (A")
                 (A') (A') (A') (A") (A') (A") (A") (A') (A') (A')
                 (A') (A") (A") (A') (A') (A") (A') (A") (A") (A')
                 (A') (A") (A') (A') (A") (A') (A') (A') (A") (A')
                 (A') (A') (A') (A')
 Beta  Orbitals:
       Occupied  (A') (A') (A') (A') (A') (A') (A') (A') (A') (A")
                 (A') (A') (A")
       Virtual   (A') (A") (A') (A') (A") (A') (A') (A') (A") (A')
                 (A') (A') (A") (A') (A') (A') (A") (A') (A') (A')
                 (A") (A') (A') (A') (A') (A") (A') (A') (A") (A')
                 (A") (A') (A') (A") (A') (A') (A') (A") (A') (A")
                 (A') (A') (A") (A') (A") (A') (A") (A') (A") (A')
                 (A') (A") (A') (A') (A") (A') (A') (A') (A') (A")
                 (A') (A') (A') (A") (A') (A') (A') (A') (A") (A')
                 (A") (A') (A') (A") (A") (A') (A') (A") (A') (A')
                 (A") (A') (A") (A') (A") (A') (A") (A') (A") (A')
                 (A') (A") (A') (A") (A') (A") (A') (A') (A") (A')
                 (A") (A') (A') (A') (A") (A') (A") (A") (A') (A')
                 (A') (A') (A") (A") (A') (A') (A") (A') (A") (A")
                 (A') (A') (A") (A') (A') (A") (A') (A') (A') (A")
                 (A') (A') (A') (A') (A')
 The electronic state of the initial guess is 2-A'.
 Initial guess <Sx>= 0.0000 <Sy>= 0.0000 <Sz>= 0.5000 <S**2>= 0.7500 S= 0.5000
 Keep R1 and R2 ints in memory in symmetry-blocked form, NReq=92746448.
 Requested convergence on RMS density matrix=1.00D-08 within 128 cycles.
 Requested convergence on MAX density matrix=1.00D-06.
 Requested convergence on             energy=1.00D-06.
 No special actions if energy rises.
 Integral accuracy reduced to 1.0D-05 until final iterations.
 Initial convergence to 1.0D-05 achieved.  Increase integral accuracy.
 SCF Done:  E(UB3LYP) =  -170.227852549     A.U. after   20 cycles
            NFock= 20  Conv=0.36D-08     -V/T= 2.0034
 <Sx>= 0.0000 <Sy>= 0.0000 <Sz>= 0.5000 <S**2>= 0.7742 S= 0.5120
 <L.S>=  0.00000000000    
 Annihilation of the first spin contaminant:
 S**2 before annihilation     0.7742,   after     0.7504

 **********************************************************************

            Population analysis using the SCF Density.

 **********************************************************************

 Orbital symmetries:
 Alpha Orbitals:
       Occupied  (A') (A') (A') (A') (A') (A') (A') (A') (A') (A")
                 (A') (A') (A") (A')
       Virtual   (A") (A') (A') (A') (A') (A") (A') (A") (A') (A')
                 (A") (A') (A') (A') (A") (A') (A') (A') (A') (A")
                 (A') (A') (A') (A") (A') (A') (A') (A") (A') (A")
                 (A') (A') (A") (A') (A') (A") (A') (A') (A') (A")
                 (A') (A") (A') (A') (A") (A") (A') (A") (A') (A')
                 (A") (A') (A') (A') (A") (A') (A') (A') (A') (A")
                 (A') (A') (A") (A') (A') (A') (A') (A") (A') (A")
                 (A') (A') (A") (A") (A') (A') (A") (A') (A') (A")
                 (A') (A") (A') (A') (A") (A") (A') (A") (A') (A')
                 (A") (A') (A") (A') (A") (A') (A') (A') (A") (A")
                 (A') (A') (A') (A") (A") (A') (A") (A') (A') (A')
                 (A') (A") (A") (A') (A') (A") (A") (A') (A") (A')
                 (A') (A') (A") (A') (A") (A') (A') (A') (A") (A')
                 (A') (A') (A') (A')
 Beta  Orbitals:
       Occupied  (A') (A') (A') (A') (A') (A') (A') (A') (A') (A")
                 (A') (A') (A")
       Virtual   (A') (A") (A') (A') (A') (A') (A") (A') (A") (A')
                 (A') (A") (A') (A') (A') (A") (A') (A') (A') (A')
                 (A") (A') (A') (A') (A") (A') (A') (A') (A") (A')
                 (A") (A') (A') (A") (A') (A') (A") (A') (A') (A")
                 (A') (A') (A") (A') (A") (A') (A") (A') (A") (A')
                 (A') (A") (A') (A') (A') (A") (A') (A') (A') (A")
                 (A') (A') (A') (A") (A') (A') (A') (A') (A") (A')
                 (A") (A') (A') (A") (A") (A') (A') (A") (A') (A')
                 (A") (A') (A") (A') (A") (A') (A") (A') (A') (A")
                 (A') (A") (A") (A') (A') (A") (A') (A') (A') (A")
                 (A") (A') (A') (A') (A") (A") (A') (A") (A') (A')
                 (A') (A') (A") (A") (A') (A') (A") (A") (A') (A")
                 (A') (A') (A") (A') (A') (A") (A') (A') (A') (A")
                 (A') (A') (A') (A') (A')
 The electronic state is 2-A'.
 Alpha  occ. eigenvalues --  -14.34838 -10.25073 -10.23573 -10.23162  -0.93750
 Alpha  occ. eigenvalues --   -0.83202  -0.70788  -0.53579  -0.49839  -0.41041
 Alpha  occ. eigenvalues --   -0.40314  -0.39769  -0.31331  -0.25605
 Alpha virt. eigenvalues --   -0.08687   0.00698   0.03632   0.06495   0.07904
 Alpha virt. eigenvalues --    0.10094   0.11741   0.15460   0.16656   0.17972
 Alpha virt. eigenvalues --    0.21351   0.21793   0.23867   0.26387   0.28705
 Alpha virt. eigenvalues --    0.29467   0.32814   0.34424   0.39850   0.43512
 Alpha virt. eigenvalues --    0.43672   0.45688   0.51200   0.62178   0.63027
 Alpha virt. eigenvalues --    0.68858   0.76594   0.77162   0.82663   0.85247
 Alpha virt. eigenvalues --    0.91448   0.93877   0.98590   0.99893   1.02081
 Alpha virt. eigenvalues --    1.07600   1.08440   1.08938   1.19190   1.19712
 Alpha virt. eigenvalues --    1.20719   1.26661   1.26858   1.30398   1.30686
 Alpha virt. eigenvalues --    1.32946   1.38202   1.44557   1.45608   1.46295
 Alpha virt. eigenvalues --    1.52724   1.54552   1.55104   1.69498   1.70844
 Alpha virt. eigenvalues --    1.79276   1.92341   1.95736   1.97743   1.98047
 Alpha virt. eigenvalues --    2.22561   2.26073   2.37323   2.39322   2.57387
 Alpha virt. eigenvalues --    2.60745   2.70230   2.92311   3.01929   3.09369
 Alpha virt. eigenvalues --    3.12515   3.15893   3.21687   3.25898   3.34548
 Alpha virt. eigenvalues --    3.35892   3.38060   3.45298   3.50043   3.54733
 Alpha virt. eigenvalues --    3.59524   3.63647   3.69366   3.74759   3.74897
 Alpha virt. eigenvalues --    3.77304   3.82640   3.85806   3.87056   3.90913
 Alpha virt. eigenvalues --    3.93497   3.95000   3.95067   4.01183   4.06988
 Alpha virt. eigenvalues --    4.11174   4.14541   4.18231   4.18496   4.20814
 Alpha virt. eigenvalues --    4.23165   4.29793   4.33971   4.37742   4.43546
 Alpha virt. eigenvalues --    4.43789   4.47752   4.51669   4.58708   4.66087
 Alpha virt. eigenvalues --    4.70616   4.73534   4.81475   4.87460   5.01878
 Alpha virt. eigenvalues --    5.02383   5.10931   5.11092   5.31609   5.32458
 Alpha virt. eigenvalues --    5.37381   5.44512   5.44644   5.56255   5.58362
 Alpha virt. eigenvalues --    5.70191   5.75766   5.83886   5.86028   6.01024
 Alpha virt. eigenvalues --    6.38625   6.40963   7.17935   8.34724
  Beta  occ. eigenvalues --  -14.33886 -10.23925 -10.23812 -10.23373  -0.92264
  Beta  occ. eigenvalues --   -0.81381  -0.69826  -0.52672  -0.48083  -0.40436
  Beta  occ. eigenvalues --   -0.38561  -0.37122  -0.30838
  Beta virt. eigenvalues --   -0.13293  -0.08221   0.00964   0.04561   0.06720
  Beta virt. eigenvalues --    0.09652   0.10683   0.12013   0.15233   0.17623
  Beta virt. eigenvalues --    0.18396   0.21297   0.22986   0.23945   0.27571
  Beta virt. eigenvalues --    0.29118   0.29839   0.33313   0.34897   0.40562
  Beta virt. eigenvalues --    0.43837   0.44782   0.45947   0.51971   0.62647
  Beta virt. eigenvalues --    0.63374   0.69481   0.78108   0.78188   0.83558
  Beta virt. eigenvalues --    0.85552   0.92273   0.94555   1.00378   1.00671
  Beta virt. eigenvalues --    1.02999   1.07999   1.09635   1.09955   1.19740
  Beta virt. eigenvalues --    1.20273   1.22030   1.26290   1.28229   1.31093
  Beta virt. eigenvalues --    1.31999   1.34055   1.39853   1.45120   1.46597
  Beta virt. eigenvalues --    1.47154   1.53623   1.55035   1.56277   1.70035
  Beta virt. eigenvalues --    1.71333   1.81200   1.93128   1.97164   1.99031
  Beta virt. eigenvalues --    1.99927   2.23234   2.27193   2.37785   2.40507
  Beta virt. eigenvalues --    2.58331   2.61801   2.70833   2.93273   3.03500
  Beta virt. eigenvalues --    3.11198   3.14181   3.16957   3.21542   3.26285
  Beta virt. eigenvalues --    3.35373   3.38655   3.40234   3.46024   3.51267
  Beta virt. eigenvalues --    3.55586   3.60284   3.64932   3.69652   3.76747
  Beta virt. eigenvalues --    3.76772   3.78009   3.83912   3.88178   3.88306
  Beta virt. eigenvalues --    3.91058   3.93453   3.95187   3.97218   4.02705
  Beta virt. eigenvalues --    4.08199   4.13224   4.15069   4.18830   4.19070
  Beta virt. eigenvalues --    4.22066   4.24008   4.30993   4.34836   4.37990
  Beta virt. eigenvalues --    4.44512   4.45193   4.48413   4.52839   4.59793
  Beta virt. eigenvalues --    4.67523   4.71723   4.74835   4.81940   4.89001
  Beta virt. eigenvalues --    5.05740   5.06114   5.11301   5.12846   5.32093
  Beta virt. eigenvalues --    5.33698   5.38941   5.45035   5.45971   5.57433
  Beta virt. eigenvalues --    5.58859   5.71049   5.76632   5.84542   5.86551
  Beta virt. eigenvalues --    6.02342   6.39578   6.41901   7.18661   8.35210
          Condensed to atoms (all electrons):
               1          2          3          4          5          6
     1  C    4.754611   0.634084  -0.136303   0.000085   0.427802   0.437702
     2  C    0.634084   5.258508   0.197709   0.011991  -0.055926  -0.060584
     3  C   -0.136303   0.197709   5.097647   0.732389   0.000492  -0.009114
     4  N    0.000085   0.011991   0.732389   6.442318  -0.000064   0.000377
     5  H    0.427802  -0.055926   0.000492  -0.000064   0.575566  -0.034728
     6  H    0.437702  -0.060584  -0.009114   0.000377  -0.034728   0.579525
          Atomic-Atomic Spin Densities.
               1          2          3          4          5          6
     1  C   -0.138408  -0.036335  -0.003087   0.001536   0.010511   0.022036
     2  C   -0.036335   0.902480  -0.016536  -0.025234  -0.019248  -0.031884
     3  C   -0.003087  -0.016536  -0.153148  -0.021142   0.002206  -0.002177
     4  N    0.001536  -0.025234  -0.021142   0.492424   0.000126   0.000610
     5  H    0.010511  -0.019248   0.002206   0.000126   0.079489  -0.022767
     6  H    0.022036  -0.031884  -0.002177   0.000610  -0.022767   0.099936
 Mulliken charges and spin densities:
               1          2
     1  C   -0.117982  -0.143747
     2  C    0.014218   0.773242
     3  C    0.117180  -0.193884
     4  N   -0.187095   0.448319
     5  H    0.086858   0.050316
     6  H    0.086822   0.065754
 Sum of Mulliken charges =  -0.00000   1.00000
 Mulliken charges and spin densities with hydrogens summed into heavy atoms:
               1          2
     1  C    0.055698  -0.027677
     2  C    0.014218   0.773242
     3  C    0.117180  -0.193884
     4  N   -0.187095   0.448319
 Electronic spatial extent (au):  <R**2>=            287.3339
 Charge=             -0.0000 electrons
 Dipole moment (field-independent basis, Debye):
    X=              1.1498    Y=              3.7781    Z=             -0.0000  Tot=              3.9492
 Quadrupole moment (field-independent basis, Debye-Ang):
   XX=            -22.1290   YY=            -25.2479   ZZ=            -23.9863
   XY=             -0.4360   XZ=              0.0000   YZ=              0.0000
 Traceless Quadrupole moment (field-independent basis, Debye-Ang):
   XX=              1.6587   YY=             -1.4601   ZZ=             -0.1986
   XY=             -0.4360   XZ=              0.0000   YZ=              0.0000
 Octapole moment (field-independent basis, Debye-Ang**2):
  XXX=              3.5078  YYY=             26.0310  ZZZ=              0.0000  XYY=              5.2280
  XXY=              3.5668  XXZ=             -0.0000  XZZ=             -0.2816  YZZ=             -1.4651
  YYZ=             -0.0000  XYZ=             -0.0000
 Hexadecapole moment (field-independent basis, Debye-Ang**3):
 XXXX=            -49.7800 YYYY=           -329.7145 ZZZZ=            -27.0604 XXXY=            -35.3809
 XXXZ=              0.0000 YYYX=            -46.9707 YYYZ=              0.0000 ZZZX=              0.0000
 ZZZY=              0.0000 XXYY=            -60.4918 XXZZ=            -13.9741 YYZZ=            -61.0849
 XXYZ=              0.0000 YYXZ=              0.0000 ZZXY=            -13.9528
 N-N= 8.268744535006D+01 E-N=-5.612824112475D+02  KE= 1.696430413731D+02
 Symmetry A'   KE= 1.645302038160D+02
 Symmetry A"   KE= 5.112837557159D+00
 Symmetry A'   SP= 1.000000000000D+00
 Symmetry A"   SP= 5.188708688511D-15
                          Isotropic Fermi Contact Couplings
        Atom                 a.u.       MegaHertz       Gauss      10(-4) cm-1
     1  C(13)             -0.05025     -56.48750     -20.15615     -18.84220
     2  C(13)              0.13320     149.73902      53.43061      49.94756
     3  C(13)             -0.05726     -64.37577     -22.97088     -21.47345
     4  N(14)              0.07982      25.78929       9.20226       8.60238
     5  H(1)               0.02825     126.26090      45.05303      42.11610
     6  H(1)               0.03327     148.71854      53.06647      49.60717
 --------------------------------------------------------
       Center         ----  Spin Dipole Couplings  ----
                      3XX-RR        3YY-RR        3ZZ-RR
 --------------------------------------------------------
     1   Atom        0.054403      0.072522     -0.126926
     2   Atom        0.795973     -0.412983     -0.382990
     3   Atom       -0.136451      0.165082     -0.028632
     4   Atom        0.858696     -0.503952     -0.354744
     5   Atom       -0.006006      0.014113     -0.008108
     6   Atom        0.000540      0.006661     -0.007201
 --------------------------------------------------------
                        XY            XZ            YZ
 --------------------------------------------------------
     1   Atom        0.017544      0.000000     -0.000000
     2   Atom       -0.367009      0.000000     -0.000000
     3   Atom        0.083323     -0.000000     -0.000000
     4   Atom       -0.288832     -0.000000     -0.000000
     5   Atom        0.005679     -0.000000     -0.000000
     6   Atom        0.007389     -0.000000     -0.000000
 --------------------------------------------------------


 ---------------------------------------------------------------------------------
              Anisotropic Spin Dipole Couplings in Principal Axis System
 ---------------------------------------------------------------------------------

       Atom             a.u.   MegaHertz   Gauss  10(-4) cm-1        Axes

              Baa    -0.1269   -17.032    -6.078    -5.681  0.0000  0.0000  1.0000
     1 C(13)  Bbb     0.0437     5.866     2.093     1.957  0.8541 -0.5202  0.0000
              Bcc     0.0832    11.166     3.984     3.724  0.5202  0.8541 -0.0000
 
              Baa    -0.5157   -69.199   -24.692   -23.082  0.2695  0.9630  0.0000
     2 C(13)  Bbb    -0.3830   -51.394   -18.339   -17.143  0.0000  0.0000  1.0000
              Bcc     0.8987   120.592    43.030    40.225  0.9630 -0.2695  0.0000
 
              Baa    -0.1579   -21.194    -7.563    -7.070  0.9683 -0.2498  0.0000
     3 C(13)  Bbb    -0.0286    -3.842    -1.371    -1.282  0.0000  0.0000  1.0000
              Bcc     0.1866    25.037     8.934     8.351  0.2498  0.9683 -0.0000
 
              Baa    -0.5626   -21.700    -7.743    -7.238  0.1991  0.9800  0.0000
     4 N(14)  Bbb    -0.3547   -13.682    -4.882    -4.564  0.0000  0.0000  1.0000
              Bcc     0.9174    35.382    12.625    11.802  0.9800 -0.1991  0.0000
 
              Baa    -0.0081    -4.326    -1.544    -1.443  0.0000  0.0000  1.0000
     5 H(1)   Bbb    -0.0075    -4.001    -1.427    -1.334  0.9672 -0.2541  0.0000
              Bcc     0.0156     8.326     2.971     2.777  0.2541  0.9672 -0.0000
 
              Baa    -0.0072    -3.842    -1.371    -1.282  0.0000  0.0000  1.0000
     6 H(1)   Bbb    -0.0044    -2.346    -0.837    -0.783  0.8315 -0.5556 -0.0000
              Bcc     0.0116     6.188     2.208     2.064  0.5556  0.8315 -0.0000
 

 ---------------------------------------------------------------------------------

 Calling FoFJK, ICntrl=      2127 FMM=F ISym2X=1 I1Cent= 0 IOpClX= 1 NMat=1 NMatS=1 NMatT=0.
 ***** Axes restored to original set *****
 -------------------------------------------------------------------
 Center     Atomic                   Forces (Hartrees/Bohr)
 Number     Number              X              Y              Z
 -------------------------------------------------------------------
      1        6          -0.000014457   -0.000021573    0.000000000
      2        6          -0.000000580   -0.000024500    0.000000000
      3        6           0.000006926    0.000036101   -0.000000000
      4        7          -0.000000144   -0.000000549    0.000000000
      5        1          -0.000014124    0.000013698   -0.000000000
      6        1           0.000022379   -0.000003179    0.000000000
 -------------------------------------------------------------------
 Cartesian Forces:  Max     0.000036101 RMS     0.000013993

 GradGradGradGradGradGradGradGradGradGradGradGradGradGradGradGradGradGrad
 Berny optimization.
 FormGI is forming the generalized inverse of G from B-inverse, IUseBI=4.
 Internal  Forces:  Max     0.000036192 RMS     0.000013581
 Search for a local minimum.
 Step number   1 out of a maximum of   23
 All quantities printed in internal units (Hartrees-Bohrs-Radians)
 Mixed Optimization -- En-DIIS/RFO-DIIS
 Second derivative matrix not updated -- first step.
 The second derivative matrix:
                          R1        R2        R3        R4        R5
           R1           0.67336
           R2           0.00000   0.35286
           R3           0.00000   0.00000   0.34991
           R4           0.00000   0.00000   0.00000   0.58650
           R5           0.00000   0.00000   0.00000   0.00000   1.19675
           A1           0.00000   0.00000   0.00000   0.00000   0.00000
           A2           0.00000   0.00000   0.00000   0.00000   0.00000
           A3           0.00000   0.00000   0.00000   0.00000   0.00000
           A4           0.00000   0.00000   0.00000   0.00000   0.00000
           A5           0.00000   0.00000   0.00000   0.00000   0.00000
           A6           0.00000   0.00000   0.00000   0.00000   0.00000
           A7           0.00000   0.00000   0.00000   0.00000   0.00000
           D1           0.00000   0.00000   0.00000   0.00000   0.00000
                          A1        A2        A3        A4        A5
           A1           0.16000
           A2           0.00000   0.16000
           A3           0.00000   0.00000   0.16000
           A4           0.00000   0.00000   0.00000   0.02966
           A5           0.00000   0.00000   0.00000   0.00000   0.04695
           A6           0.00000   0.00000   0.00000   0.00000   0.00000
           A7           0.00000   0.00000   0.00000   0.00000   0.00000
           D1           0.00000   0.00000   0.00000   0.00000   0.00000
                          A6        A7        D1
           A6           0.02966
           A7           0.00000   0.04695
           D1           0.00000   0.00000   0.00255
 ITU=  0
     Eigenvalues ---    0.00255   0.02966   0.02966   0.04695   0.04695
     Eigenvalues ---    0.16000   0.16000   0.34991   0.35286   0.58650
     Eigenvalues ---    0.67336   1.19675
 RFO step:  Lambda= 0.00000000D+00 EMin= 2.55135191D-03
 Linear search not attempted -- first point.
 Iteration  1 RMS(Cart)=  0.00005664 RMS(Int)=  0.00000000
 Iteration  2 RMS(Cart)=  0.00000000 RMS(Int)=  0.00000000
 ClnCor:  largest displacement from symmetrization is 1.00D-13 for atom     1.
 Variable       Old X    -DE/DX   Delta X   Delta X   Delta X     New X
                                 (Linear)    (Quad)   (Total)
    R1        2.45567  -0.00001   0.00000  -0.00002  -0.00002   2.45565
    R2        2.05213   0.00002   0.00000   0.00005   0.00005   2.05219
    R3        2.05690   0.00002   0.00000   0.00006   0.00006   2.05696
    R4        2.52025  -0.00004   0.00000  -0.00006  -0.00006   2.52019
    R5        2.21657   0.00000   0.00000   0.00000   0.00000   2.21657
    A1        2.12685  -0.00000   0.00000  -0.00001  -0.00001   2.12684
    A2        2.12444  -0.00001   0.00000  -0.00003  -0.00003   2.12440
    A3        2.03190   0.00001   0.00000   0.00004   0.00004   2.03195
    A4        2.88729  -0.00000   0.00000  -0.00005  -0.00005   2.88724
    A5        3.19776   0.00000   0.00000   0.00000   0.00000   3.19776
    A6        3.14159  -0.00000   0.00000  -0.00000   0.00000   3.14159
    A7        3.14159   0.00000   0.00000   0.00000   0.00000   3.14159
    D1        3.14159  -0.00000   0.00000   0.00000   0.00000   3.14159
         Item               Value     Threshold  Converged?
 Maximum Force            0.000036     0.000450     YES
 RMS     Force            0.000014     0.000300     YES
 Maximum Displacement     0.000133     0.001800     YES
 RMS     Displacement     0.000057     0.001200     YES
 Predicted change in Energy=-2.733288D-09
 Optimization completed.
    -- Stationary point found.
                           ----------------------------
                           !   Optimized Parameters   !
                           ! (Angstroms and Degrees)  !
 --------------------------                            --------------------------
 ! Name  Definition              Value          Derivative Info.                !
 --------------------------------------------------------------------------------
 ! R1    R(1,2)                  1.2995         -DE/DX =    0.0                 !
 ! R2    R(1,5)                  1.0859         -DE/DX =    0.0                 !
 ! R3    R(1,6)                  1.0885         -DE/DX =    0.0                 !
 ! R4    R(2,3)                  1.3337         -DE/DX =    0.0                 !
 ! R5    R(3,4)                  1.173          -DE/DX =    0.0                 !
 ! A1    A(2,1,5)              121.8593         -DE/DX =    0.0                 !
 ! A2    A(2,1,6)              121.7212         -DE/DX =    0.0                 !
 ! A3    A(5,1,6)              116.4195         -DE/DX =    0.0                 !
 ! A4    L(1,2,3,6,-1)         165.4296         -DE/DX =    0.0                 !
 ! A5    L(2,3,4,6,-1)         183.218          -DE/DX =    0.0                 !
 ! A6    L(1,2,3,6,-2)         180.0            -DE/DX =    0.0                 !
 ! A7    L(2,3,4,6,-2)         180.0            -DE/DX =    0.0                 !
 ! D1    D(2,1,6,5)            180.0            -DE/DX =    0.0                 !
 --------------------------------------------------------------------------------
 GradGradGradGradGradGradGradGradGradGradGradGradGradGradGradGradGradGrad

                          Input orientation:                          
 ---------------------------------------------------------------------
 Center     Atomic      Atomic             Coordinates (Angstroms)
 Number     Number       Type             X           Y           Z
 ---------------------------------------------------------------------
      1          6           0        0.533370    1.724711   -0.000000
      2          6           0       -0.000000    0.539731   -0.000000
      3          6           0       -0.223847   -0.775007    0.000000
      4          7           0       -0.485322   -1.918450    0.000000
      5          1           0       -0.072431    2.625973   -0.000000
      6          1           0        1.612552    1.866564   -0.000000
 ---------------------------------------------------------------------
                    Distance matrix (angstroms):
                    1          2          3          4          5
     1  C    0.000000
     2  C    1.299485   0.000000
     3  C    2.611890   1.333658   0.000000
     4  N    3.782903   2.505632   1.172958   0.000000
     5  H    1.085941   2.087499   3.404349   4.563141   0.000000
     6  H    1.088465   2.088255   3.217182   4.327517   1.848207
                    6
     6  H    0.000000
 Stoichiometry    C3H2N(2)
 Framework group  CS[SG(C3H2N)]
 Deg. of freedom     9
 Full point group                 CS      NOp   2
 Largest Abelian subgroup         CS      NOp   2
 Largest concise Abelian subgroup C1      NOp   1
                         Standard orientation:                         
 ---------------------------------------------------------------------
 Center     Atomic      Atomic             Coordinates (Angstroms)
 Number     Number       Type             X           Y           Z
 ---------------------------------------------------------------------
      1          6           0        0.533370    1.724711   -0.000000
      2          6           0       -0.000000    0.539731   -0.000000
      3          6           0       -0.223847   -0.775007    0.000000
      4          7           0       -0.485323   -1.918450    0.000000
      5          1           0       -0.072430    2.625973   -0.000000
      6          1           0        1.612552    1.866564   -0.000000
 ---------------------------------------------------------------------
 Rotational constants (GHZ):         248.8742829           4.3612940           4.2861825
 1\1\GINC-GAMBA\FOpt\UB3LYP\Gen\C3H2N1(2)\IRIKURA\29-Sep-2023\0\\# b3ly
 p/gen opt freq CPHF(Grid=OneStep)\\1-cyanovinyl, B3LYP/pcseg-2\\0,2\C,
 0.53337,1.724711,0.\C,0.,0.539731,0.\C,-0.223847,-0.775007,0.\N,-0.485
 322,-1.91845,0.\H,-0.072431,2.625973,0.\H,1.612552,1.866564,0.\\Versio
 n=ES64L-G16RevB.01\State=2-A'\HF=-170.2278525\S2=0.774222\S2-1=0.\S2A=
 0.750398\RMSD=3.642e-09\RMSF=1.399e-05\Dipole=0.4523776,1.4864237,0.\Q
 uadrupole=1.233231,-1.0855833,-0.1476477,-0.324167,0.,0.\PG=CS [SG(C3H
 2N1)]\\@


 THERE ARE TWO THINGS THAT EVERYBODY THINKS THEY CAN DO BETTER THAN
 ANYONE ELSE - PUNCH THE FIRE, AND EDIT A DAILY PAPER.
 -- UNCLE ESEK, "CENTURY MAGAZINE", 1885
 Job cpu time:       0 days  0 hours  1 minutes 11.0 seconds.
 Elapsed time:       0 days  0 hours  0 minutes 18.7 seconds.
 File lengths (MBytes):  RWF=     21 Int=      0 D2E=      0 Chk=      3 Scr=      1
 Normal termination of Gaussian 16 at Fri Sep 29 15:12:39 2023.
 Link1:  Proceeding to internal job step number  2.
 ------------------------------------------------------------------
 #N Geom=AllCheck Guess=TCheck SCRF=Check GenChk UB3LYP/ChkBas Freq
 ------------------------------------------------------------------
 1/10=4,29=7,30=1,38=1,40=1/1,3;
 2/12=2,40=1/2;
 3/5=7,6=2,11=2,14=-4,25=1,30=1,67=1,70=2,71=2,74=-5,82=7,116=2,140=1/1,2,3;
 4/5=101/1;
 5/5=2,38=6,98=1/2;
 8/6=4,10=90,11=11/1;
 11/6=1,8=1,9=11,15=111,16=1/1,2,10;
 10/6=1,60=-420/2;
 6/7=2,8=2,9=2,10=2,28=1/1;
 7/8=1,10=1,25=1/1,2,3,16;
 1/10=4,30=1/3;
 99//99;
 Structure from the checkpoint file:  "ch2ccn.chk"
 ---------------------------
 1-cyanovinyl, B3LYP/pcseg-2
 ---------------------------
 Charge =  0 Multiplicity = 2
 Redundant internal coordinates found in file.  (old form).
 C,0,0.53337,1.724711,0.
 C,0,0.,0.539731,0.
 C,0,-0.223847,-0.775007,0.
 N,0,-0.485322,-1.91845,0.
 H,0,-0.072431,2.625973,0.
 H,0,1.612552,1.866564,0.
 Recover connectivity data from disk.

 GradGradGradGradGradGradGradGradGradGradGradGradGradGradGradGradGradGrad
 Berny optimization.
 Initialization pass.
                           ----------------------------
                           !    Initial Parameters    !
                           ! (Angstroms and Degrees)  !
 --------------------------                            --------------------------
 ! Name  Definition              Value          Derivative Info.                !
 --------------------------------------------------------------------------------
 ! R1    R(1,2)                  1.2995         calculate D2E/DX2 analytically  !
 ! R2    R(1,5)                  1.0859         calculate D2E/DX2 analytically  !
 ! R3    R(1,6)                  1.0885         calculate D2E/DX2 analytically  !
 ! R4    R(2,3)                  1.3337         calculate D2E/DX2 analytically  !
 ! R5    R(3,4)                  1.173          calculate D2E/DX2 analytically  !
 ! A1    A(2,1,5)              121.8593         calculate D2E/DX2 analytically  !
 ! A2    A(2,1,6)              121.7212         calculate D2E/DX2 analytically  !
 ! A3    A(5,1,6)              116.4195         calculate D2E/DX2 analytically  !
 ! A4    L(1,2,3,6,-1)         165.4296         calculate D2E/DX2 analytically  !
 ! A5    L(2,3,4,6,-1)         183.218          calculate D2E/DX2 analytically  !
 ! A6    L(1,2,3,6,-2)         180.0            calculate D2E/DX2 analytically  !
 ! A7    L(2,3,4,6,-2)         180.0            calculate D2E/DX2 analytically  !
 ! D1    D(2,1,6,5)            180.0            calculate D2E/DX2 analytically  !
 --------------------------------------------------------------------------------
 Trust Radius=3.00D-01 FncErr=1.00D-07 GrdErr=1.00D-07 EigMax=2.50D+02 EigMin=1.00D-04
 Number of steps in this run=      2 maximum allowed number of steps=      2.
 GradGradGradGradGradGradGradGradGradGradGradGradGradGradGradGradGradGrad

                          Input orientation:                          
 ---------------------------------------------------------------------
 Center     Atomic      Atomic             Coordinates (Angstroms)
 Number     Number       Type             X           Y           Z
 ---------------------------------------------------------------------
      1          6           0        0.533370    1.724711   -0.000000
      2          6           0       -0.000000    0.539731   -0.000000
      3          6           0       -0.223847   -0.775007    0.000000
      4          7           0       -0.485322   -1.918450    0.000000
      5          1           0       -0.072431    2.625973   -0.000000
      6          1           0        1.612552    1.866564   -0.000000
 ---------------------------------------------------------------------
                    Distance matrix (angstroms):
                    1          2          3          4          5
     1  C    0.000000
     2  C    1.299485   0.000000
     3  C    2.611890   1.333658   0.000000
     4  N    3.782903   2.505632   1.172958   0.000000
     5  H    1.085941   2.087499   3.404349   4.563141   0.000000
     6  H    1.088465   2.088255   3.217182   4.327517   1.848207
                    6
     6  H    0.000000
 Stoichiometry    C3H2N(2)
 Framework group  CS[SG(C3H2N)]
 Deg. of freedom     9
 Full point group                 CS      NOp   2
 Largest Abelian subgroup         CS      NOp   2
 Largest concise Abelian subgroup C1      NOp   1
                         Standard orientation:                         
 ---------------------------------------------------------------------
 Center     Atomic      Atomic             Coordinates (Angstroms)
 Number     Number       Type             X           Y           Z
 ---------------------------------------------------------------------
      1          6           0        0.533370    1.724711   -0.000000
      2          6           0       -0.000000    0.539731   -0.000000
      3          6           0       -0.223847   -0.775007    0.000000
      4          7           0       -0.485323   -1.918450    0.000000
      5          1           0       -0.072430    2.625973   -0.000000
      6          1           0        1.612552    1.866564   -0.000000
 ---------------------------------------------------------------------
 Rotational constants (GHZ):         248.8742829           4.3612940           4.2861825
 Basis read from chk: "ch2ccn.chk" (5D, 7F)
 There are   118 symmetry adapted cartesian basis functions of A'  symmetry.
 There are    52 symmetry adapted cartesian basis functions of A"  symmetry.
 There are   100 symmetry adapted basis functions of A'  symmetry.
 There are    48 symmetry adapted basis functions of A"  symmetry.
   148 basis functions,   240 primitive gaussians,   170 cartesian basis functions
    14 alpha electrons       13 beta electrons
       nuclear repulsion energy        82.6874453501 Hartrees.
 NAtoms=    6 NActive=    6 NUniq=    6 SFac= 1.00D+00 NAtFMM=   60 NAOKFM=F Big=F
 Integral buffers will be    131072 words long.
 Raffenetti 2 integral format.
 Two-electron integral symmetry is turned on.
 One-electron integrals computed using PRISM.
 NBasis=   148 RedAO= T EigKep=  5.70D-05  NBF=   100    48
 NBsUse=   148 1.00D-06 EigRej= -1.00D+00 NBFU=   100    48
 Initial guess from the checkpoint file:  "ch2ccn.chk"
 B after Tr=    -0.000000   -0.000000   -0.000000
         Rot=    1.000000   -0.000000   -0.000000   -0.000000 Ang=   0.00 deg.
 Initial guess orbital symmetries:
 Alpha Orbitals:
       Occupied  (A') (A') (A') (A') (A') (A') (A') (A') (A') (A")
                 (A') (A') (A") (A')
       Virtual   (A") (A') (A') (A') (A') (A") (A') (A") (A') (A')
                 (A") (A') (A') (A') (A") (A') (A') (A') (A') (A")
                 (A') (A') (A') (A") (A') (A') (A') (A") (A') (A")
                 (A') (A') (A") (A') (A') (A") (A') (A') (A') (A")
                 (A') (A") (A') (A') (A") (A") (A') (A") (A') (A')
                 (A") (A') (A') (A') (A") (A') (A') (A') (A') (A")
                 (A') (A') (A") (A') (A') (A') (A') (A") (A') (A")
                 (A') (A') (A") (A") (A') (A') (A") (A') (A') (A")
                 (A') (A") (A') (A') (A") (A") (A') (A") (A') (A')
                 (A") (A') (A") (A') (A") (A') (A') (A') (A") (A")
                 (A') (A') (A') (A") (A") (A') (A") (A') (A') (A')
                 (A') (A") (A") (A') (A') (A") (A") (A') (A") (A')
                 (A') (A') (A") (A') (A") (A') (A') (A') (A") (A')
                 (A') (A') (A') (A')
 Beta  Orbitals:
       Occupied  (A') (A') (A') (A') (A') (A') (A') (A') (A') (A")
                 (A') (A') (A")
       Virtual   (A') (A") (A') (A') (A') (A') (A") (A') (A") (A')
                 (A') (A") (A') (A') (A') (A") (A') (A') (A') (A')
                 (A") (A') (A') (A') (A") (A') (A') (A') (A") (A')
                 (A") (A') (A') (A") (A') (A') (A") (A') (A') (A")
                 (A') (A') (A") (A') (A") (A') (A") (A') (A") (A')
                 (A') (A") (A') (A') (A') (A") (A') (A') (A') (A")
                 (A') (A') (A') (A") (A') (A') (A') (A') (A") (A')
                 (A") (A') (A') (A") (A") (A') (A') (A") (A') (A')
                 (A") (A') (A") (A') (A") (A') (A") (A') (A') (A")
                 (A') (A") (A") (A') (A') (A") (A') (A') (A') (A")
                 (A") (A') (A') (A') (A") (A") (A') (A") (A') (A')
                 (A') (A') (A") (A") (A') (A') (A") (A") (A') (A")
                 (A') (A') (A") (A') (A') (A") (A') (A') (A') (A")
                 (A') (A') (A') (A') (A')
 Initial guess <Sx>= 0.0000 <Sy>= 0.0000 <Sz>= 0.5000 <S**2>= 0.7742 S= 0.5120
 Keep R1 and R2 ints in memory in symmetry-blocked form, NReq=92746448.
 Requested convergence on RMS density matrix=1.00D-08 within 128 cycles.
 Requested convergence on MAX density matrix=1.00D-06.
 Requested convergence on             energy=1.00D-06.
 No special actions if energy rises.
 SCF Done:  E(UB3LYP) =  -170.227852549     A.U. after    1 cycles
            NFock=  1  Conv=0.22D-08     -V/T= 2.0034
 <Sx>= 0.0000 <Sy>= 0.0000 <Sz>= 0.5000 <S**2>= 0.7742 S= 0.5120
 <L.S>=  0.00000000000    
 Annihilation of the first spin contaminant:
 S**2 before annihilation     0.7742,   after     0.7504
 DoSCS=F DFT=T ScalE2(SS,OS)=  1.000000  1.000000
 Range of M.O.s used for correlation:     1   148
 NBasis=   148 NAE=    14 NBE=    13 NFC=     0 NFV=     0
 NROrb=    148 NOA=    14 NOB=    13 NVA=   134 NVB=   135

 **** Warning!!: The largest alpha MO coefficient is  0.35170511D+02


 **** Warning!!: The largest beta MO coefficient is  0.35460630D+02

 Symmetrizing basis deriv contribution to polar:
 IMax=3 JMax=2 DiffMx= 0.00D+00
 G2DrvN: will do     7 centers at a time, making    1 passes.
 Calling FoFCou, ICntrl=  3107 FMM=F I1Cent=   0 AccDes= 0.00D+00.
 End of G2Drv F.D. properties file   721 does not exist.
 End of G2Drv F.D. properties file   722 does not exist.
 End of G2Drv F.D. properties file   788 does not exist.
          IDoAtm=111111
          Differentiating once with respect to electric field.
                with respect to dipole field.
          Differentiating once with respect to nuclear coordinates.
 Keep R1 and R2 ints in memory in symmetry-blocked form, NReq=92750432.
          There are    21 degrees of freedom in the 1st order CPHF.  IDoFFX=6 NUNeed=     3.
     18 vectors produced by pass  0 Test12= 1.73D-14 4.76D-09 XBig12= 1.70D+02 5.05D+00.
 AX will form    18 AO Fock derivatives at one time.
     18 vectors produced by pass  1 Test12= 1.73D-14 4.76D-09 XBig12= 4.06D+01 1.53D+00.
     18 vectors produced by pass  2 Test12= 1.73D-14 4.76D-09 XBig12= 9.29D-01 2.87D-01.
     18 vectors produced by pass  3 Test12= 1.73D-14 4.76D-09 XBig12= 1.42D-02 2.60D-02.
     18 vectors produced by pass  4 Test12= 1.73D-14 4.76D-09 XBig12= 1.87D-04 3.81D-03.
     18 vectors produced by pass  5 Test12= 1.73D-14 4.76D-09 XBig12= 9.99D-07 1.61D-04.
     17 vectors produced by pass  6 Test12= 1.73D-14 4.76D-09 XBig12= 3.91D-09 8.42D-06.
      9 vectors produced by pass  7 Test12= 1.73D-14 4.76D-09 XBig12= 1.27D-11 6.31D-07.
      3 vectors produced by pass  8 Test12= 1.73D-14 4.76D-09 XBig12= 5.25D-14 3.05D-08.
 InvSVY:  IOpt=1 It=  1 EMax= 3.55D-15
 Solved reduced A of dimension   137 with    21 vectors.
 Isotropic polarizability for W=    0.000000       42.23 Bohr**3.
 End of Minotr F.D. properties file   721 does not exist.
 End of Minotr F.D. properties file   722 does not exist.
 End of Minotr F.D. properties file   788 does not exist.

 **********************************************************************

            Population analysis using the SCF Density.

 **********************************************************************

 Orbital symmetries:
 Alpha Orbitals:
       Occupied  (A') (A') (A') (A') (A') (A') (A') (A') (A') (A")
                 (A') (A') (A") (A')
       Virtual   (A") (A') (A') (A') (A') (A") (A') (A") (A') (A')
                 (A") (A') (A') (A') (A") (A') (A') (A') (A') (A")
                 (A') (A') (A') (A") (A') (A') (A') (A") (A') (A")
                 (A') (A') (A") (A') (A') (A") (A') (A') (A') (A")
                 (A') (A") (A') (A') (A") (A") (A') (A") (A') (A')
                 (A") (A') (A') (A') (A") (A') (A') (A') (A') (A")
                 (A') (A') (A") (A') (A') (A') (A') (A") (A') (A")
                 (A') (A') (A") (A") (A') (A') (A") (A') (A') (A")
                 (A') (A") (A') (A') (A") (A") (A') (A") (A') (A')
                 (A") (A') (A") (A') (A") (A') (A') (A') (A") (A")
                 (A') (A') (A') (A") (A") (A') (A") (A') (A') (A')
                 (A') (A") (A") (A') (A') (A") (A") (A') (A") (A')
                 (A') (A') (A") (A') (A") (A') (A') (A') (A") (A')
                 (A') (A') (A') (A')
 Beta  Orbitals:
       Occupied  (A') (A') (A') (A') (A') (A') (A') (A') (A') (A")
                 (A') (A') (A")
       Virtual   (A') (A") (A') (A') (A') (A') (A") (A') (A") (A')
                 (A') (A") (A') (A') (A') (A") (A') (A') (A') (A')
                 (A") (A') (A') (A') (A") (A') (A') (A') (A") (A')
                 (A") (A') (A') (A") (A') (A') (A") (A') (A') (A")
                 (A') (A') (A") (A') (A") (A') (A") (A') (A") (A')
                 (A') (A") (A') (A') (A') (A") (A') (A') (A') (A")
                 (A') (A') (A') (A") (A') (A') (A') (A') (A") (A')
                 (A") (A') (A') (A") (A") (A') (A') (A") (A') (A')
                 (A") (A') (A") (A') (A") (A') (A") (A') (A') (A")
                 (A') (A") (A") (A') (A') (A") (A') (A') (A') (A")
                 (A") (A') (A') (A') (A") (A") (A') (A") (A') (A')
                 (A') (A') (A") (A") (A') (A') (A") (A") (A') (A")
                 (A') (A') (A") (A') (A') (A") (A') (A') (A') (A")
                 (A') (A') (A') (A') (A')
 The electronic state is 2-A'.
 Alpha  occ. eigenvalues --  -14.34838 -10.25073 -10.23573 -10.23162  -0.93750
 Alpha  occ. eigenvalues --   -0.83202  -0.70788  -0.53579  -0.49839  -0.41041
 Alpha  occ. eigenvalues --   -0.40314  -0.39769  -0.31331  -0.25605
 Alpha virt. eigenvalues --   -0.08687   0.00698   0.03632   0.06495   0.07904
 Alpha virt. eigenvalues --    0.10094   0.11741   0.15460   0.16656   0.17972
 Alpha virt. eigenvalues --    0.21351   0.21793   0.23867   0.26387   0.28705
 Alpha virt. eigenvalues --    0.29467   0.32814   0.34424   0.39850   0.43512
 Alpha virt. eigenvalues --    0.43672   0.45688   0.51200   0.62178   0.63027
 Alpha virt. eigenvalues --    0.68858   0.76594   0.77162   0.82663   0.85247
 Alpha virt. eigenvalues --    0.91448   0.93877   0.98590   0.99893   1.02081
 Alpha virt. eigenvalues --    1.07600   1.08440   1.08938   1.19190   1.19712
 Alpha virt. eigenvalues --    1.20719   1.26661   1.26858   1.30398   1.30686
 Alpha virt. eigenvalues --    1.32946   1.38202   1.44557   1.45608   1.46295
 Alpha virt. eigenvalues --    1.52724   1.54552   1.55104   1.69498   1.70844
 Alpha virt. eigenvalues --    1.79276   1.92341   1.95736   1.97743   1.98047
 Alpha virt. eigenvalues --    2.22561   2.26073   2.37323   2.39322   2.57387
 Alpha virt. eigenvalues --    2.60745   2.70230   2.92311   3.01929   3.09369
 Alpha virt. eigenvalues --    3.12515   3.15893   3.21687   3.25898   3.34548
 Alpha virt. eigenvalues --    3.35892   3.38060   3.45298   3.50043   3.54733
 Alpha virt. eigenvalues --    3.59524   3.63647   3.69366   3.74759   3.74897
 Alpha virt. eigenvalues --    3.77304   3.82640   3.85806   3.87056   3.90913
 Alpha virt. eigenvalues --    3.93497   3.95000   3.95067   4.01183   4.06988
 Alpha virt. eigenvalues --    4.11174   4.14541   4.18231   4.18496   4.20814
 Alpha virt. eigenvalues --    4.23165   4.29793   4.33971   4.37742   4.43546
 Alpha virt. eigenvalues --    4.43789   4.47752   4.51669   4.58708   4.66087
 Alpha virt. eigenvalues --    4.70616   4.73534   4.81475   4.87460   5.01878
 Alpha virt. eigenvalues --    5.02383   5.10931   5.11092   5.31609   5.32458
 Alpha virt. eigenvalues --    5.37381   5.44512   5.44644   5.56255   5.58362
 Alpha virt. eigenvalues --    5.70191   5.75766   5.83886   5.86028   6.01024
 Alpha virt. eigenvalues --    6.38625   6.40963   7.17935   8.34724
  Beta  occ. eigenvalues --  -14.33886 -10.23925 -10.23812 -10.23373  -0.92264
  Beta  occ. eigenvalues --   -0.81381  -0.69826  -0.52672  -0.48083  -0.40436
  Beta  occ. eigenvalues --   -0.38561  -0.37122  -0.30838
  Beta virt. eigenvalues --   -0.13293  -0.08221   0.00964   0.04561   0.06720
  Beta virt. eigenvalues --    0.09652   0.10683   0.12013   0.15233   0.17623
  Beta virt. eigenvalues --    0.18396   0.21297   0.22986   0.23945   0.27571
  Beta virt. eigenvalues --    0.29118   0.29839   0.33313   0.34897   0.40562
  Beta virt. eigenvalues --    0.43837   0.44782   0.45947   0.51971   0.62647
  Beta virt. eigenvalues --    0.63374   0.69481   0.78108   0.78188   0.83558
  Beta virt. eigenvalues --    0.85552   0.92273   0.94555   1.00378   1.00671
  Beta virt. eigenvalues --    1.02999   1.07999   1.09635   1.09955   1.19740
  Beta virt. eigenvalues --    1.20273   1.22030   1.26290   1.28229   1.31093
  Beta virt. eigenvalues --    1.31999   1.34055   1.39853   1.45120   1.46597
  Beta virt. eigenvalues --    1.47154   1.53623   1.55035   1.56277   1.70035
  Beta virt. eigenvalues --    1.71333   1.81201   1.93128   1.97164   1.99031
  Beta virt. eigenvalues --    1.99928   2.23234   2.27193   2.37785   2.40507
  Beta virt. eigenvalues --    2.58331   2.61801   2.70833   2.93273   3.03500
  Beta virt. eigenvalues --    3.11198   3.14181   3.16957   3.21542   3.26285
  Beta virt. eigenvalues --    3.35373   3.38655   3.40234   3.46024   3.51267
  Beta virt. eigenvalues --    3.55586   3.60284   3.64932   3.69652   3.76747
  Beta virt. eigenvalues --    3.76772   3.78009   3.83912   3.88178   3.88306
  Beta virt. eigenvalues --    3.91058   3.93453   3.95187   3.97218   4.02705
  Beta virt. eigenvalues --    4.08199   4.13224   4.15069   4.18830   4.19070
  Beta virt. eigenvalues --    4.22066   4.24008   4.30993   4.34836   4.37990
  Beta virt. eigenvalues --    4.44512   4.45193   4.48413   4.52839   4.59793
  Beta virt. eigenvalues --    4.67523   4.71723   4.74835   4.81940   4.89001
  Beta virt. eigenvalues --    5.05740   5.06114   5.11301   5.12846   5.32093
  Beta virt. eigenvalues --    5.33698   5.38941   5.45035   5.45971   5.57433
  Beta virt. eigenvalues --    5.58859   5.71049   5.76632   5.84542   5.86551
  Beta virt. eigenvalues --    6.02342   6.39578   6.41901   7.18661   8.35210
          Condensed to atoms (all electrons):
               1          2          3          4          5          6
     1  C    4.754611   0.634084  -0.136303   0.000085   0.427802   0.437702
     2  C    0.634084   5.258508   0.197709   0.011991  -0.055926  -0.060584
     3  C   -0.136303   0.197709   5.097647   0.732389   0.000492  -0.009114
     4  N    0.000085   0.011991   0.732389   6.442318  -0.000064   0.000377
     5  H    0.427802  -0.055926   0.000492  -0.000064   0.575566  -0.034728
     6  H    0.437702  -0.060584  -0.009114   0.000377  -0.034728   0.579525
          Atomic-Atomic Spin Densities.
               1          2          3          4          5          6
     1  C   -0.138408  -0.036335  -0.003087   0.001536   0.010511   0.022036
     2  C   -0.036335   0.902480  -0.016536  -0.025234  -0.019248  -0.031884
     3  C   -0.003087  -0.016536  -0.153148  -0.021142   0.002206  -0.002177
     4  N    0.001536  -0.025234  -0.021142   0.492424   0.000126   0.000610
     5  H    0.010511  -0.019248   0.002206   0.000126   0.079489  -0.022767
     6  H    0.022036  -0.031884  -0.002177   0.000610  -0.022767   0.099936
 Mulliken charges and spin densities:
               1          2
     1  C   -0.117982  -0.143747
     2  C    0.014218   0.773242
     3  C    0.117180  -0.193884
     4  N   -0.187095   0.448319
     5  H    0.086858   0.050316
     6  H    0.086822   0.065754
 Sum of Mulliken charges =  -0.00000   1.00000
 Mulliken charges and spin densities with hydrogens summed into heavy atoms:
               1          2
     1  C    0.055698  -0.027677
     2  C    0.014218   0.773242
     3  C    0.117180  -0.193884
     4  N   -0.187095   0.448319
 APT charges:
               1
     1  C   -0.037964
     2  C    0.004465
     3  C    0.171269
     4  N   -0.281242
     5  H    0.077538
     6  H    0.065934
 Sum of APT charges =   0.00000
 APT charges with hydrogens summed into heavy atoms:
               1
     1  C    0.105508
     2  C    0.004465
     3  C    0.171269
     4  N   -0.281242
 Electronic spatial extent (au):  <R**2>=            287.3339
 Charge=             -0.0000 electrons
 Dipole moment (field-independent basis, Debye):
    X=              1.1498    Y=              3.7781    Z=             -0.0000  Tot=              3.9492
 Quadrupole moment (field-independent basis, Debye-Ang):
   XX=            -22.1290   YY=            -25.2479   ZZ=            -23.9863
   XY=             -0.4360   XZ=              0.0000   YZ=              0.0000
 Traceless Quadrupole moment (field-independent basis, Debye-Ang):
   XX=              1.6587   YY=             -1.4601   ZZ=             -0.1986
   XY=             -0.4360   XZ=              0.0000   YZ=              0.0000
 Octapole moment (field-independent basis, Debye-Ang**2):
  XXX=              3.5078  YYY=             26.0310  ZZZ=              0.0000  XYY=              5.2280
  XXY=              3.5668  XXZ=             -0.0000  XZZ=             -0.2816  YZZ=             -1.4651
  YYZ=             -0.0000  XYZ=             -0.0000
 Hexadecapole moment (field-independent basis, Debye-Ang**3):
 XXXX=            -49.7800 YYYY=           -329.7145 ZZZZ=            -27.0604 XXXY=            -35.3809
 XXXZ=              0.0000 YYYX=            -46.9707 YYYZ=              0.0000 ZZZX=              0.0000
 ZZZY=              0.0000 XXYY=            -60.4918 XXZZ=            -13.9741 YYZZ=            -61.0849
 XXYZ=              0.0000 YYXZ=              0.0000 ZZXY=            -13.9528
 N-N= 8.268744535006D+01 E-N=-5.612824083859D+02  KE= 1.696430402273D+02
 Symmetry A'   KE= 1.645302029723D+02
 Symmetry A"   KE= 5.112837254958D+00
 Symmetry A'   SP= 1.000000000000D+00
 Symmetry A"   SP=-6.254906328670D-16
  Exact polarizability:  29.336  14.148  74.888   0.000   0.000  22.468
 Approx polarizability:  42.306  29.313 138.657  -0.000  -0.000  30.345
                          Isotropic Fermi Contact Couplings
        Atom                 a.u.       MegaHertz       Gauss      10(-4) cm-1
     1  C(13)             -0.05025     -56.48743     -20.15612     -18.84218
     2  C(13)              0.13320     149.73901      53.43060      49.94756
     3  C(13)             -0.05726     -64.37589     -22.97092     -21.47348
     4  N(14)              0.07982      25.78932       9.20227       8.60239
     5  H(1)               0.02825     126.26086      45.05301      42.11609
     6  H(1)               0.03327     148.71851      53.06646      49.60715
 --------------------------------------------------------
       Center         ----  Spin Dipole Couplings  ----
                      3XX-RR        3YY-RR        3ZZ-RR
 --------------------------------------------------------
     1   Atom        0.054403      0.072522     -0.126925
     2   Atom        0.795973     -0.412982     -0.382990
     3   Atom       -0.136450      0.165082     -0.028632
     4   Atom        0.858695     -0.503952     -0.354743
     5   Atom       -0.006006      0.014113     -0.008108
     6   Atom        0.000540      0.006661     -0.007201
 --------------------------------------------------------
                        XY            XZ            YZ
 --------------------------------------------------------
     1   Atom        0.017544     -0.000000     -0.000000
     2   Atom       -0.367009      0.000000     -0.000000
     3   Atom        0.083323     -0.000000     -0.000000
     4   Atom       -0.288832      0.000000     -0.000000
     5   Atom        0.005679     -0.000000     -0.000000
     6   Atom        0.007389     -0.000000     -0.000000
 --------------------------------------------------------


 ---------------------------------------------------------------------------------
              Anisotropic Spin Dipole Couplings in Principal Axis System
 ---------------------------------------------------------------------------------

       Atom             a.u.   MegaHertz   Gauss  10(-4) cm-1        Axes

              Baa    -0.1269   -17.032    -6.078    -5.681  0.0000  0.0000  1.0000
     1 C(13)  Bbb     0.0437     5.866     2.093     1.957  0.8541 -0.5202  0.0000
              Bcc     0.0832    11.166     3.984     3.724  0.5202  0.8541 -0.0000
 
              Baa    -0.5157   -69.199   -24.692   -23.082  0.2695  0.9630  0.0000
     2 C(13)  Bbb    -0.3830   -51.394   -18.339   -17.143  0.0000  0.0000  1.0000
              Bcc     0.8987   120.592    43.030    40.225  0.9630 -0.2695  0.0000
 
              Baa    -0.1579   -21.194    -7.563    -7.070  0.9683 -0.2498  0.0000
     3 C(13)  Bbb    -0.0286    -3.842    -1.371    -1.282  0.0000  0.0000  1.0000
              Bcc     0.1866    25.037     8.934     8.351  0.2498  0.9683 -0.0000
 
              Baa    -0.5626   -21.700    -7.743    -7.238  0.1991  0.9800  0.0000
     4 N(14)  Bbb    -0.3547   -13.682    -4.882    -4.564  0.0000  0.0000  1.0000
              Bcc     0.9174    35.382    12.625    11.802  0.9800 -0.1991  0.0000
 
              Baa    -0.0081    -4.326    -1.544    -1.443  0.0000  0.0000  1.0000
     5 H(1)   Bbb    -0.0075    -4.001    -1.427    -1.334  0.9672 -0.2541  0.0000
              Bcc     0.0156     8.326     2.971     2.777  0.2541  0.9672 -0.0000
 
[...]
  0.00000000  1.30415803  3.83195945  0.00000000  0.12539591
  0.00000000  0.00000000  0.16584293 -0.13366956 -0.69065810
  0.00000000  0.00000000 -0.97075667  0.66875613 -1.81276845
  0.00000000  0.00000000 -2.01849068  3.17223010  0.00000000
 -0.01236480 -0.07662027  0.00000000  0.00000000 -0.04152767
 -0.07453560  0.00000000 -0.08187512  0.28837472  0.00000000
  0.00000000 -0.23319349  0.57497001 -0.10507054  0.57121217
  7.31726150  2.92429589 -0.19085170  0.15044322  0.00000000
  2.24277467 -1.47355104  0.00000000  1.53835705 -1.34052853
  0.00000000 -0.53034407  0.00000000  0.00000000  0.00915311
 -0.52663724  0.05415027 -0.28952965  1.47005492 -2.80152335
 -0.06229994  0.27853299  0.00000000  0.22637770 -2.33543561
  0.00000000 -0.16798781 -0.60381774  0.00000000  0.09301086
  0.00000000  0.00000000 -0.04409210  1.17015903  0.00000000
  0.00000000  0.00000000  0.00000000  0.00000000  0.00000000
 BiOrM2:  NumA=     234 NumB=     234.
 Eigenvalues of SAB:
  1.00000000  1.00000000  1.00000000  1.00000000  1.00000000
  1.00000000  1.00000000  1.00000000  1.00000000  1.00000000
  1.00000000  1.00000000  1.00000000  1.00000000  1.00000000
  1.00000000  1.00000000  1.00000000  1.00000000  1.00000000
  1.00000000  1.00000000  1.00000000  1.00000000  1.00000000
  1.00000000  1.00000000  1.00000000  1.00000000  1.00000000
  1.00000000  1.00000000  1.00000000  1.00000000  1.00000000
  1.00000000  1.00000000  1.00000000  1.00000000  1.00000000
  1.00000000  1.00000000  1.00000000  1.00000000  1.00000000
  1.00000000  1.00000000  1.00000000  1.00000000  1.00000000
  1.00000000  1.00000000  1.00000000  1.00000000  1.00000000
  1.00000000  1.00000000  1.00000000  1.00000000  1.00000000
  1.00000000  1.00000000  1.00000000  1.00000000  1.00000000
  1.00000000  1.00000000  1.00000000  1.00000000  1.00000000
  1.00000000  1.00000000  1.00000000  1.00000000  1.00000000
  1.00000000  1.00000000  1.00000000  1.00000000  1.00000000
  1.00000000  1.00000000  1.00000000  1.00000000  1.00000000
  1.00000000  1.00000000  1.00000000  1.00000000  1.00000000
  1.00000000  1.00000000  1.00000000  1.00000000  1.00000000
  1.00000000  1.00000000  1.00000000  1.00000000  1.00000000
  1.00000000  1.00000000  1.00000000  1.00000000  1.00000000
  1.00000000  1.00000000  1.00000000  1.00000000  1.00000000
  1.00000000  1.00000000  1.00000000  1.00000000  1.00000000
  1.00000000  1.00000000  1.00000000  1.00000000  1.00000000
  1.00000000  1.00000000  1.00000000  1.00000000  1.00000000
  1.00000000  1.00000000  1.00000000  1.00000000  1.00000000
  1.00000000  1.00000000  1.00000000  1.00000000  1.00000000
  1.00000000  1.00000000  1.00000000  1.00000000  1.00000000
  1.00000000  1.00000000  1.00000000  1.00000000  1.00000000
  1.00000000  1.00000000  1.00000000  1.00000000  1.00000000
  1.00000000  1.00000000  1.00000000  1.00000000  1.00000000
  1.00000000  1.00000000  1.00000000  1.00000000  1.00000000
  1.00000000  1.00000000  1.00000000  1.00000000  1.00000000
  1.00000000  1.00000000  1.00000000  1.00000000  1.00000000
  1.00000000  1.00000000  1.00000000  1.00000000  1.00000000
  1.00000000  1.00000000  1.00000000  1.00000000  1.00000000
  1.00000000  1.00000000  1.00000000  1.00000000  1.00000000
  1.00000000  1.00000000  1.00000000  1.00000000  1.00000000
  1.00000000  1.00000000  1.00000000  1.00000000  1.00000000
  1.00000000  1.00000000  1.00000000  1.00000000  1.00000000
  1.00000000  1.00000000  1.00000000  1.00000000  1.00000000
  1.00000000  1.00000000  1.00000000  1.00000000  1.00000000
  1.00000000  1.00000000  1.00000000  1.00000000  1.00000000
  1.00000000  1.00000000  1.00000000  1.00000000  1.00000000
  1.00000000  0.99999999  0.99999999  0.99999992  0.99999966
  0.99996702  0.99992453  0.99992010  0.99984674  0.99974829
  0.99943895  0.99941197  0.99619085  0.99341347
 Initial guess orbital symmetries:
       Occupied  (A') (A') (A') (A') (A') (A') (A') (A') (A') (A")
                 (A') (A") (A') (A')
       Virtual   (A') (A') (A') (A') (A') (A') (A') (A') (A') (A')
                 (A') (A') (A') (A') (A') (A') (A') (A') (A") (A')
                 (A') (A') (A") (A") (A") (A") (A") (A") (A") (A")
                 (A") (A") (A") (A") (A") (A") (A") (A") (A") (A")
                 (A") (A") (A") (A") (A") (A") (A") (A") (A") (A")
                 (A") (A") (A") (A") (A") (A") (A") (A") (A") (A")
                 (A") (A") (A") (A") (A") (A") (A") (A") (A") (A")
                 (A") (A") (A") (A") (A") (A") (A") (A") (A") (A")
                 (A") (A") (A") (A") (A") (A") (A") (A") (A") (A")
                 (A") (A") (A") (A") (A") (A") (A") (A") (A") (A")
                 (A") (A") (A") (A") (A") (A") (A") (A") (A") (A")
                 (A") (A") (A") (A") (A") (A") (A") (A") (A") (A")
                 (A") (A") (A") (A") (A") (A") (A") (A") (A") (A")
                 (A") (A") (A") (A") (A") (A") (A") (A") (A") (A")
                 (A") (A") (A") (A") (A") (A") (A") (A") (A") (A")
                 (A") (A") (A") (A") (A") (A") (A") (A") (A") (A")
                 (A") (A") (A") (A") (A") (A") (A") (A") (A") (A")
                 (A") (A") (A") (A") (A") (A") (A") (A") (A") (A")
                 (A") (A") (A") (A") (A") (A") (A") (A") (A") (A")
                 (A") (A") (A") (A") (A") (A") (A") (A') (A') (A')
                 (A") (A") (A') (A") (A") (A") (A") (A") (A') (A')
                 (A') (A') (A') (?A) (?A) (A') (A') (A') (A') (A')
                 (A') (A') (A') (A') (A') (A') (A') (A') (A') (A')
                 (A") (A') (A") (A')
 Requested convergence on RMS density matrix=1.00D-08 within 128 cycles.
 Requested convergence on MAX density matrix=1.00D-06.
 Requested convergence on             energy=1.00D-06.
 No special actions if energy rises.
 An orbital has undefined symmetry, so N**3 symmetry is turned off.
 SCF Done:  E(ROHF) =  -169.174875394     A.U. after   19 cycles
            NFock= 19  Conv=0.36D-08     -V/T= 2.0012
 <Sx>= 0.0000 <Sy>= 0.0000 <Sz>= 0.5000 <S**2>= 0.7500 S= 0.5000
 <L.S>=  0.00000000000    
 Annihilation of the first spin contaminant:
 S**2 before annihilation     0.7500,   after     0.7500

 **********************************************************************

            Population analysis using the SCF Density.

 **********************************************************************

 Orbital symmetries:
       Occupied  (A') (A') (A') (A') (A') (A') (A') (A') (A') (A')
                 (A") (A') (A") (A')
       Virtual   (A') (A") (A') (A') (A") (A') (A') (A") (A') (A')
                 (A") (A') (A') (A") (A') (A') (A') (A') (A') (A')
                 (A") (A') (A') (A") (A') (A") (A") (A') (A') (A')
                 (A') (A") (A') (A') (A') (A') (A") (A') (A') (A")
                 (A') (A") (A') (A') (A') (A") (A') (A') (A") (A')
                 (A') (A") (A') (A') (A') (A') (A") (A') (A") (A')
                 (A") (A') (A') (A") (A') (A") (A') (A') (A') (A")
                 (A') (A") (A") (A') (A') (A') (A") (A') (A") (A')
                 (A') (A") (A') (A") (A') (A') (A') (A') (A") (A')
                 (A") (A') (A") (A") (A') (A') (A') (A") (A") (A')
                 (A") (A') (A') (A") (A') (A') (A") (A') (A") (A')
                 (A") (A') (A') (A') (A") (A") (A') (A') (A") (A')
                 (A') (A") (A') (A') (A") (A') (A') (A') (A") (A')
                 (A') (A') (A") (A') (A') (A") (A') (A") (A') (A")
                 (A') (A') (A') (A') (A') (A") (A') (A') (A") (A")
                 (A') (A') (A") (A") (A') (A') (A") (A') (A") (A')
                 (A') (A") (A') (A") (A') (A') (A") (A') (A") (A')
                 (A') (A") (A") (A') (A") (A') (A') (A") (A') (A')
                 (A') (A") (A') (A") (A') (A') (A') (A') (A') (A')
                 (A") (A') (A") (A') (A") (A') (A") (A") (A') (A')
                 (A") (A') (A") (A') (A") (A') (A') (A') (A') (A')
                 (A') (A') (A") (A') (A') (A") (A') (A') (A") (A')
                 (A") (A") (A') (A') (A') (A') (A') (A') (A') (A')
                 (A") (A') (A') (A')
 The electronic state is 2-A'.
 Alpha  occ. eigenvalues --  -15.59604 -11.30214 -11.30056 -11.29555  -1.22935
 Alpha  occ. eigenvalues --   -1.08837  -0.92783  -0.70949  -0.64263  -0.57870
 Alpha  occ. eigenvalues --   -0.53682  -0.50087  -0.40551  -0.11063
 Alpha virt. eigenvalues --    0.03856   0.04818   0.05666   0.05870   0.07618
 Alpha virt. eigenvalues --    0.07933   0.09560   0.10478   0.12135   0.12781
 Alpha virt. eigenvalues --    0.13253   0.17859   0.18385   0.20522   0.20570
 Alpha virt. eigenvalues --    0.21200   0.21234   0.21862   0.25476   0.28673
 Alpha virt. eigenvalues --    0.30696   0.34011   0.38967   0.39904   0.40615
 Alpha virt. eigenvalues --    0.42794   0.44450   0.45289   0.46685   0.47817
 Alpha virt. eigenvalues --    0.51197   0.51995   0.52822   0.54986   0.56476
 Alpha virt. eigenvalues --    0.58563   0.59523   0.61407   0.64915   0.65272
 Alpha virt. eigenvalues --    0.66534   0.68845   0.69473   0.71614   0.78340
 Alpha virt. eigenvalues --    0.80851   0.84044   0.90021   0.91321   0.92040
 Alpha virt. eigenvalues --    0.95061   1.02541   1.04165   1.10577   1.12152
 Alpha virt. eigenvalues --    1.15771   1.16879   1.18807   1.22435   1.24928
 Alpha virt. eigenvalues --    1.26546   1.27678   1.29384   1.30037   1.33025
 Alpha virt. eigenvalues --    1.38943   1.39555   1.41897   1.46248   1.46604
 Alpha virt. eigenvalues --    1.48289   1.52128   1.53478   1.54261   1.55093
 Alpha virt. eigenvalues --    1.59977   1.61265   1.62745   1.64728   1.67703
 Alpha virt. eigenvalues --    1.73385   1.74592   1.77445   1.82371   1.82403
 Alpha virt. eigenvalues --    1.84984   1.86796   1.88659   1.89294   1.91260
 Alpha virt. eigenvalues --    1.96087   1.99083   2.04222   2.05119   2.07581
 Alpha virt. eigenvalues --    2.10520   2.12079   2.12776   2.13324   2.16226
 Alpha virt. eigenvalues --    2.21281   2.22063   2.23593   2.31260   2.33994
 Alpha virt. eigenvalues --    2.37593   2.38227   2.42281   2.48990   2.51504
 Alpha virt. eigenvalues --    2.56122   2.57140   2.62072   2.69031   2.70550
 Alpha virt. eigenvalues --    2.71470   2.71617   2.79303   2.80667   2.86168
 Alpha virt. eigenvalues --    2.90045   2.90227   2.97441   3.03416   3.10365
 Alpha virt. eigenvalues --    3.11384   3.12932   3.16647   3.27153   3.28268
 Alpha virt. eigenvalues --    3.34393   3.42602   3.43706   3.44500   3.47054
 Alpha virt. eigenvalues --    3.51753   3.53099   3.56323   3.57691   3.61594
 Alpha virt. eigenvalues --    3.69071   3.71773   3.75318   3.86183   3.98486
 Alpha virt. eigenvalues --    4.03247   4.05021   4.24628   4.41588   4.46717
 Alpha virt. eigenvalues --    4.47461   4.55261   4.64211   4.65894   4.67850
 Alpha virt. eigenvalues --    4.68826   4.79786   4.86095   4.90646   4.93074
 Alpha virt. eigenvalues --    5.03279   5.22877   5.28492   5.31927   5.37552
 Alpha virt. eigenvalues --    5.51529   5.52596   5.54170   5.78567   5.80420
 Alpha virt. eigenvalues --    5.84013   5.84057   5.95034   5.97037   6.03660
 Alpha virt. eigenvalues --    6.06328   6.09986   6.10512   6.12424   6.24153
 Alpha virt. eigenvalues --    6.29646   6.48642   6.52221   6.58156   6.69866
 Alpha virt. eigenvalues --    6.73453   6.96803   7.09891   7.33488   7.39409
 Alpha virt. eigenvalues --    7.45015   7.71208   7.76893   7.84606   7.87516
 Alpha virt. eigenvalues --    7.92518   8.13769   8.19942   8.41584   8.45829
 Alpha virt. eigenvalues --    8.50084   8.58193   8.74997   8.75403   8.83311
 Alpha virt. eigenvalues --    8.86530   9.01160   9.23327   9.34383   9.41556
 Alpha virt. eigenvalues --    9.51053   9.71167  10.28656  10.28810  10.40641
 Alpha virt. eigenvalues --   11.00724  11.06522  11.90018  20.74004  21.03340
 Alpha virt. eigenvalues --   21.06499  21.27844  21.40953  21.62965  21.91065
 Alpha virt. eigenvalues --   22.18071  22.77383  24.11273  24.44735  24.77755
 Alpha virt. eigenvalues --   29.95219  30.04159  30.95998  32.90275
          Condensed to atoms (all electrons):
               1          2          3          4          5          6
     1  C    4.765707   0.596307  -0.001979  -0.009870   0.428159   0.439707
     2  C    0.596307   5.108700   0.359237  -0.092714  -0.063963  -0.053478
     3  C   -0.001979   0.359237   4.632998   0.897399   0.006428  -0.004146
     4  N   -0.009870  -0.092714   0.897399   6.597193   0.000126   0.000544
     5  H    0.428159  -0.063963   0.006428   0.000126   0.463740  -0.019951
     6  H    0.439707  -0.053478  -0.004146   0.000544  -0.019951   0.468052
          Atomic-Atomic Spin Densities.
               1          2          3          4          5          6
     1  C    0.032634  -0.044255  -0.002945   0.000331   0.006359   0.024442
     2  C   -0.044255   0.883774  -0.004424  -0.029423  -0.010934  -0.024343
     3  C   -0.002945  -0.004424   0.021024   0.016902   0.000567  -0.000377
     4  N    0.000331  -0.029423   0.016902   0.151019   0.000419  -0.000134
     5  H    0.006359  -0.010934   0.000567   0.000419   0.029933  -0.007546
     6  H    0.024442  -0.024343  -0.000377  -0.000134  -0.007546   0.032338
 Mulliken charges and spin densities:
               1          2
     1  C   -0.218031   0.016567
     2  C    0.145911   0.770395
     3  C    0.110063   0.030746
     4  N   -0.392677   0.139114
     5  H    0.185462   0.018798
     6  H    0.169272   0.024380
 Sum of Mulliken charges =  -0.00000   1.00000
 Mulliken charges and spin densities with hydrogens summed into heavy atoms:
               1          2
     1  C    0.136704   0.059745
     2  C    0.145911   0.770395
     3  C    0.110063   0.030746
     4  N   -0.392677   0.139114
 Electronic spatial extent (au):  <R**2>=            287.9046
 Charge=             -0.0000 electrons
 Dipole moment (field-independent basis, Debye):
    X=              1.2516    Y=              4.1879    Z=             -0.0000  Tot=              4.3709
 Quadrupole moment (field-independent basis, Debye-Ang):
   XX=            -22.2838   YY=            -25.4854   ZZ=            -24.3615
   XY=             -0.4537   XZ=             -0.0000   YZ=             -0.0000
 Traceless Quadrupole moment (field-independent basis, Debye-Ang):
   XX=              1.7598   YY=             -1.4418   ZZ=             -0.3179
   XY=             -0.4537   XZ=             -0.0000   YZ=             -0.0000
 Octapole moment (field-independent basis, Debye-Ang**2):
  XXX=              3.9189  YYY=             27.7911  ZZZ=              0.0000  XYY=              5.4326
  XXY=              4.1338  XXZ=              0.0000  XZZ=             -0.2209  YZZ=             -1.2495
  YYZ=             -0.0000  XYZ=             -0.0000
 Hexadecapole moment (field-independent basis, Debye-Ang**3):
 XXXX=            -49.1266 YYYY=           -324.8574 ZZZZ=            -27.3541 XXXY=            -35.4716
 XXXZ=              0.0000 YYYX=            -45.8735 YYYZ=              0.0000 ZZZX=              0.0000
 ZZZY=              0.0000 XXYY=            -60.3002 XXZZ=            -13.9402 YYZZ=            -61.1977
 XXYZ=              0.0000 YYXZ=              0.0000 ZZXY=            -13.9510
 N-N= 8.268744535006D+01 E-N=-5.599927376137D+02  KE= 1.689724933130D+02
 Symmetry A'   KE= 1.642111727310D+02
 Symmetry A"   KE= 4.761320581965D+00
 Symmetry A'   SP= 1.000000000000D+00
 Symmetry A"   SP= 8.280277547999D-62
                          Isotropic Fermi Contact Couplings
        Atom                 a.u.       MegaHertz       Gauss      10(-4) cm-1
     1  C(13)              0.00535       6.01649       2.14683       2.00689
     2  C(13)              0.04271      48.01088      17.13147      16.01470
     3  C(13)              0.00881       9.90813       3.53547       3.30500
     4  N(14)              0.00016       0.05290       0.01888       0.01764
     5  H(1)               0.01359      60.75871      21.68022      20.26692
     6  H(1)               0.01597      71.37897      25.46979      23.80946
 --------------------------------------------------------
       Center         ----  Spin Dipole Couplings  ----
                      3XX-RR        3YY-RR        3ZZ-RR
 --------------------------------------------------------
     1   Atom        0.008657      0.035243     -0.043900
     2   Atom        0.893940     -0.385217     -0.508723
     3   Atom       -0.006667      0.061081     -0.054414
     4   Atom        0.315354     -0.137781     -0.177574
     5   Atom       -0.009092      0.021179     -0.012087
     6   Atom        0.010479      0.000876     -0.011356
 --------------------------------------------------------
                        XY            XZ            YZ
 --------------------------------------------------------
     1   Atom        0.026058     -0.000000     -0.000000
     2   Atom       -0.381617      0.000000     -0.000000
     3   Atom        0.020581     -0.000000     -0.000000
     4   Atom       -0.091653     -0.000000     -0.000000
     5   Atom       -0.000533      0.000000     -0.000000
     6   Atom        0.012373     -0.000000     -0.000000
 --------------------------------------------------------


 ---------------------------------------------------------------------------------
              Anisotropic Spin Dipole Couplings in Principal Axis System
 ---------------------------------------------------------------------------------

       Atom             a.u.   MegaHertz   Gauss  10(-4) cm-1        Axes

              Baa    -0.0439    -5.891    -2.102    -1.965  0.0000  0.0000  1.0000
     1 C(13)  Bbb    -0.0073    -0.980    -0.350    -0.327  0.8528 -0.5223 -0.0000
              Bcc     0.0512     6.871     2.452     2.292  0.5223  0.8528 -0.0000
 
              Baa    -0.5087   -68.266   -24.359   -22.771  0.0000  0.0000  1.0000
     2 C(13)  Bbb    -0.4904   -65.809   -23.482   -21.952  0.2658  0.9640 -0.0000
              Bcc     0.9991   134.075    47.841    44.723  0.9640 -0.2658  0.0000
 
              Baa    -0.0544    -7.302    -2.605    -2.436  0.0000  0.0000  1.0000
     3 C(13)  Bbb    -0.0124    -1.668    -0.595    -0.556  0.9630 -0.2696  0.0000
              Bcc     0.0668     8.970     3.201     2.992  0.2696  0.9630 -0.0000
 
              Baa    -0.1776    -6.849    -2.444    -2.284  0.0000  0.0000  1.0000
     4 N(14)  Bbb    -0.1556    -6.002    -2.142    -2.002  0.1910  0.9816 -0.0000
              Bcc     0.3332    12.850     4.585     4.286  0.9816 -0.1910 -0.0000
 
              Baa    -0.0121    -6.449    -2.301    -2.151  0.0000  0.0000  1.0000
     5 H(1)   Bbb    -0.0091    -4.856    -1.733    -1.620  0.9998  0.0176  0.0000
              Bcc     0.0212    11.305     4.034     3.771 -0.0176  0.9998 -0.0000
 
              Baa    -0.0114    -6.059    -2.162    -2.021  0.0000  0.0000  1.0000
     6 H(1)   Bbb    -0.0076    -4.052    -1.446    -1.352 -0.5649  0.8252  0.0000
              Bcc     0.0190    10.111     3.608     3.373  0.8252  0.5649 -0.0000
 

 ---------------------------------------------------------------------------------

 1\1\GINC-GAMBA\SP\ROHF\Gen\C3H2N1(2)\IRIKURA\29-Sep-2023\0\\# rohf/gen
  geom=check guess=check\\1-cyanovinyl, ROHF/cc-pVTZ-F12\\0,2\C,0,0.533
 37,1.724711,0.\C,0,0.,0.539731,0.\C,0,-0.223847,-0.775007,0.\N,0,-0.48
 5322,-1.91845,0.\H,0,-0.072431,2.625973,0.\H,0,1.612552,1.866564,0.\\V
 ersion=ES64L-G16RevB.01\State=2-A'\HF=-169.1748754\RMSD=3.571e-09\Dipo
 le=0.4924235,1.6476315,0.\Quadrupole=1.3083624,-1.0719772,-0.2363852,-
 0.3373285,0.,0.\PG=CS [SG(C3H2N1)]\\@


 EVERYTHING'S GOT A MORAL, IF ONLY YOU CAN FIND IT.

                                    -- LEWIS CARROL, ALICE IN WONDERLAND
 Job cpu time:       0 days  0 hours  5 minutes 13.1 seconds.
 Elapsed time:       0 days  0 hours  1 minutes 18.3 seconds.
 File lengths (MBytes):  RWF=     48 Int=      0 D2E=      0 Chk=      7 Scr=      1
 Normal termination of Gaussian 16 at Fri Sep 29 15:16:04 2023.
