 Entering Gaussian System, Link 0=g16
 AtFile(1): pcseg2.gbs
            -H     0
            S   4   1.00
                  0.754732D+02           0.427821D-02
                  0.113575D+02           0.328672D-01
                  0.260081D+01           0.159578D+00
                  0.735503D+00           0.500000D+00
            S   1   1.00
                  0.231761D+00           1.0000000
            S   1   1.00
                  0.741675D-01           1.0000000
            P   1   1.00
                  0.160000D+01           1.0000000
            P   1   1.00
                  0.450000D+00           1.0000000
            D   1   1.00
                  0.125000D+01           1.0000000
            ****
            -C     0
            S   7   1.00
                  0.731999D+04           0.695369D-03
                  0.109818D+04           0.537138D-02
                  0.250014D+03           0.274734D-01
                  0.707586D+02           0.105078D+00
                  0.228595D+02           0.291262D+00
                  0.803936D+01           0.500000D+00
                  0.289309D+01           0.362224D+00
            S   2   1.00
                  0.521640D+01          -0.957844D-01
                  0.556124D+00           0.500000D+00
            S   1   1.00
                  0.228813D+00           1.0000000
            S   1   1.00
                  0.936338D-01           1.0000000
            P   4   1.00
                  0.339855D+02           0.818395D-02
                  0.772957D+01           0.586921D-01
                  0.224954D+01           0.222514D+00
                  0.767681D+00           0.500000D+00
            P   1   1.00
                  0.263283D+00           1.0000000
            P   1   1.00
                  0.848744D-01           1.0000000
            D   1   1.00
                  0.140000D+01           1.0000000
            D   1   1.00
                  0.450000D+00           1.0000000
            F   1   1.00
                  0.950000D+00           1.0000000
            ****
            -O     0
            S   7   1.00
                  0.135887D+05           0.665492D-03
                  0.203847D+04           0.514222D-02
                  0.464041D+03           0.263472D-01
                  0.131339D+03           0.101500D+00
                  0.425340D+02           0.285877D+00
                  0.150429D+02           0.500000D+00
                  0.546616D+01           0.368211D+00
            S   2   1.00
                  0.100915D+02          -0.100084D+00
                  0.110429D+01           0.500000D+00
            S   1   1.00
                  0.448082D+00           1.0000000
            S   1   1.00
                  0.175325D+00           1.0000000
            P   4   1.00
                  0.608220D+02           0.908253D-02
                  0.140332D+02           0.645878D-01
                  0.418244D+01           0.241502D+00
                  0.142490D+01           0.500000D+00
            P   1   1.00
                  0.478741D+00           1.0000000
            P   1   1.00
                  0.146257D+00           1.0000000
            D   1   1.00
                  0.220000D+01           1.0000000
            D   1   1.00
                  0.650000D+00           1.0000000
            F   1   1.00
                  0.110000D+01           1.0000000
            ****
            -N     0
            S   7   1.00
                  0.101643D+05           0.682757D-03
                  0.152481D+04           0.527488D-02
                  0.347119D+03           0.270037D-01
                  0.982389D+02           0.103673D+00
                  0.317799D+02           0.289575D+00
                  0.112240D+02           0.500000D+00
                  0.406611D+01           0.364621D+00
            S   2   1.00
                  0.747898D+01          -0.975681D-01
                  0.805040D+00           0.500000D+00
            S   1   1.00
                  0.324626D+00           1.0000000
            S   1   1.00
                  0.128132D+00           1.0000000
            P   4   1.00
                  0.482704D+02           0.829547D-02
                  0.110815D+02           0.596223D-01
                  0.326643D+01           0.227889D+00
                  0.111680D+01           0.500000D+00
            P   1   1.00
                  0.382049D+00           1.0000000
            P   1   1.00
                  0.121222D+00           1.0000000
            D   1   1.00
                  0.180000D+01           1.0000000
            D   1   1.00
                  0.550000D+00           1.0000000
            F   1   1.00
                  0.102000D+01           1.0000000
            ****
            -F     0
            S   7   1.00
                  0.174507D+05           0.655972D-03
                  0.261768D+04           0.506944D-02
                  0.595857D+03           0.259899D-01
                  0.168651D+03           0.100353D+00
                  0.546654D+02           0.284095D+00
                  0.193717D+02           0.500000D+00
                  0.706202D+01           0.370721D+00
            S   2   1.00
                  0.131197D+02          -0.101997D+00
                  0.145046D+01           0.500000D+00
            S   1   1.00
                  0.588255D+00           1.0000000
            S   1   1.00
                  0.227960D+00           1.0000000
            P   4   1.00
                  0.779407D+02           0.931135D-02
                  0.180425D+02           0.663964D-01
                  0.542342D+01           0.246386D+00
                  0.184876D+01           0.500000D+00
            P   1   1.00
                  0.617455D+00           1.0000000
            P   1   1.00
                  0.185496D+00           1.0000000
            D   1   1.00
                  0.280000D+01           1.0000000
            D   1   1.00
                  0.800000D+00           1.0000000
            F   1   1.00
                  0.120000D+01           1.0000000
            ****
            -Cl     0
            S   8   1.00
                  0.154272D+06           0.222473D-03
                  0.231232D+05           0.172590D-02
                  0.526257D+04           0.899286D-02
                  0.148995D+04           0.367724D-01
                  0.485417D+03           0.121446D+00
                  0.174634D+03           0.304148D+00
                  0.672393D+02           0.500000D+00
                  0.265780D+02           0.360252D+00
            S   3   1.00
                  0.131826D+03          -0.531330D-01
                  0.400703D+02          -0.233346D+00
                  0.789448D+01           0.500000D+00
            S   2   1.00
                  0.427711D+01           0.500000D+00
                  0.196233D+01           0.370517D+00
            S   1   1.00
                  0.520793D+00           1.0000000
            S   1   1.00
                  0.181633D+00           1.0000000
            P   7   1.00
                  0.124440D+04           0.988206D-03
                  0.295109D+03           0.829674D-02
                  0.947224D+02           0.430906D-01
                  0.352588D+02           0.148443D+00
                  0.144211D+02           0.344744D+00
                  0.610371D+01           0.500000D+00
                  0.258886D+01           0.348278D+00
            P   2   1.00
                  0.109447D+02          -0.196768D-01
                  0.104413D+01           0.500000D+00
            P   1   1.00
                  0.376184D+00           1.0000000
            P   1   1.00
                  0.120613D+00           1.0000000
            D   1   1.00
                  0.231000D+01           1.0000000
            D   1   1.00
                  0.520000D+00           1.0000000
            F   1   1.00
                  0.720000D+00           1.0000000
            ****
            -S     0
            S   8   1.00
                  0.134700D+06           0.226231D-03
                  0.201904D+05           0.175488D-02
                  0.459528D+04           0.914190D-02
                  0.130109D+04           0.373551D-01
                  0.423902D+03           0.123121D+00
                  0.152485D+03           0.306801D+00
                  0.586925D+02           0.500000D+00
                  0.231461D+02           0.354358D+00
            S   3   1.00
                  0.116327D+03          -0.491772D-01
                  0.352841D+02          -0.215962D+00
                  0.677831D+01           0.500000D+00
            S   2   1.00
                  0.360404D+01           0.500000D+00
                  0.164871D+01           0.366278D+00
            S   1   1.00
                  0.421821D+00           1.0000000
            S   1   1.00
                  0.147554D+00           1.0000000
            P   7   1.00
                  0.104863D+04           0.105273D-02
                  0.248717D+03           0.879338D-02
                  0.797887D+02           0.453358D-01
                  0.296023D+02           0.154476D+00
                  0.120627D+02           0.352366D+00
                  0.507628D+01           0.500000D+00
                  0.213375D+01           0.346429D+00
            P   2   1.00
                  0.928958D+01          -0.185932D-01
                  0.837819D+00           0.500000D+00
            P   1   1.00
                  0.301495D+00           1.0000000
            P   1   1.00
                  0.974740D-01           1.0000000
            D   1   1.00
                  0.210000D+01           1.0000000
            D   1   1.00
                  0.480000D+00           1.0000000
            F   1   1.00
                  0.660000D+00           1.0000000
            ****
            -Br     0
            S    10   1.00
                  0.233625D+07           0.532336D-04
                  0.349961D+06           0.413715D-03
                  0.796444D+05           0.217123D-02
                  0.225555D+05           0.910109D-02
                  0.735546D+04           0.323789D-01
                  0.265352D+04           0.988755D-01
                  0.103517D+04           0.248138D+00
                  0.422205D+03           0.474328D+00
                  0.180035D+03           0.500000D+00
                  0.793308D+02           0.187769D+00
            S    4   1.00
                  0.620834D+03          -0.226511D-01
                  0.190829D+03          -0.109497D+00
                  0.312505D+02           0.500000D+00
                  0.135270D+02           0.492812D+00
            S    2   1.00
                  0.216097D+02          -0.165418D+00
                  0.372566D+01           0.500000D+00
            S    1   1.00
                  0.169770D+01           1.0000000
            S    1   1.00
                  0.489332D+00           1.0000000
            S    1   1.00
                  0.175712D+00           1.0000000
            P    8   1.00
                  0.960829D+04           0.478974D-03
                  0.227618D+04           0.417853D-02
                  0.736723D+03           0.229315D-01
                  0.281579D+03           0.892653D-01
                  0.118395D+03           0.255288D+00
                  0.527481D+02           0.479074D+00
                  0.245098D+02           0.500000D+00
                  0.112009D+02           0.200944D+00
            P    4   1.00
                  0.587849D+02          -0.189674D-01
                  0.918962D+01           0.264104D+00
                  0.413895D+01           0.500000D+00
                  0.184225D+01           0.319316D+00
            P    1   1.00
                  0.713862D+00           1.0000000
            P    1   1.00
                  0.274232D+00           1.0000000
            P    1   1.00
                  0.944411D-01           1.0000000
            D    7   1.00
                  0.398470D+03           0.204066D-02
                  0.118967D+03           0.175171D-01
                  0.450197D+02           0.829708D-01
                  0.190320D+02           0.236284D+00
                  0.855686D+01           0.428468D+00
                  0.382950D+01           0.500000D+00
                  0.166291D+01           0.349360D+00
            D    1   1.00
                  0.672953D+00           1.0000000
            D    1   1.00
                  0.252000D+00           1.0000000
            F    1   1.00
                  0.530000D+00           1.0000000
            ****
            -Si     0
            S    8   1.00
                  0.996133D+05           0.235546D-03
                  0.149311D+05           0.182707D-02
                  0.339820D+04           0.951425D-02
                  0.962140D+03           0.388172D-01
                  0.313430D+03           0.127328D+00
                  0.112683D+03           0.313522D+00
                  0.433372D+02           0.500000D+00
                  0.170029D+02           0.340347D+00
            S    3   1.00
                  0.884208D+02          -0.404451D-01
                  0.266756D+02          -0.178059D+00
                  0.479640D+01           0.500000D+00
            S    2   1.00
                  0.239385D+01           0.500000D+00
                  0.108333D+01           0.338016D+00
            S    1   1.00
                  0.252420D+00           1.0000000
            S    1   1.00
                  0.891210D-01           1.0000000
            P    7   1.00
                  0.709901D+03           0.123028D-02
                  0.168426D+03           0.101366D-01
                  0.539946D+02           0.511840D-01
                  0.198646D+02           0.169967D+00
                  0.801369D+01           0.370717D+00
                  0.331870D+01           0.500000D+00
                  0.136112D+01           0.344128D+00
            P    2   1.00
                  0.622158D+01          -0.166609D-01
                  0.503049D+00           0.500000D+00
            P    1   1.00
                  0.179848D+00           1.0000000
            P    1   1.00
                  0.591912D-01           1.0000000
            D    1   1.00
                  0.168000D+01           1.0000000
            D    1   1.00
                  0.380000D+00           1.0000000
            F    1   1.00
                  0.540000D+00           1.0000000
            ****
            -P     0
            S    8   1.00
                  0.116416D+06           0.230715D-03
                  0.174500D+05           0.178960D-02
                  0.397149D+04           0.932116D-02
                  0.112447D+04           0.380591D-01
                  0.366347D+03           0.125148D+00
                  0.131757D+03           0.310022D+00
                  0.506988D+02           0.500000D+00
                  0.199436D+02           0.347528D+00
            S    3   1.00
                  0.101878D+03          -0.446755D-01
                  0.308249D+02          -0.196376D+00
                  0.573688D+01           0.500000D+00
            S    2   1.00
                  0.296868D+01           0.500000D+00
                  0.135315D+01           0.355098D+00
            S    1   1.00
                  0.332196D+00           1.0000000
            S    1   1.00
                  0.116229D+00           1.0000000
            P    7   1.00
                  0.873928D+03           0.112375D-02
                  0.207298D+03           0.933330D-02
                  0.664628D+02           0.477213D-01
                  0.245665D+02           0.160733D+00
                  0.996820D+01           0.359760D+00
                  0.416536D+01           0.500000D+00
                  0.173022D+01           0.346593D+00
            P    2   1.00
                  0.772530D+01          -0.175718D-01
                  0.657252D+00           0.500000D+00
            P    1   1.00
                  0.239903D+00           1.0000000
            P    1   1.00
                  0.800988D-01           1.0000000
            D    1   1.00
                  0.189000D+01           1.0000000
            D    1   1.00
                  0.430000D+00           1.0000000
            F    1   1.00
                  0.600000D+00           1.0000000
            ****
            
 Initial command:
 /usr/local/apps/g16_b01_avx/g16/l1.exe "/wrk/irikura/Gau-8877.inp" -scrdir="/wrk/irikura/"
 Entering Link 1 = /usr/local/apps/g16_b01_avx/g16/l1.exe PID=      8879.
  
 Copyright (c) 1988-2017, Gaussian, Inc.  All Rights Reserved.
  
 This is part of the Gaussian(R) 16 program.  It is based on
 the Gaussian(R) 09 system (copyright 2009, Gaussian, Inc.),
 the Gaussian(R) 03 system (copyright 2003, Gaussian, Inc.),
 the Gaussian(R) 98 system (copyright 1998, Gaussian, Inc.),
 the Gaussian(R) 94 system (copyright 1995, Gaussian, Inc.),
 the Gaussian 92(TM) system (copyright 1992, Gaussian, Inc.),
 the Gaussian 90(TM) system (copyright 1990, Gaussian, Inc.),
 the Gaussian 88(TM) system (copyright 1988, Gaussian, Inc.),
 the Gaussian 86(TM) system (copyright 1986, Carnegie Mellon
 University), and the Gaussian 82(TM) system (copyright 1983,
 Carnegie Mellon University). Gaussian is a federally registered
 trademark of Gaussian, Inc.
  
 This software contains proprietary and confidential information,
 including trade secrets, belonging to Gaussian, Inc.
  
 This software is provided under written license and may be
 used, copied, transmitted, or stored only in accord with that
 written license.
  
 The following legend is applicable only to US Government
 contracts under FAR:
  
                    RESTRICTED RIGHTS LEGEND
  
 Use, reproduction and disclosure by the US Government is
 subject to restrictions as set forth in subparagraphs (a)
 and (c) of the Commercial Computer Software - Restricted
 Rights clause in FAR 52.227-19.
  
 Gaussian, Inc.
 340 Quinnipiac St., Bldg. 40, Wallingford CT 06492
  
  
 ---------------------------------------------------------------
 Warning -- This program may not be used in any manner that
 competes with the business of Gaussian, Inc. or will provide
 assistance to any competitor of Gaussian, Inc.  The licensee
 of this program is prohibited from giving any competitor of
 Gaussian, Inc. access to this program.  By using this program,
 the user acknowledges that Gaussian, Inc. is engaged in the
 business of creating and licensing software in the field of
 computational chemistry and represents and warrants to the
 licensee that it is not a competitor of Gaussian, Inc. and that
 it will not use this program in any manner prohibited above.
 ---------------------------------------------------------------
  

 Cite this work as:
 Gaussian 16, Revision B.01,
 M. J. Frisch, G. W. Trucks, H. B. Schlegel, G. E. Scuseria, 
 M. A. Robb, J. R. Cheeseman, G. Scalmani, V. Barone, 
 G. A. Petersson, H. Nakatsuji, X. Li, M. Caricato, A. V. Marenich, 
 J. Bloino, B. G. Janesko, R. Gomperts, B. Mennucci, H. P. Hratchian, 
 J. V. Ortiz, A. F. Izmaylov, J. L. Sonnenberg, D. Williams-Young, 
 F. Ding, F. Lipparini, F. Egidi, J. Goings, B. Peng, A. Petrone, 
 T. Henderson, D. Ranasinghe, V. G. Zakrzewski, J. Gao, N. Rega, 
 G. Zheng, W. Liang, M. Hada, M. Ehara, K. Toyota, R. Fukuda, 
 J. Hasegawa, M. Ishida, T. Nakajima, Y. Honda, O. Kitao, H. Nakai, 
 T. Vreven, K. Throssell, J. A. Montgomery, Jr., J. E. Peralta, 
 F. Ogliaro, M. J. Bearpark, J. J. Heyd, E. N. Brothers, K. N. Kudin, 
 V. N. Staroverov, T. A. Keith, R. Kobayashi, J. Normand, 
 K. Raghavachari, A. P. Rendell, J. C. Burant, S. S. Iyengar, 
 J. Tomasi, M. Cossi, J. M. Millam, M. Klene, C. Adamo, R. Cammi, 
 J. W. Ochterski, R. L. Martin, K. Morokuma, O. Farkas, 
 J. B. Foresman, and D. J. Fox, Gaussian, Inc., Wallingford CT, 2016.
 
 ******************************************
 Gaussian 16:  ES64L-G16RevB.01 20-Dec-2017
                17-Jun-2022 
 ******************************************
 %mem=1000mw
 %nprocs=12
 Will use up to   12 processors via shared memory.
 --------------------
 # b3lyp/gen opt freq
 --------------------
 1/18=20,19=15,26=3,38=1/1,3;
 2/9=110,12=2,17=6,18=5,40=1/2;
 3/5=7,11=2,25=1,30=1,71=1,74=-5/1,2,3;
 4//1;
 5/5=2,38=5/2;
 6/7=2,8=2,9=2,10=2,28=1/1;
 7//1,2,3,16;
 1/18=20,19=15,26=3/3(2);
 2/9=110/2;
 99//99;
 2/9=110/2;
 3/5=7,6=1,11=2,25=1,30=1,71=1,74=-5,82=7/1,2,3;
 4/5=5,16=3,69=1/1;
 5/5=2,38=5/2;
 7//1,2,3,16;
 1/18=20,19=15,26=3/3(-5);
 2/9=110/2;
 6/7=2,8=2,9=2,10=2,19=2,28=1/1;
 99/9=1/99;
 ----------------------------
 nitrosomethyl, B3LYP/pcseg-2
 ----------------------------
 Symbolic Z-matrix:
 Charge =  0 Multiplicity = 2
 N                    -0.00783   0.32948   0. 
 C                    -1.19495  -0.14142   0. 
 O                     1.1165   -0.14131   0. 
 H                    -1.36877  -1.2149    0. 
 H                    -2.01406   0.56363   0. 
 

 GradGradGradGradGradGradGradGradGradGradGradGradGradGradGradGradGradGrad
 Berny optimization.
 Initialization pass.
                           ----------------------------
                           !    Initial Parameters    !
                           ! (Angstroms and Degrees)  !
 --------------------------                            --------------------------
 ! Name  Definition              Value          Derivative Info.                !
 --------------------------------------------------------------------------------
 ! R1    R(1,2)                  1.2771         estimate D2E/DX2                !
 ! R2    R(1,3)                  1.2189         estimate D2E/DX2                !
 ! R3    R(2,4)                  1.0875         estimate D2E/DX2                !
 ! R4    R(2,5)                  1.0808         estimate D2E/DX2                !
 ! A1    A(2,1,3)              135.6427         estimate D2E/DX2                !
 ! A2    A(1,2,4)              120.8348         estimate D2E/DX2                !
 ! A3    A(1,2,5)              117.6429         estimate D2E/DX2                !
 ! A4    A(4,2,5)              121.5223         estimate D2E/DX2                !
 ! D1    D(3,1,2,4)              0.0            estimate D2E/DX2                !
 ! D2    D(3,1,2,5)            180.0            estimate D2E/DX2                !
 ! D3    D(1,2,4,5)            180.0            estimate D2E/DX2                !
 --------------------------------------------------------------------------------
 Trust Radius=3.00D-01 FncErr=1.00D-07 GrdErr=1.00D-06 EigMax=2.50D+02 EigMin=1.00D-04
 Number of steps in this run=     21 maximum allowed number of steps=    100.
 GradGradGradGradGradGradGradGradGradGradGradGradGradGradGradGradGradGrad

                          Input orientation:                          
 ---------------------------------------------------------------------
 Center     Atomic      Atomic             Coordinates (Angstroms)
 Number     Number       Type             X           Y           Z
 ---------------------------------------------------------------------
      1          7           0       -0.007834    0.329477    0.000000
      2          6           0       -1.194946   -0.141421    0.000000
      3          8           0        1.116502   -0.141312    0.000000
      4          1           0       -1.368769   -1.214895    0.000000
      5          1           0       -2.014059    0.563628    0.000000
 ---------------------------------------------------------------------
                    Distance matrix (angstroms):
                    1          2          3          4          5
     1  N    0.000000
     2  C    1.277098   0.000000
     3  O    1.218923   2.311448   0.000000
     4  H    2.058453   1.087456   2.707241   0.000000
     5  H    2.019843   1.080759   3.208949   1.891968   0.000000
 Stoichiometry    CH2NO(2)
 Framework group  CS[SG(CH2NO)]
 Deg. of freedom     7
 Full point group                 CS      NOp   2
 Largest Abelian subgroup         CS      NOp   2
 Largest concise Abelian subgroup C1      NOp   1
                         Standard orientation:                         
 ---------------------------------------------------------------------
 Center     Atomic      Atomic             Coordinates (Angstroms)
 Number     Number       Type             X           Y           Z
 ---------------------------------------------------------------------
      1          7           0        0.000000    0.349658   -0.000000
      2          6           0        1.078869   -0.333731   -0.000000
      3          8           0       -1.192261    0.096106    0.000000
      4          1           0        1.050088   -1.420807   -0.000000
      5          1           0        2.014780    0.206741   -0.000000
 ---------------------------------------------------------------------
 Rotational constants (GHZ):         130.0114227          11.7391144          10.7669360
 General basis read from cards:  (5D, 7F)
 There are    94 symmetry adapted cartesian basis functions of A'  symmetry.
 There are    41 symmetry adapted cartesian basis functions of A"  symmetry.
 There are    80 symmetry adapted basis functions of A'  symmetry.
 There are    38 symmetry adapted basis functions of A"  symmetry.
   118 basis functions,   189 primitive gaussians,   135 cartesian basis functions
    12 alpha electrons       11 beta electrons
       nuclear repulsion energy        65.3573073831 Hartrees.
 NAtoms=    5 NActive=    5 NUniq=    5 SFac= 1.00D+00 NAtFMM=   60 NAOKFM=F Big=F
 Integral buffers will be    131072 words long.
 Raffenetti 2 integral format.
 Two-electron integral symmetry is turned on.
 One-electron integrals computed using PRISM.
 NBasis=   118 RedAO= T EigKep=  1.01D-03  NBF=    80    38
 NBsUse=   118 1.00D-06 EigRej= -1.00D+00 NBFU=    80    38
 ExpMin= 7.42D-02 ExpMax= 1.36D+04 ExpMxC= 4.64D+02 IAcc=3 IRadAn=         5 AccDes= 0.00D+00
 Harris functional with IExCor=  402 and IRadAn=       5 diagonalized for initial guess.
 HarFok:  IExCor=  402 AccDes= 0.00D+00 IRadAn=         5 IDoV= 1 UseB2=F ITyADJ=14
 ICtDFT=  3500011 ScaDFX=  1.000000  1.000000  1.000000  1.000000
 FoFCou: FMM=F IPFlag=           0 FMFlag=      100000 FMFlg1=           0
         NFxFlg=           0 DoJE=T BraDBF=F KetDBF=T FulRan=T
         wScrn=  0.000000 ICntrl=       500 IOpCl=  0 I1Cent=   200000004 NGrid=           0
         NMat0=    1 NMatS0=      1 NMatT0=    0 NMatD0=    1 NMtDS0=    0 NMtDT0=    0
 Petite list used in FoFCou.
 Initial guess orbital symmetries:
 Alpha Orbitals:
       Occupied  (A') (A') (A') (A') (A') (A') (A') (A') (A") (A')
                 (A") (A')
       Virtual   (A") (A') (A') (A') (A') (A") (A') (A') (A') (A')
                 (A') (A") (A') (A") (A') (A') (A') (A') (A") (A')
                 (A") (A') (A') (A') (A') (A") (A") (A') (A') (A")
                 (A') (A") (A') (A') (A") (A') (A') (A") (A') (A')
                 (A") (A') (A') (A") (A') (A') (A') (A') (A") (A')
                 (A') (A') (A") (A") (A') (A') (A") (A') (A') (A")
                 (A') (A') (A") (A') (A") (A") (A') (A") (A') (A")
                 (A') (A") (A') (A') (A') (A") (A') (A") (A') (A")
                 (A') (A') (A") (A') (A') (A") (A') (A") (A') (A')
                 (A") (A") (A') (A') (A') (A') (A") (A') (A") (A')
                 (A") (A') (A') (A') (A') (A')
 Beta  Orbitals:
       Occupied  (A') (A') (A') (A') (A') (A') (A') (A') (A") (A')
                 (A")
       Virtual   (A') (A") (A') (A') (A') (A') (A") (A') (A') (A')
                 (A') (A') (A") (A') (A") (A') (A') (A') (A') (A")
                 (A') (A") (A') (A') (A') (A') (A") (A") (A') (A')
                 (A") (A') (A") (A') (A') (A") (A') (A') (A") (A')
                 (A') (A") (A') (A') (A") (A') (A') (A') (A') (A")
                 (A') (A') (A') (A") (A") (A') (A') (A") (A') (A')
                 (A") (A') (A') (A") (A') (A") (A") (A') (A") (A')
                 (A") (A') (A") (A') (A') (A') (A") (A') (A") (A')
                 (A") (A') (A') (A") (A') (A') (A") (A') (A") (A')
                 (A') (A") (A") (A') (A') (A') (A') (A") (A') (A")
                 (A') (A") (A') (A') (A') (A') (A')
 The electronic state of the initial guess is 2-A'.
 Initial guess <Sx>= 0.0000 <Sy>= 0.0000 <Sz>= 0.5000 <S**2>= 0.7500 S= 0.5000
 Keep R1 and R2 ints in memory in symmetry-blocked form, NReq=37662126.
 Requested convergence on RMS density matrix=1.00D-08 within 128 cycles.
 Requested convergence on MAX density matrix=1.00D-06.
 Requested convergence on             energy=1.00D-06.
 No special actions if energy rises.
 Integral accuracy reduced to 1.0D-05 until final iterations.
 Initial convergence to 1.0D-05 achieved.  Increase integral accuracy.
 SCF Done:  E(UB3LYP) =  -169.254106186     A.U. after   18 cycles
            NFock= 18  Conv=0.25D-08     -V/T= 2.0033
 <Sx>= 0.0000 <Sy>= 0.0000 <Sz>= 0.5000 <S**2>= 0.7590 S= 0.5045
 <L.S>=  0.00000000000    
 Annihilation of the first spin contaminant:
 S**2 before annihilation     0.7590,   after     0.7500

 **********************************************************************

            Population analysis using the SCF Density.

 **********************************************************************

 Orbital symmetries:
 Alpha Orbitals:
       Occupied  (A') (A') (A') (A') (A') (A') (A') (A') (A") (A')
                 (A") (A')
       Virtual   (A") (A') (A') (A') (A') (A") (A') (A') (A') (A')
                 (A") (A') (A') (A') (A") (A') (A') (A') (A") (A')
                 (A") (A') (A') (A') (A') (A") (A') (A") (A') (A")
                 (A') (A") (A') (A') (A") (A') (A') (A") (A') (A')
                 (A") (A') (A') (A") (A') (A') (A') (A') (A") (A')
                 (A') (A') (A") (A") (A') (A') (A") (A') (A") (A')
                 (A') (A') (A") (A') (A") (A") (A') (A") (A') (A")
                 (A') (A") (A') (A') (A') (A") (A') (A") (A') (A")
                 (A') (A') (A') (A") (A") (A') (A') (A") (A') (A')
                 (A") (A") (A') (A') (A') (A") (A') (A') (A") (A')
                 (A") (A') (A') (A') (A') (A')
 Beta  Orbitals:
       Occupied  (A') (A') (A') (A') (A') (A') (A') (A') (A") (A')
                 (A")
       Virtual   (A') (A") (A') (A') (A') (A') (A") (A') (A') (A')
                 (A') (A") (A') (A') (A") (A') (A') (A') (A') (A")
                 (A') (A") (A') (A') (A') (A') (A") (A') (A") (A')
                 (A") (A') (A") (A') (A') (A") (A') (A') (A") (A')
                 (A') (A") (A') (A') (A") (A') (A') (A') (A') (A")
                 (A') (A') (A') (A") (A") (A') (A') (A") (A') (A")
                 (A') (A') (A') (A") (A') (A") (A") (A') (A") (A')
                 (A") (A') (A") (A') (A') (A') (A") (A') (A") (A')
                 (A") (A') (A') (A") (A') (A") (A') (A') (A") (A')
                 (A') (A") (A") (A') (A') (A') (A") (A') (A') (A")
                 (A') (A") (A') (A') (A') (A') (A')
 The electronic state is 2-A'.
 Alpha  occ. eigenvalues --  -19.20503 -14.45166 -10.23254  -1.17939  -0.88361
 Alpha  occ. eigenvalues --   -0.61764  -0.54171  -0.53569  -0.48932  -0.42718
 Alpha  occ. eigenvalues --   -0.28236  -0.27412
 Alpha virt. eigenvalues --   -0.03603   0.02348   0.06033   0.09080   0.14794
 Alpha virt. eigenvalues --    0.17069   0.20471   0.24383   0.30151   0.31311
 Alpha virt. eigenvalues --    0.31739   0.32491   0.38809   0.40432   0.41159
 Alpha virt. eigenvalues --    0.45149   0.50518   0.54486   0.64395   0.75881
 Alpha virt. eigenvalues --    0.85677   0.89567   0.93534   0.98052   1.02191
 Alpha virt. eigenvalues --    1.06517   1.12787   1.14315   1.24696   1.28227
 Alpha virt. eigenvalues --    1.34819   1.39836   1.41562   1.46175   1.49435
 Alpha virt. eigenvalues --    1.62822   1.68317   1.69366   1.76600   1.81091
 Alpha virt. eigenvalues --    1.95802   1.96950   2.01071   2.05186   2.08687
 Alpha virt. eigenvalues --    2.19649   2.27107   2.30666   2.45270   2.62788
 Alpha virt. eigenvalues --    2.76929   2.82155   3.11072   3.16919   3.36289
 Alpha virt. eigenvalues --    3.39269   3.42787   3.44677   3.50578   3.50996
 Alpha virt. eigenvalues --    3.65181   3.68964   3.74003   3.92631   3.94267
 Alpha virt. eigenvalues --    3.98554   4.01068   4.09173   4.12482   4.14267
 Alpha virt. eigenvalues --    4.16369   4.20621   4.22175   4.27905   4.35238
 Alpha virt. eigenvalues --    4.41231   4.44891   4.51248   4.52084   4.56342
 Alpha virt. eigenvalues --    4.57317   4.66824   4.98107   4.98332   5.09354
 Alpha virt. eigenvalues --    5.10579   5.25821   5.29102   5.31455   5.50849
 Alpha virt. eigenvalues --    5.53123   5.55989   5.59257   5.68203   5.90118
 Alpha virt. eigenvalues --    5.90644   5.92746   5.99419   6.00828   6.18025
 Alpha virt. eigenvalues --    6.43757   6.51182   6.57332   6.66598   7.20455
 Alpha virt. eigenvalues --    8.26531
  Beta  occ. eigenvalues --  -19.18854 -14.44019 -10.23224  -1.15269  -0.86222
  Beta  occ. eigenvalues --   -0.59926  -0.51974  -0.50440  -0.47472  -0.38378
  Beta  occ. eigenvalues --   -0.27344
  Beta virt. eigenvalues --   -0.12209  -0.02631   0.02558   0.06268   0.09365
  Beta virt. eigenvalues --    0.15451   0.16932   0.20831   0.25006   0.30586
  Beta virt. eigenvalues --    0.31749   0.32074   0.32794   0.39915   0.41678
  Beta virt. eigenvalues --    0.42023   0.46425   0.51158   0.55970   0.64419
  Beta virt. eigenvalues --    0.76722   0.86098   0.90076   0.93880   0.98332
  Beta virt. eigenvalues --    1.02831   1.07677   1.13775   1.14355   1.25550
  Beta virt. eigenvalues --    1.27865   1.35896   1.41088   1.43394   1.47038
  Beta virt. eigenvalues --    1.50111   1.64259   1.69540   1.71394   1.77635
  Beta virt. eigenvalues --    1.82663   1.96761   1.98423   2.03416   2.06237
  Beta virt. eigenvalues --    2.09626   2.23149   2.27978   2.32746   2.46376
  Beta virt. eigenvalues --    2.63863   2.78922   2.84356   3.11573   3.17697
  Beta virt. eigenvalues --    3.37569   3.40710   3.43203   3.45687   3.52270
  Beta virt. eigenvalues --    3.52296   3.65743   3.69257   3.74612   3.95138
  Beta virt. eigenvalues --    3.96176   3.99604   4.02104   4.09359   4.13561
  Beta virt. eigenvalues --    4.14859   4.16738   4.21177   4.22769   4.28820
  Beta virt. eigenvalues --    4.36494   4.42218   4.46170   4.51570   4.53277
  Beta virt. eigenvalues --    4.57140   4.58407   4.67673   4.99818   5.00166
  Beta virt. eigenvalues --    5.12076   5.13188   5.27378   5.30338   5.32729
  Beta virt. eigenvalues --    5.52216   5.53387   5.56871   5.60218   5.69103
  Beta virt. eigenvalues --    5.90564   5.91838   5.93825   6.04678   6.05949
  Beta virt. eigenvalues --    6.20561   6.44738   6.53872   6.60923   6.68105
  Beta virt. eigenvalues --    7.21995   8.27388
          Condensed to atoms (all electrons):
               1          2          3          4          5
     1  N    6.154515   0.547050   0.257814  -0.038630  -0.031006
     2  C    0.547050   4.698121  -0.087665   0.417240   0.413349
     3  O    0.257814  -0.087665   8.082156  -0.004554   0.006238
     4  H   -0.038630   0.417240  -0.004554   0.602281  -0.039312
     5  H   -0.031006   0.413349   0.006238  -0.039312   0.581879
          Atomic-Atomic Spin Densities.
               1          2          3          4          5
     1  N    0.701663  -0.033729  -0.204442  -0.004987  -0.005071
     2  C   -0.033729  -0.033169   0.005076  -0.018159   0.014619
     3  O   -0.204442   0.005076   0.737027   0.012389  -0.000906
     4  H   -0.004987  -0.018159   0.012389   0.069691  -0.002858
     5  H   -0.005071   0.014619  -0.000906  -0.002858   0.000922
 Mulliken charges and spin densities:
               1          2
     1  N    0.110258   0.453436
     2  C    0.011905  -0.065362
     3  O   -0.253989   0.549143
     4  H    0.062974   0.056077
     5  H    0.068852   0.006706
 Sum of Mulliken charges =  -0.00000   1.00000
 Mulliken charges and spin densities with hydrogens summed into heavy atoms:
               1          2
     1  N    0.110258   0.453436
     2  C    0.143731  -0.002579
     3  O   -0.253989   0.549143
 Electronic spatial extent (au):  <R**2>=            135.5741
 Charge=             -0.0000 electrons
 Dipole moment (field-independent basis, Debye):
    X=              2.1605    Y=             -0.7329    Z=             -0.0000  Tot=              2.2815
 Quadrupole moment (field-independent basis, Debye-Ang):
   XX=            -17.1873   YY=            -16.3932   ZZ=            -18.2343
   XY=             -0.1531   XZ=              0.0000   YZ=              0.0000
 Traceless Quadrupole moment (field-independent basis, Debye-Ang):
   XX=              0.0843   YY=              0.8784   ZZ=             -0.9627
   XY=             -0.1531   XZ=              0.0000   YZ=              0.0000
 Octapole moment (field-independent basis, Debye-Ang**2):
  XXX=              2.3712  YYY=             -1.4624  ZZZ=              0.0000  XYY=             -0.5057
  XXY=              0.4306  XXZ=             -0.0000  XZZ=             -2.4403  YZZ=              0.5082
  YYZ=              0.0000  XYZ=             -0.0000
 Hexadecapole moment (field-independent basis, Debye-Ang**3):
 XXXX=           -114.1204 YYYY=            -30.4180 ZZZZ=            -18.3548 XXXY=             12.1318
 XXXZ=              0.0000 YYYX=              8.0550 YYYZ=             -0.0000 ZZZX=              0.0000
 ZZZY=             -0.0000 XXYY=            -24.5184 XXZZ=            -25.1078 YYZZ=             -8.8321
 XXYZ=             -0.0000 YYXZ=              0.0000 ZZXY=              3.6271
 N-N= 6.535730738311D+01 E-N=-5.276157207505D+02  KE= 1.686944163534D+02
 Symmetry A'   KE= 1.611862055085D+02
 Symmetry A"   KE= 7.508210844915D+00
 Symmetry A'   SP= 1.000000000000D+00
 Symmetry A"   SP= 1.049580971316D-14
                          Isotropic Fermi Contact Couplings
        Atom                 a.u.       MegaHertz       Gauss      10(-4) cm-1
     1  N(14)              0.29227      94.43458      33.69661      31.49998
     2  C(13)              0.07570      85.09566      30.36425      28.38486
     3  O(17)              0.15921     -96.51422     -34.43867     -32.19368
     4  H(1)               0.01891      84.50447      30.15329      28.18766
     5  H(1)               0.00454      20.31334       7.24830       6.77580
 --------------------------------------------------------
       Center         ----  Spin Dipole Couplings  ----
                      3XX-RR        3YY-RR        3ZZ-RR
 --------------------------------------------------------
     1   Atom       -0.600046      1.068835     -0.468789
     2   Atom        0.120727      0.038603     -0.159331
     3   Atom       -1.336673      2.421856     -1.085183
     4   Atom        0.007956      0.004207     -0.012164
     5   Atom        0.022092     -0.008930     -0.013162
 --------------------------------------------------------
                        XY            XZ            YZ
 --------------------------------------------------------
     1   Atom        0.172123     -0.000000      0.000000
     2   Atom       -0.086540      0.000000     -0.000000
     3   Atom       -0.053553     -0.000000      0.000000
     4   Atom       -0.008977     -0.000000      0.000000
     5   Atom       -0.006484     -0.000000     -0.000000
 --------------------------------------------------------


 ---------------------------------------------------------------------------------
              Anisotropic Spin Dipole Couplings in Principal Axis System
 ---------------------------------------------------------------------------------

       Atom             a.u.   MegaHertz   Gauss  10(-4) cm-1        Axes

              Baa    -0.6176   -23.820    -8.500    -7.945  0.9948 -0.1015  0.0000
     1 N(14)  Bbb    -0.4688   -18.080    -6.451    -6.031  0.0000  0.0000  1.0000
              Bcc     1.0864    41.900    14.951    13.976  0.1015  0.9948 -0.0000
 
              Baa    -0.1593   -21.381    -7.629    -7.132  0.0000  0.0000  1.0000
     2 C(13)  Bbb    -0.0161    -2.163    -0.772    -0.722  0.5345  0.8452  0.0000
              Bcc     0.1755    23.544     8.401     7.853  0.8452 -0.5345  0.0000
 
              Baa    -1.3374    96.776    34.532    32.281  0.9999  0.0142  0.0000
     3 O(17)  Bbb    -1.0852    78.523    28.019    26.192  0.0000  0.0000  1.0000
              Bcc     2.4226  -175.299   -62.551   -58.473 -0.0142  0.9999 -0.0000
 
              Baa    -0.0122    -6.490    -2.316    -2.165  0.0000  0.0000  1.0000
     4 H(1)   Bbb    -0.0031    -1.648    -0.588    -0.550  0.6307  0.7760 -0.0000
              Bcc     0.0153     8.138     2.904     2.715  0.7760 -0.6307  0.0000
 
              Baa    -0.0132    -7.023    -2.506    -2.343  0.0000  0.0000  1.0000
     5 H(1)   Bbb    -0.0102    -5.458    -1.948    -1.821  0.1967  0.9805 -0.0000
              Bcc     0.0234    12.481     4.454     4.163  0.9805 -0.1967 -0.0000
 

 ---------------------------------------------------------------------------------

 Calling FoFJK, ICntrl=      2127 FMM=F ISym2X=1 I1Cent= 0 IOpClX= 1 NMat=1 NMatS=1 NMatT=0.
 ***** Axes restored to original set *****
 -------------------------------------------------------------------
 Center     Atomic                   Forces (Hartrees/Bohr)
 Number     Number              X              Y              Z
 -------------------------------------------------------------------
      1        7          -0.001176016   -0.002351363   -0.000000000
      2        6           0.000976938    0.001154936    0.000000000
      3        8          -0.002417132    0.000826221   -0.000000000
      4        1           0.000764138    0.001729475    0.000000000
      5        1           0.001852071   -0.001359269    0.000000000
 -------------------------------------------------------------------
 Cartesian Forces:  Max     0.002417132 RMS     0.001280056

 GradGradGradGradGradGradGradGradGradGradGradGradGradGradGradGradGradGrad
 Berny optimization.
 FormGI is forming the generalized inverse of G from B-inverse, IUseBI=4.
 Internal  Forces:  Max     0.003902310 RMS     0.001677813
 Search for a local minimum.
 Step number   1 out of a maximum of   21
 All quantities printed in internal units (Hartrees-Bohrs-Radians)
 Mixed Optimization -- RFO/linear search
 Second derivative matrix not updated -- first step.
 The second derivative matrix:
                          R1        R2        R3        R4        A1
           R1           0.73977
           R2           0.00000   0.95862
           R3           0.00000   0.00000   0.35108
           R4           0.00000   0.00000   0.00000   0.35903
           A1           0.00000   0.00000   0.00000   0.00000   0.25000
           A2           0.00000   0.00000   0.00000   0.00000   0.00000
           A3           0.00000   0.00000   0.00000   0.00000   0.00000
           A4           0.00000   0.00000   0.00000   0.00000   0.00000
           D1           0.00000   0.00000   0.00000   0.00000   0.00000
           D2           0.00000   0.00000   0.00000   0.00000   0.00000
           D3           0.00000   0.00000   0.00000   0.00000   0.00000
                          A2        A3        A4        D1        D2
           A2           0.16000
           A3           0.00000   0.16000
           A4           0.00000   0.00000   0.16000
           D1           0.00000   0.00000   0.00000   0.03318
           D2           0.00000   0.00000   0.00000   0.00000   0.03318
           D3           0.00000   0.00000   0.00000   0.00000   0.00000
                          D3
           D3           0.00268
 ITU=  0
     Eigenvalues ---    0.01233   0.03318   0.16000   0.16000   0.25000
     Eigenvalues ---    0.35108   0.35903   0.73977   0.95862
 RFO step:  Lambda=-5.52108359D-05 EMin= 1.23340345D-02
 Linear search not attempted -- first point.
 Iteration  1 RMS(Cart)=  0.00454389 RMS(Int)=  0.00000471
 Iteration  2 RMS(Cart)=  0.00000487 RMS(Int)=  0.00000000
 Iteration  3 RMS(Cart)=  0.00000000 RMS(Int)=  0.00000000
 ClnCor:  largest displacement from symmetrization is 3.42D-12 for atom     2.
 Variable       Old X    -DE/DX   Delta X   Delta X   Delta X     New X
                                 (Linear)    (Quad)   (Total)
    R1        2.41337  -0.00390   0.00000  -0.00527  -0.00527   2.40809
    R2        2.30343  -0.00255   0.00000  -0.00266  -0.00266   2.30077
    R3        2.05499  -0.00183   0.00000  -0.00521  -0.00521   2.04978
    R4        2.04234  -0.00229   0.00000  -0.00638  -0.00638   2.03596
    A1        2.36741  -0.00039   0.00000  -0.00158  -0.00158   2.36583
    A2        2.10897  -0.00053   0.00000  -0.00333  -0.00333   2.10563
    A3        2.05326   0.00009   0.00000   0.00053   0.00053   2.05379
    A4        2.12096   0.00045   0.00000   0.00280   0.00280   2.12377
    D1        0.00000  -0.00000   0.00000  -0.00000  -0.00000   0.00000
    D2        3.14159   0.00000   0.00000   0.00000   0.00000   3.14159
    D3        3.14159   0.00000   0.00000   0.00000   0.00000   3.14159
         Item               Value     Threshold  Converged?
 Maximum Force            0.003902     0.000450     NO 
 RMS     Force            0.001678     0.000300     NO 
 Maximum Displacement     0.008376     0.001800     NO 
 RMS     Displacement     0.004543     0.001200     NO 
 Predicted change in Energy=-2.760542D-05
 GradGradGradGradGradGradGradGradGradGradGradGradGradGradGradGradGradGrad

                          Input orientation:                          
 ---------------------------------------------------------------------
 Center     Atomic      Atomic             Coordinates (Angstroms)
 Number     Number       Type             X           Y           Z
 ---------------------------------------------------------------------
      1          7           0       -0.010154    0.329101   -0.000000
      2          6           0       -1.194742   -0.140591   -0.000000
      3          8           0        1.112069   -0.143085    0.000000
      4          1           0       -1.364714   -1.211891   -0.000000
      5          1           0       -2.011565    0.561944   -0.000000
 ---------------------------------------------------------------------
                    Distance matrix (angstroms):
                    1          2          3          4          5
     1  N    0.000000
     2  C    1.274307   0.000000
     3  O    1.217516   2.306813   0.000000
     4  H    2.051703   1.084699   2.697555   0.000000
     5  H    2.014910   1.077384   3.202212   1.888096   0.000000
 Stoichiometry    CH2NO(2)
 Framework group  CS[SG(CH2NO)]
 Deg. of freedom     7
 Full point group                 CS      NOp   2
 Largest Abelian subgroup         CS      NOp   2
 Largest concise Abelian subgroup C1      NOp   1
                         Standard orientation:                         
 ---------------------------------------------------------------------
 Center     Atomic      Atomic             Coordinates (Angstroms)
 Number     Number       Type             X           Y           Z
 ---------------------------------------------------------------------
      1          7           0        0.000000    0.349661   -0.000000
      2          6           0        1.077428   -0.330785    0.000000
      3          8           0       -1.190139    0.092921   -0.000000
      4          1           0        1.046564   -1.415045    0.000000
      5          1           0        2.009977    0.208759    0.000000
 ---------------------------------------------------------------------
 Rotational constants (GHZ):         130.2642090          11.7896944          10.8112145
 Basis read from rwf:  (5D, 7F)
 There are    94 symmetry adapted cartesian basis functions of A'  symmetry.
 There are    41 symmetry adapted cartesian basis functions of A"  symmetry.
 There are    80 symmetry adapted basis functions of A'  symmetry.
 There are    38 symmetry adapted basis functions of A"  symmetry.
   118 basis functions,   189 primitive gaussians,   135 cartesian basis functions
    12 alpha electrons       11 beta electrons
       nuclear repulsion energy        65.4815994747 Hartrees.
 NAtoms=    5 NActive=    5 NUniq=    5 SFac= 1.00D+00 NAtFMM=   60 NAOKFM=F Big=F
 Integral buffers will be    131072 words long.
 Raffenetti 2 integral format.
 Two-electron integral symmetry is turned on.
 One-electron integrals computed using PRISM.
 NBasis=   118 RedAO= T EigKep=  1.00D-03  NBF=    80    38
 NBsUse=   118 1.00D-06 EigRej= -1.00D+00 NBFU=    80    38
 Initial guess from the checkpoint file:  "/wrk/irikura/Gau-8879.chk"
 B after Tr=    -0.000000    0.000000    0.000000
         Rot=    1.000000    0.000000   -0.000000   -0.000941 Ang=  -0.11 deg.
 Initial guess orbital symmetries:
 Alpha Orbitals:
       Occupied  (A') (A') (A') (A') (A') (A') (A') (A') (A") (A')
                 (A") (A')
       Virtual   (A") (A') (A') (A') (A') (A") (A') (A') (A') (A')
                 (A") (A') (A') (A') (A") (A') (A') (A') (A") (A')
                 (A") (A') (A') (A') (A') (A") (A') (A") (A') (A")
                 (A') (A") (A') (A') (A") (A') (A') (A") (A') (A')
                 (A") (A') (A') (A") (A') (A') (A') (A') (A") (A')
                 (A') (A') (A") (A") (A') (A') (A") (A') (A") (A')
                 (A') (A') (A") (A') (A") (A") (A') (A") (A') (A")
                 (A') (A") (A') (A') (A') (A") (A') (A") (A') (A")
                 (A') (A') (A') (A") (A") (A') (A') (A") (A') (A')
                 (A") (A") (A') (A') (A') (A") (A') (A') (A") (A')
                 (A") (A') (A') (A') (A') (A')
 Beta  Orbitals:
       Occupied  (A') (A') (A') (A') (A') (A') (A') (A') (A") (A')
                 (A")
       Virtual   (A') (A") (A') (A') (A') (A') (A") (A') (A') (A')
                 (A') (A") (A') (A') (A") (A') (A') (A') (A') (A")
                 (A') (A") (A') (A') (A') (A') (A") (A') (A") (A')
                 (A") (A') (A") (A') (A') (A") (A') (A') (A") (A')
                 (A') (A") (A') (A') (A") (A') (A') (A') (A') (A")
                 (A') (A') (A') (A") (A") (A') (A') (A") (A') (A")
                 (A') (A') (A') (A") (A') (A") (A") (A') (A") (A')
                 (A") (A') (A") (A') (A') (A') (A") (A') (A") (A')
                 (A") (A') (A') (A") (A') (A") (A') (A') (A") (A')
                 (A') (A") (A") (A') (A') (A') (A") (A') (A') (A")
                 (A') (A") (A') (A') (A') (A') (A')
 Initial guess <Sx>= 0.0000 <Sy>= 0.0000 <Sz>= 0.5000 <S**2>= 0.7590 S= 0.5045
 Keep R1 and R2 ints in memory in symmetry-blocked form, NReq=37662126.
 Requested convergence on RMS density matrix=1.00D-08 within 128 cycles.
 Requested convergence on MAX density matrix=1.00D-06.
 Requested convergence on             energy=1.00D-06.
 No special actions if energy rises.
 SCF Done:  E(UB3LYP) =  -169.254133944     A.U. after   11 cycles
            NFock= 11  Conv=0.28D-08     -V/T= 2.0032
 <Sx>= 0.0000 <Sy>= 0.0000 <Sz>= 0.5000 <S**2>= 0.7588 S= 0.5044
 <L.S>=  0.00000000000    
 Annihilation of the first spin contaminant:
 S**2 before annihilation     0.7588,   after     0.7500
 Calling FoFJK, ICntrl=      2127 FMM=F ISym2X=1 I1Cent= 0 IOpClX= 1 NMat=1 NMatS=1 NMatT=0.
 ***** Axes restored to original set *****
 -------------------------------------------------------------------
 Center     Atomic                   Forces (Hartrees/Bohr)
 Number     Number              X              Y              Z
 -------------------------------------------------------------------
      1        7           0.000445268   -0.000452809    0.000000000
      2        6          -0.000171014    0.000243912   -0.000000000
      3        8          -0.000293883    0.000265542   -0.000000000
      4        1           0.000082141   -0.000069193    0.000000000
      5        1          -0.000062513    0.000012547   -0.000000000
 -------------------------------------------------------------------
 Cartesian Forces:  Max     0.000452809 RMS     0.000210479

 GradGradGradGradGradGradGradGradGradGradGradGradGradGradGradGradGradGrad
 Berny optimization.
 Using GEDIIS/GDIIS optimizer.
 FormGI is forming the generalized inverse of G from B-inverse, IUseBI=4.
 Internal  Forces:  Max     0.000373889 RMS     0.000158447
 Search for a local minimum.
 Step number   2 out of a maximum of   21
 All quantities printed in internal units (Hartrees-Bohrs-Radians)
 Mixed Optimization -- En-DIIS/RFO-DIIS
 Update second derivatives using D2CorX and points    1    2
 DE= -2.78D-05 DEPred=-2.76D-05 R= 1.01D+00
 TightC=F SS=  1.41D+00  RLast= 1.12D-02 DXNew= 5.0454D-01 3.3469D-02
 Trust test= 1.01D+00 RLast= 1.12D-02 DXMaxT set to 3.00D-01
 The second derivative matrix:
                          R1        R2        R3        R4        A1
           R1           0.75084
           R2          -0.02315   0.92687
           R3           0.00678  -0.00998   0.35501
           R4           0.00748  -0.01305   0.00445   0.36400
           A1           0.02233   0.00927   0.01075   0.01328   0.25597
           A2          -0.00980  -0.00935  -0.00444  -0.00565   0.00107
           A3           0.00748   0.00473   0.00351   0.00439   0.00086
           A4           0.00232   0.00463   0.00092   0.00126  -0.00194
           D1           0.00000   0.00000   0.00000   0.00000   0.00000
           D2          -0.00000  -0.00000  -0.00000  -0.00000  -0.00000
           D3          -0.00000  -0.00000  -0.00000  -0.00000  -0.00000
                          A2        A3        A4        D1        D2
           A2           0.15756
           A3           0.00096   0.15988
           A4           0.00147  -0.00084   0.15937
           D1           0.00000   0.00000  -0.00000   0.03318
           D2          -0.00000  -0.00000   0.00000  -0.00000   0.03318
           D3          -0.00000  -0.00000   0.00000  -0.00000   0.00000
                          D3
           D3           0.00268
 ITU=  1  0
 Use linear search instead of GDIIS.
     Eigenvalues ---    0.01231   0.03318   0.15545   0.16039   0.25240
     Eigenvalues ---    0.35336   0.36784   0.74948   0.93058
 RFO step:  Lambda=-7.51679406D-07 EMin= 1.23149733D-02
 Quartic linear search produced a step of  0.00287.
 Iteration  1 RMS(Cart)=  0.00042916 RMS(Int)=  0.00000018
 Iteration  2 RMS(Cart)=  0.00000025 RMS(Int)=  0.00000000
 ClnCor:  largest displacement from symmetrization is 2.45D-13 for atom     2.
 Variable       Old X    -DE/DX   Delta X   Delta X   Delta X     New X
                                 (Linear)    (Quad)   (Total)
    R1        2.40809   0.00007  -0.00002   0.00004   0.00003   2.40812
    R2        2.30077  -0.00037  -0.00001  -0.00042  -0.00043   2.30035
    R3        2.04978   0.00006  -0.00001   0.00010   0.00009   2.04987
    R4        2.03596   0.00006  -0.00002   0.00009   0.00007   2.03603
    A1        2.36583   0.00030  -0.00000   0.00119   0.00119   2.36702
    A2        2.10563  -0.00015  -0.00001  -0.00096  -0.00097   2.10467
    A3        2.05379   0.00011   0.00000   0.00067   0.00067   2.05445
    A4        2.12377   0.00004   0.00001   0.00029   0.00030   2.12407
    D1       -0.00000  -0.00000   0.00000  -0.00000   0.00000   0.00000
    D2        3.14159  -0.00000   0.00000   0.00000   0.00000   3.14159
    D3        3.14159   0.00000   0.00000   0.00000   0.00000   3.14159
         Item               Value     Threshold  Converged?
 Maximum Force            0.000374     0.000450     YES
 RMS     Force            0.000158     0.000300     YES
 Maximum Displacement     0.001037     0.001800     YES
 RMS     Displacement     0.000429     0.001200     YES
 Predicted change in Energy=-3.760950D-07
 Optimization completed.
    -- Stationary point found.
                           ----------------------------
                           !   Optimized Parameters   !
                           ! (Angstroms and Degrees)  !
 --------------------------                            --------------------------
 ! Name  Definition              Value          Derivative Info.                !
 --------------------------------------------------------------------------------
 ! R1    R(1,2)                  1.2743         -DE/DX =    0.0001              !
 ! R2    R(1,3)                  1.2175         -DE/DX =   -0.0004              !
 ! R3    R(2,4)                  1.0847         -DE/DX =    0.0001              !
 ! R4    R(2,5)                  1.0774         -DE/DX =    0.0001              !
 ! A1    A(2,1,3)              135.5522         -DE/DX =    0.0003              !
 ! A2    A(1,2,4)              120.6438         -DE/DX =   -0.0001              !
 ! A3    A(1,2,5)              117.6733         -DE/DX =    0.0001              !
 ! A4    A(4,2,5)              121.6829         -DE/DX =    0.0                 !
 ! D1    D(3,1,2,4)              0.0            -DE/DX =    0.0                 !
 ! D2    D(3,1,2,5)            180.0            -DE/DX =    0.0                 !
 ! D3    D(1,2,4,5)            180.0            -DE/DX =    0.0                 !
 --------------------------------------------------------------------------------
 GradGradGradGradGradGradGradGradGradGradGradGradGradGradGradGradGradGrad

                          Input orientation:                          
 ---------------------------------------------------------------------
 Center     Atomic      Atomic             Coordinates (Angstroms)
 Number     Number       Type             X           Y           Z
 ---------------------------------------------------------------------
      1          7           0       -0.010154    0.329101   -0.000000
      2          6           0       -1.194742   -0.140591   -0.000000
      3          8           0        1.112069   -0.143085    0.000000
      4          1           0       -1.364714   -1.211891   -0.000000
      5          1           0       -2.011565    0.561944   -0.000000
 ---------------------------------------------------------------------
                    Distance matrix (angstroms):
                    1          2          3          4          5
     1  N    0.000000
     2  C    1.274307   0.000000
     3  O    1.217516   2.306813   0.000000
     4  H    2.051703   1.084699   2.697555   0.000000
     5  H    2.014910   1.077384   3.202212   1.888096   0.000000
 Stoichiometry    CH2NO(2)
 Framework group  CS[SG(CH2NO)]
 Deg. of freedom     7
 Full point group                 CS      NOp   2
 Largest Abelian subgroup         CS      NOp   2
 Largest concise Abelian subgroup C1      NOp   1
                         Standard orientation:                         
 ---------------------------------------------------------------------
 Center     Atomic      Atomic             Coordinates (Angstroms)
 Number     Number       Type             X           Y           Z
 ---------------------------------------------------------------------
      1          7           0        0.000000    0.349661   -0.000000
      2          6           0        1.077428   -0.330785    0.000000
      3          8           0       -1.190139    0.092921   -0.000000
      4          1           0        1.046564   -1.415045    0.000000
      5          1           0        2.009977    0.208759    0.000000
 ---------------------------------------------------------------------
 Rotational constants (GHZ):         130.2642090          11.7896944          10.8112145

 **********************************************************************

            Population analysis using the SCF Density.

 **********************************************************************

 Orbital symmetries:
 Alpha Orbitals:
       Occupied  (A') (A') (A') (A') (A') (A') (A') (A') (A") (A')
                 (A") (A')
       Virtual   (A") (A') (A') (A') (A') (A") (A') (A') (A') (A')
                 (A") (A') (A') (A') (A") (A') (A') (A') (A") (A')
                 (A") (A') (A') (A') (A') (A") (A') (A") (A') (A")
                 (A') (A") (A') (A') (A") (A') (A') (A") (A') (A')
                 (A") (A') (A') (A") (A') (A') (A') (A') (A") (A')
                 (A') (A') (A") (A") (A') (A') (A") (A') (A") (A')
                 (A') (A') (A") (A') (A") (A") (A') (A") (A') (A")
                 (A') (A") (A') (A') (A') (A") (A') (A") (A') (A")
                 (A') (A') (A") (A') (A") (A') (A') (A") (A') (A')
                 (A") (A") (A') (A') (A") (A') (A') (A') (A") (A')
                 (A") (A') (A') (A') (A') (A')
 Beta  Orbitals:
       Occupied  (A') (A') (A') (A') (A') (A') (A') (A') (A") (A')
                 (A")
       Virtual   (A') (A") (A') (A') (A') (A') (A") (A') (A') (A')
                 (A') (A") (A') (A') (A") (A') (A') (A') (A') (A")
                 (A') (A") (A') (A') (A') (A') (A") (A') (A") (A')
                 (A") (A') (A") (A') (A') (A") (A') (A') (A") (A')
                 (A') (A") (A') (A') (A") (A') (A') (A') (A') (A")
                 (A') (A') (A') (A") (A") (A') (A') (A") (A') (A")
                 (A') (A') (A') (A") (A') (A") (A") (A') (A") (A')
                 (A") (A') (A") (A') (A') (A') (A") (A') (A") (A')
                 (A") (A') (A') (A") (A') (A") (A') (A') (A") (A')
                 (A') (A") (A") (A') (A') (A') (A") (A') (A') (A")
                 (A') (A") (A') (A') (A') (A') (A')
 The electronic state is 2-A'.
 Alpha  occ. eigenvalues --  -19.20471 -14.45127 -10.23136  -1.18041  -0.88457
 Alpha  occ. eigenvalues --   -0.61776  -0.54263  -0.53608  -0.48997  -0.42749
 Alpha  occ. eigenvalues --   -0.28242  -0.27383
 Alpha virt. eigenvalues --   -0.03527   0.02384   0.06057   0.09098   0.14849
 Alpha virt. eigenvalues --    0.17076   0.20525   0.24435   0.30249   0.31313
 Alpha virt. eigenvalues --    0.31744   0.32571   0.39046   0.40433   0.41147
 Alpha virt. eigenvalues --    0.45271   0.50552   0.54612   0.64427   0.75903
 Alpha virt. eigenvalues --    0.85824   0.89576   0.93569   0.98006   1.02240
 Alpha virt. eigenvalues --    1.06567   1.12993   1.14433   1.24720   1.28169
 Alpha virt. eigenvalues --    1.34948   1.39973   1.41536   1.46166   1.49586
 Alpha virt. eigenvalues --    1.62915   1.68655   1.69462   1.77062   1.81270
 Alpha virt. eigenvalues --    1.95906   1.96930   2.01177   2.05272   2.08721
 Alpha virt. eigenvalues --    2.19800   2.27357   2.31025   2.45389   2.63105
 Alpha virt. eigenvalues --    2.77228   2.82355   3.11287   3.17071   3.36493
 Alpha virt. eigenvalues --    3.39500   3.43125   3.44850   3.50629   3.51137
 Alpha virt. eigenvalues --    3.65444   3.69386   3.74184   3.92656   3.94324
 Alpha virt. eigenvalues --    3.98338   4.01311   4.09148   4.12717   4.14445
 Alpha virt. eigenvalues --    4.16380   4.20903   4.22538   4.28344   4.35635
 Alpha virt. eigenvalues --    4.41383   4.45357   4.51816   4.52592   4.57049
 Alpha virt. eigenvalues --    4.57673   4.67252   4.98399   4.98886   5.09475
 Alpha virt. eigenvalues --    5.10950   5.26304   5.29442   5.32216   5.51803
 Alpha virt. eigenvalues --    5.54126   5.56833   5.59851   5.69229   5.91219
 Alpha virt. eigenvalues --    5.91280   5.93953   5.99619   6.00910   6.19110
 Alpha virt. eigenvalues --    6.43764   6.51571   6.58053   6.67736   7.21312
 Alpha virt. eigenvalues --    8.25884
  Beta  occ. eigenvalues --  -19.18823 -14.43980 -10.23104  -1.15379  -0.86321
  Beta  occ. eigenvalues --   -0.59938  -0.52011  -0.50541  -0.47544  -0.38397
  Beta  occ. eigenvalues --   -0.27349
  Beta virt. eigenvalues --   -0.12179  -0.02556   0.02596   0.06291   0.09384
  Beta virt. eigenvalues --    0.15500   0.16943   0.20889   0.25053   0.30685
  Beta virt. eigenvalues --    0.31757   0.32077   0.32869   0.40156   0.41665
  Beta virt. eigenvalues --    0.42021   0.46534   0.51195   0.56103   0.64453
  Beta virt. eigenvalues --    0.76744   0.86248   0.90087   0.93905   0.98299
  Beta virt. eigenvalues --    1.02882   1.07726   1.13971   1.14475   1.25585
  Beta virt. eigenvalues --    1.27812   1.36017   1.41237   1.43351   1.47046
  Beta virt. eigenvalues --    1.50250   1.64398   1.69877   1.71488   1.78076
  Beta virt. eigenvalues --    1.82841   1.96864   1.98379   2.03528   2.06322
  Beta virt. eigenvalues --    2.09654   2.23355   2.28192   2.33103   2.46491
  Beta virt. eigenvalues --    2.64175   2.79193   2.84578   3.11789   3.17861
  Beta virt. eigenvalues --    3.37764   3.40971   3.43541   3.45848   3.52314
  Beta virt. eigenvalues --    3.52429   3.65987   3.69703   3.74790   3.95159
  Beta virt. eigenvalues --    3.96179   3.99429   4.02338   4.09341   4.13792
  Beta virt. eigenvalues --    4.15043   4.16765   4.21456   4.23124   4.29262
  Beta virt. eigenvalues --    4.36886   4.42375   4.46633   4.52137   4.53767
  Beta virt. eigenvalues --    4.57841   4.58764   4.68129   4.99898   5.00965
  Beta virt. eigenvalues --    5.12189   5.13566   5.27831   5.30685   5.33511
  Beta virt. eigenvalues --    5.53167   5.54404   5.57692   5.60797   5.70148
  Beta virt. eigenvalues --    5.91787   5.92433   5.94992   6.04909   6.06003
  Beta virt. eigenvalues --    6.21580   6.44739   6.54331   6.61594   6.69192
  Beta virt. eigenvalues --    7.22848   8.26738
          Condensed to atoms (all electrons):
               1          2          3          4          5
     1  N    6.150990   0.548745   0.258181  -0.038908  -0.031011
     2  C    0.548745   4.694896  -0.088330   0.418088   0.413799
     3  O    0.258181  -0.088330   8.083005  -0.004605   0.006298
     4  H   -0.038908   0.418088  -0.004605   0.602750  -0.039234
     5  H   -0.031011   0.413799   0.006298  -0.039234   0.582310
          Atomic-Atomic Spin Densities.
               1          2          3          4          5
     1  N    0.701979  -0.033874  -0.204832  -0.005081  -0.005057
     2  C   -0.033874  -0.032376   0.005118  -0.018231   0.014736
     3  O   -0.204832   0.005118   0.736842   0.012589  -0.000925
     4  H   -0.005081  -0.018231   0.012589   0.069523  -0.002828
     5  H   -0.005057   0.014736  -0.000925  -0.002828   0.000804
 Mulliken charges and spin densities:
               1          2
     1  N    0.112002   0.453135
     2  C    0.012802  -0.064627
     3  O   -0.254550   0.548791
     4  H    0.061908   0.055972
     5  H    0.067837   0.006729
 Sum of Mulliken charges =  -0.00000   1.00000
 Mulliken charges and spin densities with hydrogens summed into heavy atoms:
               1          2
     1  N    0.112002   0.453135
     2  C    0.142548  -0.001926
     3  O   -0.254550   0.548791
 Electronic spatial extent (au):  <R**2>=            135.1458
 Charge=             -0.0000 electrons
 Dipole moment (field-independent basis, Debye):
    X=              2.1568    Y=             -0.7239    Z=              0.0000  Tot=              2.2750
 Quadrupole moment (field-independent basis, Debye-Ang):
   XX=            -17.1966   YY=            -16.3921   ZZ=            -18.2161
   XY=             -0.1492   XZ=              0.0000   YZ=              0.0000
 Traceless Quadrupole moment (field-independent basis, Debye-Ang):
   XX=              0.0717   YY=              0.8761   ZZ=             -0.9479
   XY=             -0.1492   XZ=              0.0000   YZ=              0.0000
 Octapole moment (field-independent basis, Debye-Ang**2):
  XXX=              2.3565  YYY=             -1.4498  ZZZ=              0.0000  XYY=             -0.5118
  XXY=              0.4448  XXZ=              0.0000  XZZ=             -2.4232  YZZ=              0.4997
  YYZ=             -0.0000  XYZ=              0.0000
 Hexadecapole moment (field-independent basis, Debye-Ang**3):
 XXXX=           -113.7955 YYYY=            -30.2996 ZZZZ=            -18.3183 XXXY=             11.9690
 XXXZ=              0.0000 YYYX=              7.9397 YYYZ=              0.0000 ZZZX=             -0.0000
 ZZZY=              0.0000 XXYY=            -24.4301 XXZZ=            -25.0136 YYZZ=             -8.7920
 XXYZ=              0.0000 YYXZ=             -0.0000 ZZXY=              3.5680
 N-N= 6.548159947473D+01 E-N=-5.278801983206D+02  KE= 1.687182886354D+02
 Symmetry A'   KE= 1.612079485486D+02
 Symmetry A"   KE= 7.510340086856D+00
 Symmetry A'   SP= 1.000000000000D+00
 Symmetry A"   SP=-4.059659509600D-16
                          Isotropic Fermi Contact Couplings
        Atom                 a.u.       MegaHertz       Gauss      10(-4) cm-1
     1  N(14)              0.29131      94.12485      33.58609      31.39667
     2  C(13)              0.07599      85.42997      30.48354      28.49637
     3  O(17)              0.15920     -96.50562     -34.43560     -32.19081
     4  H(1)               0.01881      84.07151      29.99881      28.04324
     5  H(1)               0.00458      20.46277       7.30163       6.82565
 --------------------------------------------------------
       Center         ----  Spin Dipole Couplings  ----
                      3XX-RR        3YY-RR        3ZZ-RR
 --------------------------------------------------------
     1   Atom       -0.600800      1.071711     -0.470911
     2   Atom        0.120434      0.038054     -0.158487
     3   Atom       -1.334547      2.420614     -1.086067
     4   Atom        0.007991      0.004299     -0.012290
     5   Atom        0.022270     -0.009023     -0.013248
 --------------------------------------------------------
                        XY            XZ            YZ
 --------------------------------------------------------
     1   Atom        0.166739      0.000000     -0.000000
     2   Atom       -0.086581      0.000000     -0.000000
     3   Atom       -0.067559      0.000000     -0.000000
     4   Atom       -0.009079      0.000000      0.000000
     5   Atom       -0.006439      0.000000      0.000000
 --------------------------------------------------------


 ---------------------------------------------------------------------------------
              Anisotropic Spin Dipole Couplings in Principal Axis System
 ---------------------------------------------------------------------------------

       Atom             a.u.   MegaHertz   Gauss  10(-4) cm-1        Axes

              Baa    -0.6173   -23.806    -8.495    -7.941  0.9952 -0.0982  0.0000
     1 N(14)  Bbb    -0.4709   -18.162    -6.481    -6.058  0.0000  0.0000  1.0000
              Bcc     1.0882    41.968    14.975    13.999  0.0982  0.9952 -0.0000
 
              Baa    -0.1585   -21.268    -7.589    -7.094  0.0000  0.0000  1.0000
     2 C(13)  Bbb    -0.0166    -2.232    -0.797    -0.745  0.5340  0.8455 -0.0000
              Bcc     0.1751    23.500     8.385     7.839  0.8455 -0.5340  0.0000
 
              Baa    -1.3358    96.655    34.489    32.241  0.9998  0.0180  0.0000
     3 O(17)  Bbb    -1.0861    78.587    28.042    26.214  0.0000  0.0000  1.0000
              Bcc     2.4218  -175.242   -62.531   -58.454 -0.0180  0.9998 -0.0000
 
              Baa    -0.0123    -6.558    -2.340    -2.187  0.0000  0.0000  1.0000
     4 H(1)   Bbb    -0.0031    -1.665    -0.594    -0.555  0.6328  0.7744 -0.0000
              Bcc     0.0154     8.222     2.934     2.743  0.7744 -0.6328 -0.0000
 
              Baa    -0.0132    -7.068    -2.522    -2.358  0.0000  0.0000  1.0000
     5 H(1)   Bbb    -0.0103    -5.493    -1.960    -1.832  0.1940  0.9810 -0.0000
              Bcc     0.0235    12.562     4.482     4.190  0.9810 -0.1940 -0.0000
 

 ---------------------------------------------------------------------------------

 1\1\GINC-GAMBA\FOpt\UB3LYP\Gen\C1H2N1O1(2)\IRIKURA\17-Jun-2022\0\\# b3
 lyp/gen opt freq\\nitrosomethyl, B3LYP/pcseg-2\\0,2\N,-0.0101544464,0.
 3291006121,0.\C,-1.1947420154,-0.1405913915,0.\O,1.1120694764,-0.14308
 52393,0.\H,-1.3647138001,-1.2118906051,0.\H,-2.0115652145,0.5619436237
 ,0.\\Version=ES64L-G16RevB.01\State=2-A'\HF=-169.2541339\S2=0.75885\S2
 -1=0.\S2A=0.750049\RMSD=2.805e-09\RMSF=2.105e-04\Dipole=-0.8865547,-0.
 1231238,0.\Quadrupole=0.1140227,0.5906866,-0.7047093,0.2119621,0.,0.\P
 G=CS [SG(C1H2N1O1)]\\@


 NO MATTER HOW THIN YOU SLICE IT, IT'S STILL BALONEY

                                   -- ALFRED E. SMITH
 Job cpu time:       0 days  0 hours  2 minutes 10.6 seconds.
 Elapsed time:       0 days  0 hours  0 minutes 11.6 seconds.
 File lengths (MBytes):  RWF=     15 Int=      0 D2E=      0 Chk=      2 Scr=      1
 Normal termination of Gaussian 16 at Fri Jun 17 17:47:25 2022.
 Link1:  Proceeding to internal job step number  2.
 ------------------------------------------------------------------
 #N Geom=AllCheck Guess=TCheck SCRF=Check GenChk UB3LYP/ChkBas Freq
 ------------------------------------------------------------------
 1/10=4,29=7,30=1,38=1,40=1/1,3;
 2/12=2,40=1/2;
 3/5=7,6=2,11=2,14=-4,25=1,30=1,67=1,70=2,71=2,74=-5,82=7,116=2,140=1/1,2,3;
 4/5=101/1;
 5/5=2,38=6,98=1/2;
 8/6=4,10=90,11=11/1;
 11/6=1,8=1,9=11,15=111,16=1/1,2,10;
 10/6=1/2;
 6/7=2,8=2,9=2,10=2,28=1/1;
 7/8=1,10=1,25=1/1,2,3,16;
 1/10=4,30=1/3;
 99//99;
 Structure from the checkpoint file:  "/wrk/irikura/Gau-8879.chk"
 ----------------------------
 nitrosomethyl, B3LYP/pcseg-2
 ----------------------------
 Charge =  0 Multiplicity = 2
 Redundant internal coordinates found in file.  (old form).
 N,0,-0.0101544464,0.3291006121,0.
 C,0,-1.1947420154,-0.1405913915,0.
 O,0,1.1120694764,-0.1430852393,0.
 H,0,-1.3647138001,-1.2118906051,0.
 H,0,-2.0115652145,0.5619436237,0.
 Recover connectivity data from disk.

 GradGradGradGradGradGradGradGradGradGradGradGradGradGradGradGradGradGrad
 Berny optimization.
 Initialization pass.
                           ----------------------------
                           !    Initial Parameters    !
                           ! (Angstroms and Degrees)  !
 --------------------------                            --------------------------
 ! Name  Definition              Value          Derivative Info.                !
 --------------------------------------------------------------------------------
 ! R1    R(1,2)                  1.2743         calculate D2E/DX2 analytically  !
 ! R2    R(1,3)                  1.2175         calculate D2E/DX2 analytically  !
 ! R3    R(2,4)                  1.0847         calculate D2E/DX2 analytically  !
 ! R4    R(2,5)                  1.0774         calculate D2E/DX2 analytically  !
 ! A1    A(2,1,3)              135.5522         calculate D2E/DX2 analytically  !
 ! A2    A(1,2,4)              120.6438         calculate D2E/DX2 analytically  !
 ! A3    A(1,2,5)              117.6733         calculate D2E/DX2 analytically  !
 ! A4    A(4,2,5)              121.6829         calculate D2E/DX2 analytically  !
 ! D1    D(3,1,2,4)              0.0            calculate D2E/DX2 analytically  !
 ! D2    D(3,1,2,5)            180.0            calculate D2E/DX2 analytically  !
 ! D3    D(1,2,4,5)            180.0            calculate D2E/DX2 analytically  !
 --------------------------------------------------------------------------------
 Trust Radius=3.00D-01 FncErr=1.00D-07 GrdErr=1.00D-07 EigMax=2.50D+02 EigMin=1.00D-04
 Number of steps in this run=      2 maximum allowed number of steps=      2.
 GradGradGradGradGradGradGradGradGradGradGradGradGradGradGradGradGradGrad

                          Input orientation:                          
 ---------------------------------------------------------------------
 Center     Atomic      Atomic             Coordinates (Angstroms)
 Number     Number       Type             X           Y           Z
 ---------------------------------------------------------------------
      1          7           0       -0.010154    0.329101   -0.000000
      2          6           0       -1.194742   -0.140591   -0.000000
      3          8           0        1.112069   -0.143085    0.000000
      4          1           0       -1.364714   -1.211891   -0.000000
      5          1           0       -2.011565    0.561944   -0.000000
 ---------------------------------------------------------------------
                    Distance matrix (angstroms):
                    1          2          3          4          5
     1  N    0.000000
     2  C    1.274307   0.000000
     3  O    1.217516   2.306813   0.000000
     4  H    2.051703   1.084699   2.697555   0.000000
     5  H    2.014910   1.077384   3.202212   1.888096   0.000000
 Stoichiometry    CH2NO(2)
 Framework group  CS[SG(CH2NO)]
 Deg. of freedom     7
 Full point group                 CS      NOp   2
 Largest Abelian subgroup         CS      NOp   2
 Largest concise Abelian subgroup C1      NOp   1
                         Standard orientation:                         
 ---------------------------------------------------------------------
 Center     Atomic      Atomic             Coordinates (Angstroms)
 Number     Number       Type             X           Y           Z
 ---------------------------------------------------------------------
      1          7           0        0.000000    0.349661    0.000000
      2          6           0        1.077428   -0.330785    0.000000
      3          8           0       -1.190139    0.092921    0.000000
      4          1           0        1.046564   -1.415045    0.000000
      5          1           0        2.009977    0.208759    0.000000
 ---------------------------------------------------------------------
 Rotational constants (GHZ):         130.2642090          11.7896944          10.8112145
 Basis read from chk: "/wrk/irikura/Gau-8879.chk" (5D, 7F)
 There are    94 symmetry adapted cartesian basis functions of A'  symmetry.
 There are    41 symmetry adapted cartesian basis functions of A"  symmetry.
 There are    80 symmetry adapted basis functions of A'  symmetry.
 There are    38 symmetry adapted basis functions of A"  symmetry.
   118 basis functions,   189 primitive gaussians,   135 cartesian basis functions
    12 alpha electrons       11 beta electrons
       nuclear repulsion energy        65.4815994747 Hartrees.
 NAtoms=    5 NActive=    5 NUniq=    5 SFac= 1.00D+00 NAtFMM=   60 NAOKFM=F Big=F
 Integral buffers will be    131072 words long.
 Raffenetti 2 integral format.
 Two-electron integral symmetry is turned on.
 One-electron integrals computed using PRISM.
 NBasis=   118 RedAO= T EigKep=  1.00D-03  NBF=    80    38
 NBsUse=   118 1.00D-06 EigRej= -1.00D+00 NBFU=    80    38
 Initial guess from the checkpoint file:  "/wrk/irikura/Gau-8879.chk"
 B after Tr=     0.000000   -0.000000   -0.000000
         Rot=    1.000000   -0.000000    0.000000    0.000000 Ang=   0.00 deg.
 Initial guess orbital symmetries:
 Alpha Orbitals:
       Occupied  (A') (A') (A') (A') (A') (A') (A') (A') (A") (A')
                 (A") (A')
       Virtual   (A") (A') (A') (A') (A') (A") (A') (A') (A') (A')
                 (A") (A') (A') (A') (A") (A') (A') (A') (A") (A')
                 (A") (A') (A') (A') (A') (A") (A') (A") (A') (A")
                 (A') (A") (A') (A') (A") (A') (A') (A") (A') (A')
                 (A") (A') (A') (A") (A') (A') (A') (A') (A") (A')
                 (A') (A') (A") (A") (A') (A') (A") (A') (A") (A')
                 (A') (A') (A") (A') (A") (A") (A') (A") (A') (A")
                 (A') (A") (A') (A') (A') (A") (A') (A") (A') (A")
                 (A') (A') (A") (A') (A") (A') (A') (A") (A') (A')
                 (A") (A") (A') (A') (A") (A') (A') (A') (A") (A')
                 (A") (A') (A') (A') (A') (A')
 Beta  Orbitals:
       Occupied  (A') (A') (A') (A') (A') (A') (A') (A') (A") (A')
                 (A")
       Virtual   (A') (A") (A') (A') (A') (A') (A") (A') (A') (A')
                 (A') (A") (A') (A') (A") (A') (A') (A') (A') (A")
                 (A') (A") (A') (A') (A') (A') (A") (A') (A") (A')
                 (A") (A') (A") (A') (A') (A") (A') (A') (A") (A')
                 (A') (A") (A') (A') (A") (A') (A') (A') (A') (A")
                 (A') (A') (A') (A") (A") (A') (A') (A") (A') (A")
                 (A') (A') (A') (A") (A') (A") (A") (A') (A") (A')
                 (A") (A') (A") (A') (A') (A') (A") (A') (A") (A')
[...]
       Center         ----  Spin Dipole Couplings  ----
                      3XX-RR        3YY-RR        3ZZ-RR
 --------------------------------------------------------
     1   Atom       -0.600800      1.071711     -0.470911
     2   Atom        0.120434      0.038054     -0.158487
     3   Atom       -1.334547      2.420614     -1.086067
     4   Atom        0.007991      0.004299     -0.012290
     5   Atom        0.022270     -0.009023     -0.013248
 --------------------------------------------------------
                        XY            XZ            YZ
 --------------------------------------------------------
     1   Atom        0.166739      0.000000      0.000000
     2   Atom       -0.086581     -0.000000      0.000000
     3   Atom       -0.067559      0.000000     -0.000000
     4   Atom       -0.009079      0.000000     -0.000000
     5   Atom       -0.006439      0.000000      0.000000
 --------------------------------------------------------


 ---------------------------------------------------------------------------------
              Anisotropic Spin Dipole Couplings in Principal Axis System
 ---------------------------------------------------------------------------------

       Atom             a.u.   MegaHertz   Gauss  10(-4) cm-1        Axes

              Baa    -0.6173   -23.806    -8.495    -7.941  0.9952 -0.0982  0.0000
     1 N(14)  Bbb    -0.4709   -18.162    -6.481    -6.058  0.0000  0.0000  1.0000
              Bcc     1.0882    41.968    14.975    13.999  0.0982  0.9952 -0.0000
 
              Baa    -0.1585   -21.267    -7.589    -7.094  0.0000  0.0000  1.0000
     2 C(13)  Bbb    -0.0166    -2.232    -0.797    -0.745  0.5340  0.8455  0.0000
              Bcc     0.1751    23.500     8.385     7.839  0.8455 -0.5340  0.0000
 
              Baa    -1.3358    96.655    34.489    32.241  0.9998  0.0180  0.0000
     3 O(17)  Bbb    -1.0861    78.587    28.042    26.214  0.0000  0.0000  1.0000
              Bcc     2.4218  -175.242   -62.531   -58.454 -0.0180  0.9998 -0.0000
 
              Baa    -0.0123    -6.558    -2.340    -2.187  0.0000  0.0000  1.0000
     4 H(1)   Bbb    -0.0031    -1.665    -0.594    -0.555  0.6328  0.7744 -0.0000
              Bcc     0.0154     8.222     2.934     2.743  0.7744 -0.6328  0.0000
 
              Baa    -0.0132    -7.068    -2.522    -2.358  0.0000  0.0000  1.0000
     5 H(1)   Bbb    -0.0103    -5.493    -1.960    -1.832  0.1940  0.9810 -0.0000
              Bcc     0.0235    12.562     4.482     4.190  0.9810 -0.1940 -0.0000
 

 ---------------------------------------------------------------------------------

 Calling FoFJK, ICntrl=    100127 FMM=F ISym2X=1 I1Cent= 0 IOpClX= 1 NMat=1 NMatS=1 NMatT=0.
 Full mass-weighted force constant matrix:
 Low frequencies ---   -0.0012   -0.0011   -0.0009    3.1234    8.4617   21.9362
 Low frequencies ---  460.6763  693.5174  831.3874
 Diagonal vibrational polarizability:
        2.7251936       0.6232107       2.4521580
 Harmonic frequencies (cm**-1), IR intensities (KM/Mole), Raman scattering
 activities (A**4/AMU), depolarization ratios for plane and unpolarized
 incident light, reduced masses (AMU), force constants (mDyne/A),
 and normal coordinates:
                      1                      2                      3
                     A'                     A"                     A"
 Frequencies --    460.6759               693.5158               831.3870
 Red. masses --      3.5435                 1.6202                 1.2938
 Frc consts  --      0.4431                 0.4591                 0.5269
 IR Inten    --      2.7762                 0.1596                62.7534
  Atom  AN      X      Y      Z        X      Y      Z        X      Y      Z
     1   7     0.05   0.31   0.00     0.00   0.00  -0.18    -0.00  -0.00   0.03
     2   6    -0.17  -0.05  -0.00     0.00   0.00   0.07    -0.00   0.00  -0.16
     3   8     0.13  -0.20  -0.00    -0.00  -0.00   0.10     0.00   0.00   0.01
     4   1    -0.74  -0.03   0.00    -0.00  -0.00  -0.60     0.00   0.00   0.65
     5   1     0.08  -0.50  -0.00     0.00  -0.00   0.77    -0.00   0.00   0.74
                      4                      5                      6
                     A'                     A'                     A'
 Frequencies --   1131.4577              1246.4787              1491.2649
 Red. masses --      1.4831                 3.3572                 1.2985
 Frc consts  --      1.1186                 3.0732                 1.7013
 IR Inten    --     23.0040                38.6795                 0.4660
  Atom  AN      X      Y      Z        X      Y      Z        X      Y      Z
     1   7     0.01   0.05  -0.00    -0.06  -0.23  -0.00     0.05   0.03   0.00
     2   6    -0.14  -0.10   0.00    -0.17   0.17   0.00     0.11  -0.07  -0.00
     3   8     0.09  -0.00   0.00     0.25   0.05   0.00    -0.06  -0.01  -0.00
     4   1     0.60  -0.11  -0.00    -0.82   0.19  -0.00    -0.65  -0.04   0.00
     5   1    -0.52   0.56   0.00    -0.24   0.23  -0.00    -0.32   0.67  -0.00
                      7                      8                      9
                     A'                     A'                     A'
 Frequencies --   1716.8765              3113.9455              3259.0917
 Red. masses --     12.1214                 1.0545                 1.1154
 Frc consts  --     21.0513                 6.0245                 6.9803
 IR Inten    --    200.4334                 2.0411                 0.6505
  Atom  AN      X      Y      Z        X      Y      Z        X      Y      Z
     1   7     0.72  -0.15  -0.00    -0.00  -0.00   0.00    -0.00  -0.00  -0.00
     2   6    -0.41   0.24  -0.00     0.03  -0.06  -0.00    -0.07  -0.07   0.00
     3   8    -0.32  -0.06   0.00    -0.00   0.00  -0.00     0.00   0.00   0.00
     4   1     0.05   0.25   0.00     0.03   0.89   0.00     0.01   0.42  -0.00
     5   1    -0.25  -0.02   0.00    -0.38  -0.23  -0.00     0.78   0.45   0.00

 -------------------
 - Thermochemistry -
 -------------------
 Temperature   298.150 Kelvin.  Pressure   1.00000 Atm.
 Atom     1 has atomic number  7 and mass  14.00307
 Atom     2 has atomic number  6 and mass  12.00000
 Atom     3 has atomic number  8 and mass  15.99491
 Atom     4 has atomic number  1 and mass   1.00783
 Atom     5 has atomic number  1 and mass   1.00783
 Molecular mass:    44.01364 amu.
 Principal axes and moments of inertia in atomic units:
                           1         2         3
     Eigenvalues --    13.85447 153.07786 166.93233
           X            0.98302   0.18351   0.00000
           Y           -0.18351   0.98302   0.00000
           Z           -0.00000   0.00000   1.00000
 This molecule is an asymmetric top.
 Rotational symmetry number  1.
 Rotational temperatures (Kelvin)      6.25170     0.56582     0.51886
 Rotational constants (GHZ):         130.26421    11.78969    10.81121
 Zero-point vibrational energy      83407.8 (Joules/Mol)
                                   19.93494 (Kcal/Mol)
 Warning -- explicit consideration of   1 degrees of freedom as
           vibrations may cause significant error
 Vibrational temperatures:    662.81   997.81  1196.18  1627.92  1793.40
          (Kelvin)           2145.60  2470.20  4480.27  4689.11
 
 Zero-point correction=                           0.031768 (Hartree/Particle)
 Thermal correction to Energy=                    0.035084
 Thermal correction to Enthalpy=                  0.036028
 Thermal correction to Gibbs Free Energy=         0.007276
 Sum of electronic and zero-point Energies=           -169.222366
 Sum of electronic and thermal Energies=              -169.219050
 Sum of electronic and thermal Enthalpies=            -169.218106
 Sum of electronic and thermal Free Energies=         -169.246858
 
                     E (Thermal)             CV                S
                      KCal/Mol        Cal/Mol-Kelvin    Cal/Mol-Kelvin
 Total                   22.015              9.283             60.515
 Electronic               0.000              0.000              1.377
 Translational            0.889              2.981             37.272
 Rotational               0.889              2.981             20.498
 Vibrational             20.238              3.322              1.367
 Vibration     1          0.818              1.337              0.764
                       Q            Log10(Q)             Ln(Q)
 Total Bot       0.450226D-03         -3.346570         -7.705762
 Total V=0       0.184435D+12         11.265844         25.940564
 Vib (Bot)       0.291205D-14        -14.535801        -33.469920
 Vib (Bot)    1  0.369007D+00         -0.432965         -0.996939
 Vib (V=0)       0.119292D+01          0.076612          0.176406
 Vib (V=0)    1  0.112142D+01          0.049769          0.114598
 Electronic      0.200000D+01          0.301030          0.693147
 Translational   0.114772D+08          7.059835         16.255870
 Rotational      0.673545D+04          3.828367          8.815141
 ***** Axes restored to original set *****
 -------------------------------------------------------------------
 Center     Atomic                   Forces (Hartrees/Bohr)
 Number     Number              X              Y              Z
 -------------------------------------------------------------------
      1        7           0.000445287   -0.000452810    0.000000000
      2        6          -0.000171020    0.000243902   -0.000000000
      3        8          -0.000293890    0.000265546   -0.000000000
      4        1           0.000082142   -0.000069190    0.000000000
      5        1          -0.000062518    0.000012552   -0.000000000
 -------------------------------------------------------------------
 Cartesian Forces:  Max     0.000452810 RMS     0.000210482
 FormGI is forming the generalized inverse of G from B-inverse, IUseBI=4.

 GradGradGradGradGradGradGradGradGradGradGradGradGradGradGradGradGradGrad
 Berny optimization.
 Internal  Forces:  Max     0.000373898 RMS     0.000158450
 Search for a local minimum.
 Step number   1 out of a maximum of    2
 All quantities printed in internal units (Hartrees-Bohrs-Radians)
 Second derivative matrix not updated -- analytic derivatives used.
 The second derivative matrix:
                          R1        R2        R3        R4        A1
           R1           0.65019
           R2           0.07411   0.66659
           R3           0.01523  -0.00212   0.34924
           R4           0.01472  -0.00612   0.00146   0.36867
           A1           0.05663   0.08196  -0.00972  -0.00177   0.17650
           A2           0.01076  -0.01241   0.00575  -0.01033  -0.00816
           A3           0.02372   0.00906  -0.01040   0.00628   0.00721
           A4          -0.03448   0.00335   0.00465   0.00405   0.00095
           D1          -0.00000  -0.00000  -0.00000   0.00000  -0.00000
           D2          -0.00000  -0.00000  -0.00000   0.00000  -0.00000
           D3          -0.00000   0.00000  -0.00000   0.00000  -0.00000
                          A2        A3        A4        D1        D2
           A2           0.08766
           A3          -0.05466   0.09182
           A4          -0.03299  -0.03716   0.07015
           D1           0.00000  -0.00000  -0.00000   0.01743
           D2           0.00000  -0.00000  -0.00000   0.01407   0.02350
           D3           0.00000  -0.00000  -0.00000  -0.00350   0.00981
                          D3
           D3           0.01386
 ITU=  0
     Eigenvalues ---    0.01844   0.03634   0.10079   0.14032   0.16138
     Eigenvalues ---    0.34993   0.36838   0.58833   0.75169
 Angle between quadratic step and forces=  28.39 degrees.
 Linear search not attempted -- first point.
 Iteration  1 RMS(Cart)=  0.00069186 RMS(Int)=  0.00000056
 Iteration  2 RMS(Cart)=  0.00000071 RMS(Int)=  0.00000000
 ClnCor:  largest displacement from symmetrization is 1.98D-12 for atom     2.
 Variable       Old X    -DE/DX   Delta X   Delta X   Delta X     New X
                                 (Linear)    (Quad)   (Total)
    R1        2.40809   0.00007   0.00000   0.00004   0.00004   2.40813
    R2        2.30077  -0.00037   0.00000  -0.00084  -0.00084   2.29993
    R3        2.04978   0.00006   0.00000   0.00024   0.00024   2.05002
    R4        2.03596   0.00006   0.00000   0.00010   0.00010   2.03606
    A1        2.36583   0.00030   0.00000   0.00202   0.00202   2.36785
    A2        2.10563  -0.00015   0.00000  -0.00106  -0.00106   2.10457
    A3        2.05379   0.00011   0.00000   0.00063   0.00063   2.05441
    A4        2.12377   0.00004   0.00000   0.00044   0.00044   2.12420
    D1        0.00000  -0.00000   0.00000  -0.00000   0.00000   0.00000
    D2        3.14159  -0.00000   0.00000   0.00000   0.00000   3.14159
    D3        3.14159   0.00000   0.00000   0.00000   0.00000   3.14159
         Item               Value     Threshold  Converged?
 Maximum Force            0.000374     0.000450     YES
 RMS     Force            0.000158     0.000300     YES
 Maximum Displacement     0.001715     0.001800     YES
 RMS     Displacement     0.000692     0.001200     YES
 Predicted change in Energy=-5.926803D-07
 Optimization completed.
    -- Stationary point found.
                           ----------------------------
                           !   Optimized Parameters   !
                           ! (Angstroms and Degrees)  !
 --------------------------                            --------------------------
 ! Name  Definition              Value          Derivative Info.                !
 --------------------------------------------------------------------------------
 ! R1    R(1,2)                  1.2743         -DE/DX =    0.0001              !
 ! R2    R(1,3)                  1.2175         -DE/DX =   -0.0004              !
 ! R3    R(2,4)                  1.0847         -DE/DX =    0.0001              !
 ! R4    R(2,5)                  1.0774         -DE/DX =    0.0001              !
 ! A1    A(2,1,3)              135.5522         -DE/DX =    0.0003              !
 ! A2    A(1,2,4)              120.6438         -DE/DX =   -0.0001              !
 ! A3    A(1,2,5)              117.6733         -DE/DX =    0.0001              !
 ! A4    A(4,2,5)              121.6829         -DE/DX =    0.0                 !
 ! D1    D(3,1,2,4)              0.0            -DE/DX =    0.0                 !
 ! D2    D(3,1,2,5)            180.0            -DE/DX =    0.0                 !
 ! D3    D(1,2,4,5)            180.0            -DE/DX =    0.0                 !
 --------------------------------------------------------------------------------
 GradGradGradGradGradGradGradGradGradGradGradGradGradGradGradGradGradGrad


 ----------------------------------------------------------------------

 Electric dipole moment (input orientation):
 (Debye = 10**-18 statcoulomb cm , SI units = C m)
                  (au)            (Debye)         (10**-30 SI)
   Tot        0.895063D+00      0.227502D+01      0.758866D+01
   x         -0.886555D+00     -0.225340D+01     -0.751652D+01
   y         -0.123124D+00     -0.312950D+00     -0.104389D+01
   z          0.000000D+00      0.000000D+00      0.000000D+00

 Dipole polarizability, Alpha (input orientation).
 (esu units = cm**3 , SI units = C**2 m**2 J**-1)
 Alpha(0;0):
               (au)            (10**-24 esu)      (10**-40 SI)
   iso        0.255020D+02      0.377900D+01      0.420471D+01
   aniso      0.232268D+02      0.344186D+01      0.382959D+01
   xx         0.407397D+02      0.603699D+01      0.671706D+01
   yx         0.404029D+00      0.598709D-01      0.666154D-01
   yy         0.202337D+02      0.299833D+01      0.333609D+01
   zx         0.000000D+00      0.000000D+00      0.000000D+00
   zy         0.000000D+00      0.000000D+00      0.000000D+00
   zz         0.155326D+02      0.230169D+01      0.256097D+01

 ----------------------------------------------------------------------

 Dipole orientation:
     7         -0.08509909          0.61275651         -0.06654255
     6         -0.00652276          0.04696720          2.27281878
     8          0.07660687         -0.55160825         -2.04433415
     1          0.26323473         -1.89542323          2.86944820
     1         -0.21661785          1.55975811          3.61909408

 Electric dipole moment (dipole orientation):
 (Debye = 10**-18 statcoulomb cm , SI units = C m)
                  (au)            (Debye)         (10**-30 SI)
   Tot        0.895063D+00      0.227502D+01      0.758866D+01
   x          0.000000D+00      0.000000D+00      0.000000D+00
   y          0.000000D+00      0.000000D+00      0.000000D+00
   z          0.895063D+00      0.227502D+01      0.758866D+01

 Dipole polarizability, Alpha (dipole orientation).
 (esu units = cm**3 , SI units = C**2 m**2 J**-1)
 Alpha(0;0):
               (au)            (10**-24 esu)      (10**-40 SI)
   iso        0.255020D+02      0.377900D+01      0.420471D+01
   aniso      0.232268D+02      0.344186D+01      0.382959D+01
   xx         0.156268D+02      0.231565D+01      0.257651D+01
   yx        -0.678407D+00     -0.100530D+00     -0.111854D+00
   yy         0.204174D+02      0.302555D+01      0.336638D+01
   zx        -0.330859D+00     -0.490283D-01     -0.545513D-01
   zy         0.238235D+01      0.353028D+00      0.392797D+00
   zz         0.404617D+02      0.599581D+01      0.667124D+01

 ----------------------------------------------------------------------
 1\1\GINC-GAMBA\Freq\UB3LYP\Gen\C1H2N1O1(2)\IRIKURA\17-Jun-2022\0\\#N G
 eom=AllCheck Guess=TCheck SCRF=Check GenChk UB3LYP/ChkBas Freq\\nitros
 omethyl, B3LYP/pcseg-2\\0,2\N,-0.0101544464,0.3291006121,0.\C,-1.19474
 20154,-0.1405913915,0.\O,1.1120694764,-0.1430852393,0.\H,-1.3647138001
 ,-1.2118906051,0.\H,-2.0115652145,0.5619436237,0.\\Version=ES64L-G16Re
 vB.01\State=2-A'\HF=-169.2541339\S2=0.75885\S2-1=0.\S2A=0.750049\RMSD=
 3.807e-10\RMSF=2.105e-04\ZeroPoint=0.0317683\Thermal=0.0350839\Dipole=
 -0.8865546,-0.1231239,0.\DipoleDeriv=1.3623832,0.2512722,0.,-0.066456,
 -0.3155299,0.,0.,0.,-0.0181203,-0.2486231,-0.0233714,0.,-0.3360939,0.3
 466936,0.,0.,0.,-0.2302998,-1.1830387,-0.2753063,0.,0.3695105,-0.01316
 93,0.,0.,0.,-0.1147935,0.0110784,0.0521869,0.,-0.0149282,-0.0313094,0.
 ,0.,0.,0.1759454,0.0582002,-0.0047814,0.,0.0479676,0.0133151,0.,0.,0.,
 0.1872683\Polar=40.7396611,0.4040288,20.2337318,0.,0.,15.5325632\Quadr
 upole=0.1140227,0.5906866,-0.7047093,0.2119622,0.,0.\PG=CS [SG(C1H2N1O
 1)]\NImag=0\\1.00639341,-0.00840292,0.27841097,0.,0.,0.07519194,-0.442
 53470,-0.14932197,0.,0.80977411,-0.16959913,-0.15915733,0.,0.02626565,
 0.66249092,0.,0.,-0.03800170,0.,0.,0.08064695,-0.50496278,0.18077077,0
 .,-0.10269271,0.02450110,0.,0.59687730,0.20136108,-0.11963530,0.,0.002
 06500,0.01221841,0.,-0.20136297,0.10321589,0.,0.,-0.04289257,0.,0.,0.0
 0965131,0.,0.,0.02682490,-0.01930520,-0.03716372,0.,-0.05703676,-0.027
 26153,0.,0.00830137,-0.00070654,0.,0.06065742,-0.01090021,-0.01300861,
 0.,-0.03276760,-0.32240333,0.,0.00232149,0.00322393,0.,0.04627615,0.34
 181673,0.,0.,0.02209413,0.,0.,-0.03071263,0.,0.,-0.00877371,0.,0.,0.01
 272820,-0.03959073,0.01411784,0.,-0.20750993,0.14609391,0.,0.00247682,
 -0.00135657,0.,0.00738317,-0.00492982,0.,0.23724066,-0.01245881,0.0133
 9027,0.,0.15375892,-0.19314867,0.,-0.00623040,0.00097707,0.,0.01885565
 ,-0.00962872,0.,-0.15392536,0.18841006,0.,0.,-0.01639179,0.,0.,-0.0215
 8393,0.,0.,0.01519007,0.,0.,0.00466401,0.,0.,0.01812164\\-0.00044529,0
 .00045281,0.,0.00017102,-0.00024390,0.,0.00029389,-0.00026555,0.,-0.00
 008214,0.00006919,0.,0.00006252,-0.00001255,0.\\\@


 TIME GOES, YOU SAY?  AH NO!
 ALAS, TIME STAYS, WE GO.
    -- A. DOBSON (1840-1921)
 Job cpu time:       0 days  0 hours  4 minutes 14.1 seconds.
 Elapsed time:       0 days  0 hours  0 minutes 21.2 seconds.
 File lengths (MBytes):  RWF=     18 Int=      0 D2E=      0 Chk=      3 Scr=      1
 Normal termination of Gaussian 16 at Fri Jun 17 17:47:47 2022.
