 Entering Gaussian System, Link 0=g16
 AtFile(1): pcseg2.gbs
            -H     0
            S   4   1.00
                  0.754732D+02           0.427821D-02
                  0.113575D+02           0.328672D-01
                  0.260081D+01           0.159578D+00
                  0.735503D+00           0.500000D+00
            S   1   1.00
                  0.231761D+00           1.0000000
            S   1   1.00
                  0.741675D-01           1.0000000
            P   1   1.00
                  0.160000D+01           1.0000000
            P   1   1.00
                  0.450000D+00           1.0000000
            D   1   1.00
                  0.125000D+01           1.0000000
            ****
            -C     0
            S   7   1.00
                  0.731999D+04           0.695369D-03
                  0.109818D+04           0.537138D-02
                  0.250014D+03           0.274734D-01
                  0.707586D+02           0.105078D+00
                  0.228595D+02           0.291262D+00
                  0.803936D+01           0.500000D+00
                  0.289309D+01           0.362224D+00
            S   2   1.00
                  0.521640D+01          -0.957844D-01
                  0.556124D+00           0.500000D+00
            S   1   1.00
                  0.228813D+00           1.0000000
            S   1   1.00
                  0.936338D-01           1.0000000
            P   4   1.00
                  0.339855D+02           0.818395D-02
                  0.772957D+01           0.586921D-01
                  0.224954D+01           0.222514D+00
                  0.767681D+00           0.500000D+00
            P   1   1.00
                  0.263283D+00           1.0000000
            P   1   1.00
                  0.848744D-01           1.0000000
            D   1   1.00
                  0.140000D+01           1.0000000
            D   1   1.00
                  0.450000D+00           1.0000000
            F   1   1.00
                  0.950000D+00           1.0000000
            ****
            -O     0
            S   7   1.00
                  0.135887D+05           0.665492D-03
                  0.203847D+04           0.514222D-02
                  0.464041D+03           0.263472D-01
                  0.131339D+03           0.101500D+00
                  0.425340D+02           0.285877D+00
                  0.150429D+02           0.500000D+00
                  0.546616D+01           0.368211D+00
            S   2   1.00
                  0.100915D+02          -0.100084D+00
                  0.110429D+01           0.500000D+00
            S   1   1.00
                  0.448082D+00           1.0000000
            S   1   1.00
                  0.175325D+00           1.0000000
            P   4   1.00
                  0.608220D+02           0.908253D-02
                  0.140332D+02           0.645878D-01
                  0.418244D+01           0.241502D+00
                  0.142490D+01           0.500000D+00
            P   1   1.00
                  0.478741D+00           1.0000000
            P   1   1.00
                  0.146257D+00           1.0000000
            D   1   1.00
                  0.220000D+01           1.0000000
            D   1   1.00
                  0.650000D+00           1.0000000
            F   1   1.00
                  0.110000D+01           1.0000000
            ****
            -N     0
            S   7   1.00
                  0.101643D+05           0.682757D-03
                  0.152481D+04           0.527488D-02
                  0.347119D+03           0.270037D-01
                  0.982389D+02           0.103673D+00
                  0.317799D+02           0.289575D+00
                  0.112240D+02           0.500000D+00
                  0.406611D+01           0.364621D+00
            S   2   1.00
                  0.747898D+01          -0.975681D-01
                  0.805040D+00           0.500000D+00
            S   1   1.00
                  0.324626D+00           1.0000000
            S   1   1.00
                  0.128132D+00           1.0000000
            P   4   1.00
                  0.482704D+02           0.829547D-02
                  0.110815D+02           0.596223D-01
                  0.326643D+01           0.227889D+00
                  0.111680D+01           0.500000D+00
            P   1   1.00
                  0.382049D+00           1.0000000
            P   1   1.00
                  0.121222D+00           1.0000000
            D   1   1.00
                  0.180000D+01           1.0000000
            D   1   1.00
                  0.550000D+00           1.0000000
            F   1   1.00
                  0.102000D+01           1.0000000
            ****
            -F     0
            S   7   1.00
                  0.174507D+05           0.655972D-03
                  0.261768D+04           0.506944D-02
                  0.595857D+03           0.259899D-01
                  0.168651D+03           0.100353D+00
                  0.546654D+02           0.284095D+00
                  0.193717D+02           0.500000D+00
                  0.706202D+01           0.370721D+00
            S   2   1.00
                  0.131197D+02          -0.101997D+00
                  0.145046D+01           0.500000D+00
            S   1   1.00
                  0.588255D+00           1.0000000
            S   1   1.00
                  0.227960D+00           1.0000000
            P   4   1.00
                  0.779407D+02           0.931135D-02
                  0.180425D+02           0.663964D-01
                  0.542342D+01           0.246386D+00
                  0.184876D+01           0.500000D+00
            P   1   1.00
                  0.617455D+00           1.0000000
            P   1   1.00
                  0.185496D+00           1.0000000
            D   1   1.00
                  0.280000D+01           1.0000000
            D   1   1.00
                  0.800000D+00           1.0000000
            F   1   1.00
                  0.120000D+01           1.0000000
            ****
            -Cl     0
            S   8   1.00
                  0.154272D+06           0.222473D-03
                  0.231232D+05           0.172590D-02
                  0.526257D+04           0.899286D-02
                  0.148995D+04           0.367724D-01
                  0.485417D+03           0.121446D+00
                  0.174634D+03           0.304148D+00
                  0.672393D+02           0.500000D+00
                  0.265780D+02           0.360252D+00
            S   3   1.00
                  0.131826D+03          -0.531330D-01
                  0.400703D+02          -0.233346D+00
                  0.789448D+01           0.500000D+00
            S   2   1.00
                  0.427711D+01           0.500000D+00
                  0.196233D+01           0.370517D+00
            S   1   1.00
                  0.520793D+00           1.0000000
            S   1   1.00
                  0.181633D+00           1.0000000
            P   7   1.00
                  0.124440D+04           0.988206D-03
                  0.295109D+03           0.829674D-02
                  0.947224D+02           0.430906D-01
                  0.352588D+02           0.148443D+00
                  0.144211D+02           0.344744D+00
                  0.610371D+01           0.500000D+00
                  0.258886D+01           0.348278D+00
            P   2   1.00
                  0.109447D+02          -0.196768D-01
                  0.104413D+01           0.500000D+00
            P   1   1.00
                  0.376184D+00           1.0000000
            P   1   1.00
                  0.120613D+00           1.0000000
            D   1   1.00
                  0.231000D+01           1.0000000
            D   1   1.00
                  0.520000D+00           1.0000000
            F   1   1.00
                  0.720000D+00           1.0000000
            ****
            -S     0
            S   8   1.00
                  0.134700D+06           0.226231D-03
                  0.201904D+05           0.175488D-02
                  0.459528D+04           0.914190D-02
                  0.130109D+04           0.373551D-01
                  0.423902D+03           0.123121D+00
                  0.152485D+03           0.306801D+00
                  0.586925D+02           0.500000D+00
                  0.231461D+02           0.354358D+00
            S   3   1.00
                  0.116327D+03          -0.491772D-01
                  0.352841D+02          -0.215962D+00
                  0.677831D+01           0.500000D+00
            S   2   1.00
                  0.360404D+01           0.500000D+00
                  0.164871D+01           0.366278D+00
            S   1   1.00
                  0.421821D+00           1.0000000
            S   1   1.00
                  0.147554D+00           1.0000000
            P   7   1.00
                  0.104863D+04           0.105273D-02
                  0.248717D+03           0.879338D-02
                  0.797887D+02           0.453358D-01
                  0.296023D+02           0.154476D+00
                  0.120627D+02           0.352366D+00
                  0.507628D+01           0.500000D+00
                  0.213375D+01           0.346429D+00
            P   2   1.00
                  0.928958D+01          -0.185932D-01
                  0.837819D+00           0.500000D+00
            P   1   1.00
                  0.301495D+00           1.0000000
            P   1   1.00
                  0.974740D-01           1.0000000
            D   1   1.00
                  0.210000D+01           1.0000000
            D   1   1.00
                  0.480000D+00           1.0000000
            F   1   1.00
                  0.660000D+00           1.0000000
            ****
            -Br     0
            S    10   1.00
                  0.233625D+07           0.532336D-04
                  0.349961D+06           0.413715D-03
                  0.796444D+05           0.217123D-02
                  0.225555D+05           0.910109D-02
                  0.735546D+04           0.323789D-01
                  0.265352D+04           0.988755D-01
                  0.103517D+04           0.248138D+00
                  0.422205D+03           0.474328D+00
                  0.180035D+03           0.500000D+00
                  0.793308D+02           0.187769D+00
            S    4   1.00
                  0.620834D+03          -0.226511D-01
                  0.190829D+03          -0.109497D+00
                  0.312505D+02           0.500000D+00
                  0.135270D+02           0.492812D+00
            S    2   1.00
                  0.216097D+02          -0.165418D+00
                  0.372566D+01           0.500000D+00
            S    1   1.00
                  0.169770D+01           1.0000000
            S    1   1.00
                  0.489332D+00           1.0000000
            S    1   1.00
                  0.175712D+00           1.0000000
            P    8   1.00
                  0.960829D+04           0.478974D-03
                  0.227618D+04           0.417853D-02
                  0.736723D+03           0.229315D-01
                  0.281579D+03           0.892653D-01
                  0.118395D+03           0.255288D+00
                  0.527481D+02           0.479074D+00
                  0.245098D+02           0.500000D+00
                  0.112009D+02           0.200944D+00
            P    4   1.00
                  0.587849D+02          -0.189674D-01
                  0.918962D+01           0.264104D+00
                  0.413895D+01           0.500000D+00
                  0.184225D+01           0.319316D+00
            P    1   1.00
                  0.713862D+00           1.0000000
            P    1   1.00
                  0.274232D+00           1.0000000
            P    1   1.00
                  0.944411D-01           1.0000000
            D    7   1.00
                  0.398470D+03           0.204066D-02
                  0.118967D+03           0.175171D-01
                  0.450197D+02           0.829708D-01
                  0.190320D+02           0.236284D+00
                  0.855686D+01           0.428468D+00
                  0.382950D+01           0.500000D+00
                  0.166291D+01           0.349360D+00
            D    1   1.00
                  0.672953D+00           1.0000000
            D    1   1.00
                  0.252000D+00           1.0000000
            F    1   1.00
                  0.530000D+00           1.0000000
            ****
            -Si     0
            S    8   1.00
                  0.996133D+05           0.235546D-03
                  0.149311D+05           0.182707D-02
                  0.339820D+04           0.951425D-02
                  0.962140D+03           0.388172D-01
                  0.313430D+03           0.127328D+00
                  0.112683D+03           0.313522D+00
                  0.433372D+02           0.500000D+00
                  0.170029D+02           0.340347D+00
            S    3   1.00
                  0.884208D+02          -0.404451D-01
                  0.266756D+02          -0.178059D+00
                  0.479640D+01           0.500000D+00
            S    2   1.00
                  0.239385D+01           0.500000D+00
                  0.108333D+01           0.338016D+00
            S    1   1.00
                  0.252420D+00           1.0000000
            S    1   1.00
                  0.891210D-01           1.0000000
            P    7   1.00
                  0.709901D+03           0.123028D-02
                  0.168426D+03           0.101366D-01
                  0.539946D+02           0.511840D-01
                  0.198646D+02           0.169967D+00
                  0.801369D+01           0.370717D+00
                  0.331870D+01           0.500000D+00
                  0.136112D+01           0.344128D+00
            P    2   1.00
                  0.622158D+01          -0.166609D-01
                  0.503049D+00           0.500000D+00
            P    1   1.00
                  0.179848D+00           1.0000000
            P    1   1.00
                  0.591912D-01           1.0000000
            D    1   1.00
                  0.168000D+01           1.0000000
            D    1   1.00
                  0.380000D+00           1.0000000
            F    1   1.00
                  0.540000D+00           1.0000000
            ****
            -P     0
            S    8   1.00
                  0.116416D+06           0.230715D-03
                  0.174500D+05           0.178960D-02
                  0.397149D+04           0.932116D-02
                  0.112447D+04           0.380591D-01
                  0.366347D+03           0.125148D+00
                  0.131757D+03           0.310022D+00
                  0.506988D+02           0.500000D+00
                  0.199436D+02           0.347528D+00
            S    3   1.00
                  0.101878D+03          -0.446755D-01
                  0.308249D+02          -0.196376D+00
                  0.573688D+01           0.500000D+00
            S    2   1.00
                  0.296868D+01           0.500000D+00
                  0.135315D+01           0.355098D+00
            S    1   1.00
                  0.332196D+00           1.0000000
            S    1   1.00
                  0.116229D+00           1.0000000
            P    7   1.00
                  0.873928D+03           0.112375D-02
                  0.207298D+03           0.933330D-02
                  0.664628D+02           0.477213D-01
                  0.245665D+02           0.160733D+00
                  0.996820D+01           0.359760D+00
                  0.416536D+01           0.500000D+00
                  0.173022D+01           0.346593D+00
            P    2   1.00
                  0.772530D+01          -0.175718D-01
                  0.657252D+00           0.500000D+00
            P    1   1.00
                  0.239903D+00           1.0000000
            P    1   1.00
                  0.800988D-01           1.0000000
            D    1   1.00
                  0.189000D+01           1.0000000
            D    1   1.00
                  0.430000D+00           1.0000000
            F    1   1.00
                  0.600000D+00           1.0000000
            ****
            
 Initial command:
 /usr/local/apps/g16_b01_avx/g16/l1.exe "/wrk/irikura/Gau-399971.inp" -scrdir="/wrk/irikura/"
 Entering Link 1 = /usr/local/apps/g16_b01_avx/g16/l1.exe PID=    399973.
  
 Copyright (c) 1988-2017, Gaussian, Inc.  All Rights Reserved.
  
 This is part of the Gaussian(R) 16 program.  It is based on
 the Gaussian(R) 09 system (copyright 2009, Gaussian, Inc.),
 the Gaussian(R) 03 system (copyright 2003, Gaussian, Inc.),
 the Gaussian(R) 98 system (copyright 1998, Gaussian, Inc.),
 the Gaussian(R) 94 system (copyright 1995, Gaussian, Inc.),
 the Gaussian 92(TM) system (copyright 1992, Gaussian, Inc.),
 the Gaussian 90(TM) system (copyright 1990, Gaussian, Inc.),
 the Gaussian 88(TM) system (copyright 1988, Gaussian, Inc.),
 the Gaussian 86(TM) system (copyright 1986, Carnegie Mellon
 University), and the Gaussian 82(TM) system (copyright 1983,
 Carnegie Mellon University). Gaussian is a federally registered
 trademark of Gaussian, Inc.
  
 This software contains proprietary and confidential information,
 including trade secrets, belonging to Gaussian, Inc.
  
 This software is provided under written license and may be
 used, copied, transmitted, or stored only in accord with that
 written license.
  
 The following legend is applicable only to US Government
 contracts under FAR:
  
                    RESTRICTED RIGHTS LEGEND
  
 Use, reproduction and disclosure by the US Government is
 subject to restrictions as set forth in subparagraphs (a)
 and (c) of the Commercial Computer Software - Restricted
 Rights clause in FAR 52.227-19.
  
 Gaussian, Inc.
 340 Quinnipiac St., Bldg. 40, Wallingford CT 06492
  
  
 ---------------------------------------------------------------
 Warning -- This program may not be used in any manner that
 competes with the business of Gaussian, Inc. or will provide
 assistance to any competitor of Gaussian, Inc.  The licensee
 of this program is prohibited from giving any competitor of
 Gaussian, Inc. access to this program.  By using this program,
 the user acknowledges that Gaussian, Inc. is engaged in the
 business of creating and licensing software in the field of
 computational chemistry and represents and warrants to the
 licensee that it is not a competitor of Gaussian, Inc. and that
 it will not use this program in any manner prohibited above.
 ---------------------------------------------------------------
  

 Cite this work as:
 Gaussian 16, Revision B.01,
 M. J. Frisch, G. W. Trucks, H. B. Schlegel, G. E. Scuseria, 
 M. A. Robb, J. R. Cheeseman, G. Scalmani, V. Barone, 
 G. A. Petersson, H. Nakatsuji, X. Li, M. Caricato, A. V. Marenich, 
 J. Bloino, B. G. Janesko, R. Gomperts, B. Mennucci, H. P. Hratchian, 
 J. V. Ortiz, A. F. Izmaylov, J. L. Sonnenberg, D. Williams-Young, 
 F. Ding, F. Lipparini, F. Egidi, J. Goings, B. Peng, A. Petrone, 
 T. Henderson, D. Ranasinghe, V. G. Zakrzewski, J. Gao, N. Rega, 
 G. Zheng, W. Liang, M. Hada, M. Ehara, K. Toyota, R. Fukuda, 
 J. Hasegawa, M. Ishida, T. Nakajima, Y. Honda, O. Kitao, H. Nakai, 
 T. Vreven, K. Throssell, J. A. Montgomery, Jr., J. E. Peralta, 
 F. Ogliaro, M. J. Bearpark, J. J. Heyd, E. N. Brothers, K. N. Kudin, 
 V. N. Staroverov, T. A. Keith, R. Kobayashi, J. Normand, 
 K. Raghavachari, A. P. Rendell, J. C. Burant, S. S. Iyengar, 
 J. Tomasi, M. Cossi, J. M. Millam, M. Klene, C. Adamo, R. Cammi, 
 J. W. Ochterski, R. L. Martin, K. Morokuma, O. Farkas, 
 J. B. Foresman, and D. J. Fox, Gaussian, Inc., Wallingford CT, 2016.
 
 ******************************************
 Gaussian 16:  ES64L-G16RevB.01 20-Dec-2017
                29-Sep-2023 
 ******************************************
 %chk=ch2oh.chk
 %mem=500mw
 %nprocs=4
 Will use up to    4 processors via shared memory.
 ---------------------------------------
 # b3lyp/gen opt freq CPHF(Grid=OneStep)
 ---------------------------------------
 1/18=20,19=15,26=3,38=1/1,3;
 2/9=110,12=2,17=6,18=5,40=1/2;
 3/5=7,11=2,25=1,30=1,71=1,74=-5/1,2,3;
 4//1;
 5/5=2,38=5/2;
 6/7=2,8=2,9=2,10=2,28=1/1;
 7//1,2,3,16;
 1/18=20,19=15,26=3/3(2);
 2/9=110/2;
 99//99;
 2/9=110/2;
 3/5=7,6=1,11=2,25=1,30=1,71=1,74=-5,82=7/1,2,3;
 4/5=5,16=3,69=1/1;
 5/5=2,38=5/2;
 7//1,2,3,16;
 1/18=20,19=15,26=3/3(-5);
 2/9=110/2;
 6/7=2,8=2,9=2,10=2,19=2,28=1/1;
 99/9=1/99;
 ----------------------------
 hydroxymethyl, B3LYP/pcseg-2
 ----------------------------
 Symbolic Z-matrix:
 Charge =  0 Multiplicity = 2
 C                    -0.68419   0.02758  -0.05785 
 O                     0.66949  -0.12555   0.01994 
 H                    -1.23587  -0.88541   0.09144 
 H                    -1.11697   0.99543   0.15195 
 H                     1.10208   0.72886  -0.05583 
 

 GradGradGradGradGradGradGradGradGradGradGradGradGradGradGradGradGradGrad
 Berny optimization.
 Initialization pass.
                           ----------------------------
                           !    Initial Parameters    !
                           ! (Angstroms and Degrees)  !
 --------------------------                            --------------------------
 ! Name  Definition              Value          Derivative Info.                !
 --------------------------------------------------------------------------------
 ! R1    R(1,2)                  1.3645         estimate D2E/DX2                !
 ! R2    R(1,3)                  1.0771         estimate D2E/DX2                !
 ! R3    R(1,4)                  1.0808         estimate D2E/DX2                !
 ! R4    R(2,5)                  0.9607         estimate D2E/DX2                !
 ! A1    A(2,1,3)              113.8964         estimate D2E/DX2                !
 ! A2    A(2,1,4)              119.1232         estimate D2E/DX2                !
 ! A3    A(3,1,4)              121.807          estimate D2E/DX2                !
 ! A4    A(1,2,5)              110.0243         estimate D2E/DX2                !
 ! D1    D(3,1,2,5)           -175.8176         estimate D2E/DX2                !
 ! D2    D(4,1,2,5)            -20.7583         estimate D2E/DX2                !
 ! D3    D(2,1,3,4)            154.3125         estimate D2E/DX2                !
 --------------------------------------------------------------------------------
 Trust Radius=3.00D-01 FncErr=1.00D-07 GrdErr=1.00D-06 EigMax=2.50D+02 EigMin=1.00D-04
 Number of steps in this run=     21 maximum allowed number of steps=    100.
 GradGradGradGradGradGradGradGradGradGradGradGradGradGradGradGradGradGrad

                          Input orientation:                          
 ---------------------------------------------------------------------
 Center     Atomic      Atomic             Coordinates (Angstroms)
 Number     Number       Type             X           Y           Z
 ---------------------------------------------------------------------
      1          6           0       -0.684188    0.027583   -0.057847
      2          8           0        0.669485   -0.125548    0.019940
      3          1           0       -1.235869   -0.885407    0.091443
      4          1           0       -1.116969    0.995427    0.151952
      5          1           0        1.102082    0.728861   -0.055829
 ---------------------------------------------------------------------
                    Distance matrix (angstroms):
                    1          2          3          4          5
     1  C    0.000000
     2  O    1.364526   0.000000
     3  H    1.077121   2.052528   0.000000
     4  H    1.080758   2.113156   1.885560   0.000000
     5  H    1.918999   0.960675   2.844919   2.244642   0.000000
 Stoichiometry    CH3O(2)
 Framework group  C1[X(CH3O)]
 Deg. of freedom     9
 Full point group                 C1      NOp   1
 Largest Abelian subgroup         C1      NOp   1
 Largest concise Abelian subgroup C1      NOp   1
                         Standard orientation:                         
 ---------------------------------------------------------------------
 Center     Atomic      Atomic             Coordinates (Angstroms)
 Number     Number       Type             X           Y           Z
 ---------------------------------------------------------------------
      1          6           0       -0.684188    0.027583   -0.057847
      2          8           0        0.669485   -0.125548    0.019940
      3          1           0       -1.235869   -0.885407    0.091443
      4          1           0       -1.116969    0.995427    0.151952
      5          1           0        1.102082    0.728861   -0.055829
 ---------------------------------------------------------------------
 Rotational constants (GHZ):         194.6112679          29.9446952          26.1470297
 General basis read from cards:  (5D, 7F)
 There are   115 symmetry adapted cartesian basis functions of A   symmetry.
 There are   102 symmetry adapted basis functions of A   symmetry.
   102 basis functions,   156 primitive gaussians,   115 cartesian basis functions
     9 alpha electrons        8 beta electrons
       nuclear repulsion energy        35.3300016163 Hartrees.
 NAtoms=    5 NActive=    5 NUniq=    5 SFac= 1.00D+00 NAtFMM=   60 NAOKFM=F Big=F
 Integral buffers will be    131072 words long.
 Raffenetti 2 integral format.
 Two-electron integral symmetry is turned on.
 One-electron integrals computed using PRISM.
 NBasis=   102 RedAO= T EigKep=  2.11D-03  NBF=   102
 NBsUse=   102 1.00D-06 EigRej= -1.00D+00 NBFU=   102
 ExpMin= 7.42D-02 ExpMax= 1.36D+04 ExpMxC= 4.64D+02 IAcc=3 IRadAn=         5 AccDes= 0.00D+00
 Harris functional with IExCor=  402 and IRadAn=       5 diagonalized for initial guess.
 HarFok:  IExCor=  402 AccDes= 0.00D+00 IRadAn=         5 IDoV= 1 UseB2=F ITyADJ=14
 ICtDFT=  3500011 ScaDFX=  1.000000  1.000000  1.000000  1.000000
 FoFCou: FMM=F IPFlag=           0 FMFlag=      100000 FMFlg1=           0
         NFxFlg=           0 DoJE=T BraDBF=F KetDBF=T FulRan=T
         wScrn=  0.000000 ICntrl=       500 IOpCl=  0 I1Cent=   200000004 NGrid=           0
         NMat0=    1 NMatS0=      1 NMatT0=    0 NMatD0=    1 NMtDS0=    0 NMtDT0=    0
 Petite list used in FoFCou.
 Initial guess <Sx>= 0.0000 <Sy>= 0.0000 <Sz>= 0.5000 <S**2>= 0.7500 S= 0.5000
 Keep R1 and R2 ints in memory in canonical form, NReq=31356359.
 Requested convergence on RMS density matrix=1.00D-08 within 128 cycles.
 Requested convergence on MAX density matrix=1.00D-06.
 Requested convergence on             energy=1.00D-06.
 No special actions if energy rises.
 Integral accuracy reduced to 1.0D-05 until final iterations.
 Initial convergence to 1.0D-05 achieved.  Increase integral accuracy.
 SCF Done:  E(UB3LYP) =  -115.116277638     A.U. after   13 cycles
            NFock= 13  Conv=0.68D-08     -V/T= 2.0034
 <Sx>= 0.0000 <Sy>= 0.0000 <Sz>= 0.5000 <S**2>= 0.7538 S= 0.5019
 <L.S>=  0.00000000000    
 Annihilation of the first spin contaminant:
 S**2 before annihilation     0.7538,   after     0.7500

 **********************************************************************

            Population analysis using the SCF Density.

 **********************************************************************

 Orbital symmetries:
 Alpha Orbitals:
       Occupied  (A) (A) (A) (A) (A) (A) (A) (A) (A)
       Virtual   (A) (A) (A) (A) (A) (A) (A) (A) (A) (A) (A) (A)
                 (A) (A) (A) (A) (A) (A) (A) (A) (A) (A) (A) (A)
                 (A) (A) (A) (A) (A) (A) (A) (A) (A) (A) (A) (A)
                 (A) (A) (A) (A) (A) (A) (A) (A) (A) (A) (A) (A)
                 (A) (A) (A) (A) (A) (A) (A) (A) (A) (A) (A) (A)
                 (A) (A) (A) (A) (A) (A) (A) (A) (A) (A) (A) (A)
                 (A) (A) (A) (A) (A) (A) (A) (A) (A) (A) (A) (A)
                 (A) (A) (A) (A) (A) (A) (A) (A) (A)
 Beta  Orbitals:
       Occupied  (A) (A) (A) (A) (A) (A) (A) (A)
       Virtual   (A) (A) (A) (A) (A) (A) (A) (A) (A) (A) (A) (A)
                 (A) (A) (A) (A) (A) (A) (A) (A) (A) (A) (A) (A)
                 (A) (A) (A) (A) (A) (A) (A) (A) (A) (A) (A) (A)
                 (A) (A) (A) (A) (A) (A) (A) (A) (A) (A) (A) (A)
                 (A) (A) (A) (A) (A) (A) (A) (A) (A) (A) (A) (A)
                 (A) (A) (A) (A) (A) (A) (A) (A) (A) (A) (A) (A)
                 (A) (A) (A) (A) (A) (A) (A) (A) (A) (A) (A) (A)
                 (A) (A) (A) (A) (A) (A) (A) (A) (A) (A)
 The electronic state is 2-A.
 Alpha  occ. eigenvalues --  -19.16473 -10.21990  -1.06667  -0.67985  -0.53856
 Alpha  occ. eigenvalues --   -0.46072  -0.40991  -0.36607  -0.18308
 Alpha virt. eigenvalues --    0.00291   0.04240   0.07811   0.13181   0.17114
 Alpha virt. eigenvalues --    0.21133   0.23771   0.28344   0.31377   0.33734
 Alpha virt. eigenvalues --    0.37205   0.38056   0.38763   0.45953   0.65518
 Alpha virt. eigenvalues --    0.69289   0.79804   0.84626   0.86717   0.95302
 Alpha virt. eigenvalues --    0.97550   0.98494   1.02533   1.09642   1.15325
 Alpha virt. eigenvalues --    1.24158   1.28203   1.29928   1.44796   1.48027
 Alpha virt. eigenvalues --    1.51998   1.67237   1.74072   1.80161   1.83420
 Alpha virt. eigenvalues --    1.89230   2.00145   2.04382   2.21259   2.32638
 Alpha virt. eigenvalues --    2.39008   2.48064   2.74527   3.17053   3.17963
 Alpha virt. eigenvalues --    3.30737   3.35840   3.42755   3.44808   3.56749
 Alpha virt. eigenvalues --    3.59573   3.63900   3.69688   3.73980   3.91394
 Alpha virt. eigenvalues --    3.93490   3.95450   4.06491   4.07036   4.11241
 Alpha virt. eigenvalues --    4.20137   4.25418   4.28583   4.32084   4.36185
 Alpha virt. eigenvalues --    4.42157   4.45471   4.47449   4.54655   4.59809
 Alpha virt. eigenvalues --    4.66291   4.76280   4.83859   4.99033   5.02549
 Alpha virt. eigenvalues --    5.13668   5.19982   5.31679   5.45455   5.47806
 Alpha virt. eigenvalues --    5.67869   5.72052   5.79030   5.89311   6.07499
 Alpha virt. eigenvalues --    6.21564   6.28781   6.44939   6.49309   6.52595
 Alpha virt. eigenvalues --    6.73673   7.04321   7.49673
  Beta  occ. eigenvalues --  -19.15896 -10.20631  -1.05443  -0.65472  -0.52801
  Beta  occ. eigenvalues --   -0.45219  -0.37182  -0.35463
  Beta virt. eigenvalues --   -0.04030   0.00424   0.04643   0.07941   0.13556
  Beta virt. eigenvalues --    0.19949   0.22171   0.24830   0.28656   0.32727
  Beta virt. eigenvalues --    0.34767   0.37783   0.38793   0.39532   0.46282
  Beta virt. eigenvalues --    0.66411   0.70115   0.80463   0.85382   0.88125
  Beta virt. eigenvalues --    0.95406   0.98123   0.99913   1.02856   1.11622
  Beta virt. eigenvalues --    1.17111   1.26734   1.31361   1.34200   1.45794
  Beta virt. eigenvalues --    1.48614   1.53584   1.68108   1.75298   1.81388
  Beta virt. eigenvalues --    1.84159   1.90940   2.00644   2.05881   2.21986
  Beta virt. eigenvalues --    2.34713   2.40481   2.49316   2.75138   3.18965
  Beta virt. eigenvalues --    3.19802   3.32599   3.36334   3.45864   3.46150
  Beta virt. eigenvalues --    3.57851   3.60631   3.65267   3.70917   3.76093
  Beta virt. eigenvalues --    3.92098   3.95414   3.96346   4.08566   4.10793
  Beta virt. eigenvalues --    4.14474   4.21122   4.27653   4.29232   4.33112
  Beta virt. eigenvalues --    4.37101   4.42761   4.45754   4.48435   4.55510
  Beta virt. eigenvalues --    4.60218   4.66594   4.77259   4.84297   5.00882
  Beta virt. eigenvalues --    5.03355   5.14994   5.20951   5.33123   5.46272
  Beta virt. eigenvalues --    5.48900   5.69729   5.72896   5.79771   5.90284
  Beta virt. eigenvalues --    6.08189   6.23049   6.29698   6.46635   6.50350
  Beta virt. eigenvalues --    6.53313   6.74378   7.04737   7.49984
          Condensed to atoms (all electrons):
               1          2          3          4          5
     1  C    4.946459   0.195340   0.425774   0.419481  -0.023936
     2  O    0.195340   7.877820  -0.039550  -0.039983   0.331612
     3  H    0.425774  -0.039550   0.597319  -0.047511   0.009895
     4  H    0.419481  -0.039983  -0.047511   0.653654  -0.017197
     5  H   -0.023936   0.331612   0.009895  -0.017197   0.496902
          Atomic-Atomic Spin Densities.
               1          2          3          4          5
     1  C    1.137816  -0.201739   0.005880  -0.001646  -0.003001
     2  O   -0.201739   0.320295  -0.000912  -0.000553   0.003090
     3  H    0.005880  -0.000912  -0.036174   0.003580  -0.000709
     4  H   -0.001646  -0.000553   0.003580  -0.026897   0.000438
     5  H   -0.003001   0.003090  -0.000709   0.000438  -0.003894
 Mulliken charges and spin densities:
               1          2
     1  C    0.036883   0.937308
     2  O   -0.325239   0.120181
     3  H    0.054075  -0.028336
     4  H    0.031556  -0.025078
     5  H    0.202724  -0.004076
 Sum of Mulliken charges =  -0.00000   1.00000
 Mulliken charges and spin densities with hydrogens summed into heavy atoms:
               1          2
     1  C    0.122514   0.883895
     2  O   -0.122514   0.116105
 Electronic spatial extent (au):  <R**2>=             73.9880
 Charge=             -0.0000 electrons
 Dipole moment (field-independent basis, Debye):
    X=              0.0413    Y=              1.5082    Z=              0.2310  Tot=              1.5264
 Quadrupole moment (field-independent basis, Debye-Ang):
   XX=            -11.8729   YY=            -11.1971   ZZ=            -14.5884
   XY=              2.1736   XZ=             -0.6033   YZ=             -0.0142
 Traceless Quadrupole moment (field-independent basis, Debye-Ang):
   XX=              0.6799   YY=              1.3557   ZZ=             -2.0356
   XY=              2.1736   XZ=             -0.6033   YZ=             -0.0142
 Octapole moment (field-independent basis, Debye-Ang**2):
  XXX=              5.2888  YYY=              1.1472  ZZZ=              0.7852  XYY=              1.3004
  XXY=              2.0983  XXZ=              0.4366  XZZ=              2.3558  YZZ=              0.0666
  YYZ=              0.3394  XYZ=             -0.1828
 Hexadecapole moment (field-independent basis, Debye-Ang**3):
 XXXX=            -56.1274 YYYY=            -20.1460 ZZZZ=            -17.2687 XXXY=              3.8693
 XXXZ=             -1.1256 YYYX=              2.2210 YYYZ=              0.0350 ZZZX=             -0.8045
 ZZZY=              0.0350 XXYY=            -10.9474 XXZZ=            -14.1899 YYZZ=             -6.7213
 XXYZ=             -0.0758 YYXZ=             -0.5298 ZZXY=              0.4934
 N-N= 3.533000161629D+01 E-N=-3.409618035697D+02  KE= 1.147242782056D+02
                          Isotropic Fermi Contact Couplings
        Atom                 a.u.       MegaHertz       Gauss      10(-4) cm-1
     1  C(13)              0.16436     184.76928      65.93027      61.63240
     2  O(17)              0.05935     -35.97488     -12.83673     -11.99993
     3  H(1)              -0.01100     -49.17847     -17.54810     -16.40417
     4  H(1)              -0.00938     -41.91805     -14.95740     -13.98236
     5  H(1)              -0.00250     -11.15978      -3.98209      -3.72250
 --------------------------------------------------------
       Center         ----  Spin Dipole Couplings  ----
                      3XX-RR        3YY-RR        3ZZ-RR
 --------------------------------------------------------
     1   Atom       -0.553446     -0.542356      1.095802
     2   Atom       -0.483761     -0.475302      0.959063
     3   Atom       -0.034201      0.030587      0.003614
     4   Atom       -0.048150      0.042548      0.005602
     5   Atom       -0.000659      0.017184     -0.016524
 --------------------------------------------------------
                        XY            XZ            YZ
 --------------------------------------------------------
     1   Atom       -0.001554      0.082608     -0.060210
     2   Atom        0.015970      0.091539      0.013804
     3   Atom        0.057823     -0.002831     -0.009908
     4   Atom       -0.047990     -0.004595      0.010427
     5   Atom        0.035026      0.002538      0.001133
 --------------------------------------------------------


 ---------------------------------------------------------------------------------
              Anisotropic Spin Dipole Couplings in Principal Axis System
 ---------------------------------------------------------------------------------

       Atom             a.u.   MegaHertz   Gauss  10(-4) cm-1        Axes

              Baa    -0.5577   -74.842   -26.706   -24.965  0.9926 -0.1094 -0.0536
     1 C(13)  Bbb    -0.5444   -73.053   -26.067   -24.368  0.1112  0.9933  0.0309
              Bcc     1.1021   147.896    52.773    49.333  0.0498 -0.0366  0.9981
 
              Baa    -0.4991    36.117    12.887    12.047  0.8423 -0.5368 -0.0478
     2 O(17)  Bbb    -0.4659    33.710    12.028    11.244  0.5352  0.8436 -0.0426
              Bcc     0.9650   -69.827   -24.916   -23.292  0.0632  0.0103  0.9980
 
              Baa    -0.0682   -36.377   -12.980   -12.134  0.8608 -0.5076 -0.0361
     3 H(1)   Bbb     0.0021     1.126     0.402     0.376  0.1110  0.1180  0.9868
              Bcc     0.0661    35.251    12.578    11.758  0.4966  0.8535 -0.1579
 
              Baa    -0.0688   -36.723   -13.104   -12.250  0.9184  0.3956  0.0013
     4 H(1)   Bbb     0.0034     1.830     0.653     0.611  0.0729 -0.1724  0.9823
              Bcc     0.0654    34.893    12.451    11.639 -0.3888  0.9021  0.1872
 
              Baa    -0.0280   -14.956    -5.337    -4.989  0.7868 -0.6066 -0.1138
     5 H(1)   Bbb    -0.0165    -8.789    -3.136    -2.932  0.0654 -0.1014  0.9927
              Bcc     0.0445    23.746     8.473     7.921  0.6137  0.7885  0.0402
 

 ---------------------------------------------------------------------------------

 Calling FoFJK, ICntrl=      2127 FMM=F ISym2X=0 I1Cent= 0 IOpClX= 1 NMat=1 NMatS=1 NMatT=0.
 ***** Axes restored to original set *****
 -------------------------------------------------------------------
 Center     Atomic                   Forces (Hartrees/Bohr)
 Number     Number              X              Y              Z
 -------------------------------------------------------------------
      1        6           0.000117107   -0.000017832   -0.000051505
      2        8          -0.000015839    0.000033472   -0.000021902
      3        1          -0.000051253    0.000007108    0.000035249
      4        1          -0.000035306   -0.000001797    0.000016296
      5        1          -0.000014709   -0.000020951    0.000021862
 -------------------------------------------------------------------
 Cartesian Forces:  Max     0.000117107 RMS     0.000040910

 GradGradGradGradGradGradGradGradGradGradGradGradGradGradGradGradGradGrad
 Berny optimization.
 FormGI is forming the generalized inverse of G from B-inverse, IUseBI=4.
 Internal  Forces:  Max     0.000059939 RMS     0.000028829
 Search for a local minimum.
 Step number   1 out of a maximum of   21
 All quantities printed in internal units (Hartrees-Bohrs-Radians)
 Mixed Optimization -- En-DIIS/RFO-DIIS
 Second derivative matrix not updated -- first step.
 The second derivative matrix:
                          R1        R2        R3        R4        A1
           R1           0.52043
           R2           0.00000   0.36344
           R3           0.00000   0.00000   0.35903
           R4           0.00000   0.00000   0.00000   0.55329
           A1           0.00000   0.00000   0.00000   0.00000   0.16000
           A2           0.00000   0.00000   0.00000   0.00000   0.00000
           A3           0.00000   0.00000   0.00000   0.00000   0.00000
           A4           0.00000   0.00000   0.00000   0.00000   0.00000
           D1           0.00000   0.00000   0.00000   0.00000   0.00000
           D2           0.00000   0.00000   0.00000   0.00000   0.00000
           D3           0.00000   0.00000   0.00000   0.00000   0.00000
                          A2        A3        A4        D1        D2
           A2           0.16000
           A3           0.00000   0.16000
           A4           0.00000   0.00000   0.16000
           D1           0.00000   0.00000   0.00000   0.02161
           D2           0.00000   0.00000   0.00000   0.00000   0.02161
           D3           0.00000   0.00000   0.00000   0.00000   0.00000
                          D3
           D3           0.00405
 ITU=  0
     Eigenvalues ---    0.01524   0.02161   0.15301   0.16000   0.16000
     Eigenvalues ---    0.35903   0.36344   0.52043   0.55329
 RFO step:  Lambda=-1.04301962D-07 EMin= 1.52409548D-02
 Linear search not attempted -- first point.
 Iteration  1 RMS(Cart)=  0.00040299 RMS(Int)=  0.00000027
 Iteration  2 RMS(Cart)=  0.00000020 RMS(Int)=  0.00000014
 Variable       Old X    -DE/DX   Delta X   Delta X   Delta X     New X
                                 (Linear)    (Quad)   (Total)
    R1        2.57858  -0.00003   0.00000  -0.00006  -0.00006   2.57852
    R2        2.03546   0.00003   0.00000   0.00007   0.00007   2.03553
    R3        2.04234   0.00002   0.00000   0.00004   0.00004   2.04238
    R4        1.81541  -0.00003   0.00000  -0.00005  -0.00005   1.81536
    A1        1.98787   0.00004   0.00000   0.00008   0.00008   1.98795
    A2        2.07909   0.00001   0.00000  -0.00007  -0.00007   2.07902
    A3        2.12593  -0.00006   0.00000  -0.00053  -0.00053   2.12541
    A4        1.92029  -0.00000   0.00000  -0.00002  -0.00002   1.92027
    D1       -3.06860   0.00003   0.00000   0.00146   0.00146  -3.06714
    D2       -0.36230   0.00000   0.00000   0.00015   0.00015  -0.36215
    D3        2.69326  -0.00001   0.00000  -0.00121  -0.00121   2.69205
         Item               Value     Threshold  Converged?
 Maximum Force            0.000060     0.000450     YES
 RMS     Force            0.000029     0.000300     YES
 Maximum Displacement     0.000755     0.001800     YES
 RMS     Displacement     0.000403     0.001200     YES
 Predicted change in Energy=-5.213141D-08
 Optimization completed.
    -- Stationary point found.
                           ----------------------------
                           !   Optimized Parameters   !
                           ! (Angstroms and Degrees)  !
 --------------------------                            --------------------------
 ! Name  Definition              Value          Derivative Info.                !
 --------------------------------------------------------------------------------
 ! R1    R(1,2)                  1.3645         -DE/DX =    0.0                 !
 ! R2    R(1,3)                  1.0771         -DE/DX =    0.0                 !
 ! R3    R(1,4)                  1.0808         -DE/DX =    0.0                 !
 ! R4    R(2,5)                  0.9607         -DE/DX =    0.0                 !
 ! A1    A(2,1,3)              113.8964         -DE/DX =    0.0                 !
 ! A2    A(2,1,4)              119.1232         -DE/DX =    0.0                 !
 ! A3    A(3,1,4)              121.807          -DE/DX =   -0.0001              !
 ! A4    A(1,2,5)              110.0243         -DE/DX =    0.0                 !
 ! D1    D(3,1,2,5)           -175.8176         -DE/DX =    0.0                 !
 ! D2    D(4,1,2,5)            -20.7583         -DE/DX =    0.0                 !
 ! D3    D(2,1,3,4)            154.3125         -DE/DX =    0.0                 !
 --------------------------------------------------------------------------------
 GradGradGradGradGradGradGradGradGradGradGradGradGradGradGradGradGradGrad

                          Input orientation:                          
 ---------------------------------------------------------------------
 Center     Atomic      Atomic             Coordinates (Angstroms)
 Number     Number       Type             X           Y           Z
 ---------------------------------------------------------------------
      1          6           0       -0.684188    0.027583   -0.057847
      2          8           0        0.669485   -0.125548    0.019940
      3          1           0       -1.235869   -0.885407    0.091443
      4          1           0       -1.116969    0.995427    0.151952
      5          1           0        1.102082    0.728861   -0.055829
 ---------------------------------------------------------------------
                    Distance matrix (angstroms):
                    1          2          3          4          5
     1  C    0.000000
     2  O    1.364526   0.000000
     3  H    1.077121   2.052528   0.000000
     4  H    1.080758   2.113156   1.885560   0.000000
     5  H    1.918999   0.960675   2.844919   2.244642   0.000000
 Stoichiometry    CH3O(2)
 Framework group  C1[X(CH3O)]
 Deg. of freedom     9
 Full point group                 C1      NOp   1
 Largest Abelian subgroup         C1      NOp   1
 Largest concise Abelian subgroup C1      NOp   1
                         Standard orientation:                         
 ---------------------------------------------------------------------
 Center     Atomic      Atomic             Coordinates (Angstroms)
 Number     Number       Type             X           Y           Z
 ---------------------------------------------------------------------
      1          6           0       -0.684188    0.027583   -0.057847
      2          8           0        0.669485   -0.125548    0.019940
      3          1           0       -1.235869   -0.885407    0.091443
      4          1           0       -1.116969    0.995427    0.151952
      5          1           0        1.102082    0.728861   -0.055829
 ---------------------------------------------------------------------
 Rotational constants (GHZ):         194.6112679          29.9446952          26.1470297
 1\1\GINC-GAMBA\FOpt\UB3LYP\Gen\C1H3O1(2)\IRIKURA\29-Sep-2023\0\\# b3ly
 p/gen opt freq CPHF(Grid=OneStep)\\hydroxymethyl, B3LYP/pcseg-2\\0,2\C
 ,-0.684188,0.027583,-0.057847\O,0.669485,-0.125548,0.01994\H,-1.235869
 ,-0.885407,0.091443\H,-1.116969,0.995427,0.151952\H,1.102082,0.728861,
 -0.055829\\Version=ES64L-G16RevB.01\State=2-A\HF=-115.1162776\S2=0.753
 771\S2-1=0.\S2A=0.75001\RMSD=6.802e-09\RMSF=4.091e-05\Dipole=0.0162445
 ,0.5933748,0.090878\Quadrupole=0.5054723,1.0079256,-1.5133979,1.616050
 4,-0.4485184,-0.0105767\PG=C01 [X(C1H3O1)]\\@


 NECESSARY EVIL: ONE WE LIKE TOO MUCH TO RELINQUISH.
 Job cpu time:       0 days  0 hours  0 minutes 35.2 seconds.
 Elapsed time:       0 days  0 hours  0 minutes  9.3 seconds.
 File lengths (MBytes):  RWF=     10 Int=      0 D2E=      0 Chk=      2 Scr=      1
 Normal termination of Gaussian 16 at Fri Sep 29 16:25:57 2023.
 Link1:  Proceeding to internal job step number  2.
 ------------------------------------------------------------------
 #N Geom=AllCheck Guess=TCheck SCRF=Check GenChk UB3LYP/ChkBas Freq
 ------------------------------------------------------------------
 1/10=4,29=7,30=1,38=1,40=1/1,3;
 2/12=2,40=1/2;
 3/5=7,6=2,11=2,14=-4,25=1,30=1,67=1,70=2,71=2,74=-5,82=7,116=2,140=1/1,2,3;
 4/5=101/1;
 5/5=2,38=6,98=1/2;
 8/6=4,10=90,11=11/1;
 11/6=1,8=1,9=11,15=111,16=1/1,2,10;
 10/6=1,60=-420/2;
 6/7=2,8=2,9=2,10=2,28=1/1;
 7/8=1,10=1,25=1/1,2,3,16;
 1/10=4,30=1/3;
 99//99;
 Structure from the checkpoint file:  "ch2oh.chk"
 ----------------------------
 hydroxymethyl, B3LYP/pcseg-2
 ----------------------------
 Charge =  0 Multiplicity = 2
 Redundant internal coordinates found in file.  (old form).
 C,0,-0.684188,0.027583,-0.057847
 O,0,0.669485,-0.125548,0.01994
 H,0,-1.235869,-0.885407,0.091443
 H,0,-1.116969,0.995427,0.151952
 H,0,1.102082,0.728861,-0.055829
 Recover connectivity data from disk.

 GradGradGradGradGradGradGradGradGradGradGradGradGradGradGradGradGradGrad
 Berny optimization.
 Initialization pass.
                           ----------------------------
                           !    Initial Parameters    !
                           ! (Angstroms and Degrees)  !
 --------------------------                            --------------------------
 ! Name  Definition              Value          Derivative Info.                !
 --------------------------------------------------------------------------------
 ! R1    R(1,2)                  1.3645         calculate D2E/DX2 analytically  !
 ! R2    R(1,3)                  1.0771         calculate D2E/DX2 analytically  !
 ! R3    R(1,4)                  1.0808         calculate D2E/DX2 analytically  !
 ! R4    R(2,5)                  0.9607         calculate D2E/DX2 analytically  !
 ! A1    A(2,1,3)              113.8964         calculate D2E/DX2 analytically  !
 ! A2    A(2,1,4)              119.1232         calculate D2E/DX2 analytically  !
 ! A3    A(3,1,4)              121.807          calculate D2E/DX2 analytically  !
 ! A4    A(1,2,5)              110.0243         calculate D2E/DX2 analytically  !
 ! D1    D(3,1,2,5)           -175.8176         calculate D2E/DX2 analytically  !
 ! D2    D(4,1,2,5)            -20.7583         calculate D2E/DX2 analytically  !
 ! D3    D(2,1,3,4)            154.3125         calculate D2E/DX2 analytically  !
 --------------------------------------------------------------------------------
 Trust Radius=3.00D-01 FncErr=1.00D-07 GrdErr=1.00D-07 EigMax=2.50D+02 EigMin=1.00D-04
 Number of steps in this run=      2 maximum allowed number of steps=      2.
 GradGradGradGradGradGradGradGradGradGradGradGradGradGradGradGradGradGrad

                          Input orientation:                          
 ---------------------------------------------------------------------
 Center     Atomic      Atomic             Coordinates (Angstroms)
 Number     Number       Type             X           Y           Z
 ---------------------------------------------------------------------
      1          6           0       -0.684188    0.027583   -0.057847
      2          8           0        0.669485   -0.125548    0.019940
      3          1           0       -1.235869   -0.885407    0.091443
      4          1           0       -1.116969    0.995427    0.151952
      5          1           0        1.102082    0.728861   -0.055829
 ---------------------------------------------------------------------
                    Distance matrix (angstroms):
                    1          2          3          4          5
     1  C    0.000000
     2  O    1.364526   0.000000
     3  H    1.077121   2.052528   0.000000
     4  H    1.080758   2.113156   1.885560   0.000000
     5  H    1.918999   0.960675   2.844919   2.244642   0.000000
 Stoichiometry    CH3O(2)
 Framework group  C1[X(CH3O)]
 Deg. of freedom     9
 Full point group                 C1      NOp   1
 Largest Abelian subgroup         C1      NOp   1
 Largest concise Abelian subgroup C1      NOp   1
                         Standard orientation:                         
 ---------------------------------------------------------------------
 Center     Atomic      Atomic             Coordinates (Angstroms)
 Number     Number       Type             X           Y           Z
 ---------------------------------------------------------------------
      1          6           0       -0.684188    0.027583   -0.057847
      2          8           0        0.669485   -0.125548    0.019940
      3          1           0       -1.235869   -0.885407    0.091443
      4          1           0       -1.116969    0.995427    0.151952
      5          1           0        1.102082    0.728861   -0.055829
 ---------------------------------------------------------------------
 Rotational constants (GHZ):         194.6112679          29.9446952          26.1470297
 Basis read from chk: "ch2oh.chk" (5D, 7F)
 There are   115 symmetry adapted cartesian basis functions of A   symmetry.
 There are   102 symmetry adapted basis functions of A   symmetry.
   102 basis functions,   156 primitive gaussians,   115 cartesian basis functions
     9 alpha electrons        8 beta electrons
       nuclear repulsion energy        35.3300016163 Hartrees.
 NAtoms=    5 NActive=    5 NUniq=    5 SFac= 1.00D+00 NAtFMM=   60 NAOKFM=F Big=F
 Integral buffers will be    131072 words long.
 Raffenetti 2 integral format.
 Two-electron integral symmetry is turned on.
 One-electron integrals computed using PRISM.
 NBasis=   102 RedAO= T EigKep=  2.11D-03  NBF=   102
 NBsUse=   102 1.00D-06 EigRej= -1.00D+00 NBFU=   102
 Initial guess from the checkpoint file:  "ch2oh.chk"
 B after Tr=    -0.000000   -0.000000   -0.000000
         Rot=    1.000000   -0.000000    0.000000   -0.000000 Ang=   0.00 deg.
 Initial guess <Sx>= 0.0000 <Sy>= 0.0000 <Sz>= 0.5000 <S**2>= 0.7538 S= 0.5019
 Keep R1 and R2 ints in memory in canonical form, NReq=31356359.
 Requested convergence on RMS density matrix=1.00D-08 within 128 cycles.
 Requested convergence on MAX density matrix=1.00D-06.
 Requested convergence on             energy=1.00D-06.
 No special actions if energy rises.
 SCF Done:  E(UB3LYP) =  -115.116277638     A.U. after    1 cycles
            NFock=  1  Conv=0.16D-08     -V/T= 2.0034
 <Sx>= 0.0000 <Sy>= 0.0000 <Sz>= 0.5000 <S**2>= 0.7538 S= 0.5019
 <L.S>=  0.00000000000    
 Annihilation of the first spin contaminant:
 S**2 before annihilation     0.7538,   after     0.7500
 DoSCS=F DFT=T ScalE2(SS,OS)=  1.000000  1.000000
 Range of M.O.s used for correlation:     1   102
 NBasis=   102 NAE=     9 NBE=     8 NFC=     0 NFV=     0
 NROrb=    102 NOA=     9 NOB=     8 NVA=    93 NVB=    94
 Symmetrizing basis deriv contribution to polar:
 IMax=3 JMax=2 DiffMx= 0.00D+00
 G2DrvN: will do     6 centers at a time, making    1 passes.
 Calling FoFCou, ICntrl=  3107 FMM=F I1Cent=   0 AccDes= 0.00D+00.
 End of G2Drv F.D. properties file   721 does not exist.
 End of G2Drv F.D. properties file   722 does not exist.
 End of G2Drv F.D. properties file   788 does not exist.
          IDoAtm=11111
          Differentiating once with respect to electric field.
                with respect to dipole field.
          Differentiating once with respect to nuclear coordinates.
 Keep R1 and R2 ints in memory in canonical form, NReq=31352187.
          There are    18 degrees of freedom in the 1st order CPHF.  IDoFFX=6 NUNeed=     3.
     15 vectors produced by pass  0 Test12= 8.83D-15 5.56D-09 XBig12= 2.47D+01 2.26D+00.
 AX will form    15 AO Fock derivatives at one time.
     15 vectors produced by pass  1 Test12= 8.83D-15 5.56D-09 XBig12= 2.93D+00 7.11D-01.
     15 vectors produced by pass  2 Test12= 8.83D-15 5.56D-09 XBig12= 4.91D-02 5.41D-02.
     15 vectors produced by pass  3 Test12= 8.83D-15 5.56D-09 XBig12= 3.54D-04 3.83D-03.
     15 vectors produced by pass  4 Test12= 8.83D-15 5.56D-09 XBig12= 2.85D-06 2.70D-04.
     15 vectors produced by pass  5 Test12= 8.83D-15 5.56D-09 XBig12= 1.40D-08 1.87D-05.
      9 vectors produced by pass  6 Test12= 8.83D-15 5.56D-09 XBig12= 4.74D-11 1.01D-06.
      3 vectors produced by pass  7 Test12= 8.83D-15 5.56D-09 XBig12= 1.19D-13 5.15D-08.
 InvSVY:  IOpt=1 It=  1 EMax= 1.11D-15
 Solved reduced A of dimension   102 with    15 vectors.
 Isotropic polarizability for W=    0.000000       18.28 Bohr**3.
 End of Minotr F.D. properties file   721 does not exist.
 End of Minotr F.D. properties file   722 does not exist.
 End of Minotr F.D. properties file   788 does not exist.

 **********************************************************************

            Population analysis using the SCF Density.

 **********************************************************************

 Orbital symmetries:
 Alpha Orbitals:
       Occupied  (A) (A) (A) (A) (A) (A) (A) (A) (A)
       Virtual   (A) (A) (A) (A) (A) (A) (A) (A) (A) (A) (A) (A)
                 (A) (A) (A) (A) (A) (A) (A) (A) (A) (A) (A) (A)
                 (A) (A) (A) (A) (A) (A) (A) (A) (A) (A) (A) (A)
                 (A) (A) (A) (A) (A) (A) (A) (A) (A) (A) (A) (A)
                 (A) (A) (A) (A) (A) (A) (A) (A) (A) (A) (A) (A)
                 (A) (A) (A) (A) (A) (A) (A) (A) (A) (A) (A) (A)
                 (A) (A) (A) (A) (A) (A) (A) (A) (A) (A) (A) (A)
                 (A) (A) (A) (A) (A) (A) (A) (A) (A)
 Beta  Orbitals:
       Occupied  (A) (A) (A) (A) (A) (A) (A) (A)
       Virtual   (A) (A) (A) (A) (A) (A) (A) (A) (A) (A) (A) (A)
                 (A) (A) (A) (A) (A) (A) (A) (A) (A) (A) (A) (A)
                 (A) (A) (A) (A) (A) (A) (A) (A) (A) (A) (A) (A)
                 (A) (A) (A) (A) (A) (A) (A) (A) (A) (A) (A) (A)
                 (A) (A) (A) (A) (A) (A) (A) (A) (A) (A) (A) (A)
                 (A) (A) (A) (A) (A) (A) (A) (A) (A) (A) (A) (A)
                 (A) (A) (A) (A) (A) (A) (A) (A) (A) (A) (A) (A)
                 (A) (A) (A) (A) (A) (A) (A) (A) (A) (A)
 The electronic state is 2-A.
 Alpha  occ. eigenvalues --  -19.16473 -10.21990  -1.06667  -0.67985  -0.53856
 Alpha  occ. eigenvalues --   -0.46072  -0.40991  -0.36607  -0.18308
 Alpha virt. eigenvalues --    0.00291   0.04240   0.07811   0.13181   0.17114
 Alpha virt. eigenvalues --    0.21133   0.23771   0.28344   0.31377   0.33734
 Alpha virt. eigenvalues --    0.37205   0.38056   0.38763   0.45953   0.65518
 Alpha virt. eigenvalues --    0.69289   0.79804   0.84626   0.86717   0.95302
 Alpha virt. eigenvalues --    0.97550   0.98494   1.02533   1.09642   1.15325
 Alpha virt. eigenvalues --    1.24158   1.28203   1.29928   1.44796   1.48027
 Alpha virt. eigenvalues --    1.51998   1.67237   1.74072   1.80161   1.83420
 Alpha virt. eigenvalues --    1.89230   2.00145   2.04382   2.21259   2.32638
 Alpha virt. eigenvalues --    2.39008   2.48064   2.74527   3.17053   3.17963
 Alpha virt. eigenvalues --    3.30737   3.35840   3.42755   3.44808   3.56749
 Alpha virt. eigenvalues --    3.59573   3.63900   3.69688   3.73980   3.91394
 Alpha virt. eigenvalues --    3.93490   3.95450   4.06491   4.07036   4.11241
 Alpha virt. eigenvalues --    4.20137   4.25418   4.28583   4.32084   4.36185
 Alpha virt. eigenvalues --    4.42157   4.45471   4.47449   4.54655   4.59809
 Alpha virt. eigenvalues --    4.66291   4.76280   4.83859   4.99033   5.02549
 Alpha virt. eigenvalues --    5.13668   5.19982   5.31679   5.45455   5.47806
 Alpha virt. eigenvalues --    5.67869   5.72052   5.79030   5.89311   6.07499
 Alpha virt. eigenvalues --    6.21564   6.28781   6.44939   6.49309   6.52595
 Alpha virt. eigenvalues --    6.73673   7.04321   7.49673
  Beta  occ. eigenvalues --  -19.15896 -10.20631  -1.05443  -0.65472  -0.52801
  Beta  occ. eigenvalues --   -0.45219  -0.37182  -0.35463
  Beta virt. eigenvalues --   -0.04030   0.00424   0.04643   0.07941   0.13556
  Beta virt. eigenvalues --    0.19949   0.22171   0.24830   0.28656   0.32727
  Beta virt. eigenvalues --    0.34767   0.37783   0.38793   0.39532   0.46282
  Beta virt. eigenvalues --    0.66411   0.70115   0.80463   0.85382   0.88125
  Beta virt. eigenvalues --    0.95406   0.98123   0.99913   1.02856   1.11622
  Beta virt. eigenvalues --    1.17111   1.26734   1.31361   1.34200   1.45794
  Beta virt. eigenvalues --    1.48614   1.53584   1.68108   1.75298   1.81388
  Beta virt. eigenvalues --    1.84159   1.90940   2.00644   2.05881   2.21986
  Beta virt. eigenvalues --    2.34713   2.40481   2.49316   2.75138   3.18965
  Beta virt. eigenvalues --    3.19802   3.32599   3.36334   3.45864   3.46150
  Beta virt. eigenvalues --    3.57851   3.60631   3.65268   3.70917   3.76093
  Beta virt. eigenvalues --    3.92098   3.95414   3.96346   4.08566   4.10793
  Beta virt. eigenvalues --    4.14474   4.21122   4.27653   4.29232   4.33112
  Beta virt. eigenvalues --    4.37101   4.42761   4.45754   4.48435   4.55510
  Beta virt. eigenvalues --    4.60218   4.66594   4.77259   4.84297   5.00882
  Beta virt. eigenvalues --    5.03355   5.14994   5.20951   5.33123   5.46272
  Beta virt. eigenvalues --    5.48900   5.69729   5.72896   5.79771   5.90284
  Beta virt. eigenvalues --    6.08189   6.23049   6.29698   6.46635   6.50350
  Beta virt. eigenvalues --    6.53313   6.74378   7.04737   7.49984
          Condensed to atoms (all electrons):
               1          2          3          4          5
     1  C    4.946459   0.195340   0.425774   0.419481  -0.023936
     2  O    0.195340   7.877820  -0.039550  -0.039983   0.331612
     3  H    0.425774  -0.039550   0.597319  -0.047511   0.009895
     4  H    0.419481  -0.039983  -0.047511   0.653654  -0.017197
     5  H   -0.023936   0.331612   0.009895  -0.017197   0.496902
          Atomic-Atomic Spin Densities.
               1          2          3          4          5
     1  C    1.137816  -0.201739   0.005880  -0.001646  -0.003001
     2  O   -0.201739   0.320295  -0.000912  -0.000553   0.003090
     3  H    0.005880  -0.000912  -0.036174   0.003580  -0.000709
     4  H   -0.001646  -0.000553   0.003580  -0.026897   0.000438
     5  H   -0.003001   0.003090  -0.000709   0.000438  -0.003894
 Mulliken charges and spin densities:
               1          2
     1  C    0.036883   0.937308
     2  O   -0.325239   0.120181
     3  H    0.054075  -0.028336
     4  H    0.031556  -0.025078
     5  H    0.202724  -0.004076
 Sum of Mulliken charges =   0.00000   1.00000
 Mulliken charges and spin densities with hydrogens summed into heavy atoms:
               1          2
     1  C    0.122514   0.883895
     2  O   -0.122514   0.116105
 APT charges:
               1
     1  C    0.231569
     2  O   -0.575711
     3  H    0.043449
     4  H    0.022462
     5  H    0.278231
 Sum of APT charges =   0.00000
 APT charges with hydrogens summed into heavy atoms:
               1
     1  C    0.297480
     2  O   -0.297480
 Electronic spatial extent (au):  <R**2>=             73.9880
 Charge=              0.0000 electrons
 Dipole moment (field-independent basis, Debye):
    X=              0.0413    Y=              1.5082    Z=              0.2310  Tot=              1.5264
 Quadrupole moment (field-independent basis, Debye-Ang):
   XX=            -11.8729   YY=            -11.1971   ZZ=            -14.5884
   XY=              2.1736   XZ=             -0.6033   YZ=             -0.0142
 Traceless Quadrupole moment (field-independent basis, Debye-Ang):
   XX=              0.6799   YY=              1.3557   ZZ=             -2.0356
   XY=              2.1736   XZ=             -0.6033   YZ=             -0.0142
 Octapole moment (field-independent basis, Debye-Ang**2):
  XXX=              5.2888  YYY=              1.1472  ZZZ=              0.7852  XYY=              1.3004
  XXY=              2.0983  XXZ=              0.4366  XZZ=              2.3558  YZZ=              0.0666
  YYZ=              0.3394  XYZ=             -0.1828
 Hexadecapole moment (field-independent basis, Debye-Ang**3):
 XXXX=            -56.1274 YYYY=            -20.1460 ZZZZ=            -17.2687 XXXY=              3.8693
 XXXZ=             -1.1256 YYYX=              2.2210 YYYZ=              0.0350 ZZZX=             -0.8045
 ZZZY=              0.0350 XXYY=            -10.9474 XXZZ=            -14.1899 YYZZ=             -6.7213
 XXYZ=             -0.0758 YYXZ=             -0.5298 ZZXY=              0.4934
 N-N= 3.533000161629D+01 E-N=-3.409618038538D+02  KE= 1.147242782911D+02
  Exact polarizability:  21.446   0.491  17.664  -0.032  -0.011  15.726
 Approx polarizability:  26.263   0.490  22.510   0.006  -0.136  18.744
                          Isotropic Fermi Contact Couplings
        Atom                 a.u.       MegaHertz       Gauss      10(-4) cm-1
     1  C(13)              0.16436     184.76938      65.93031      61.63243
     2  O(17)              0.05935     -35.97489     -12.83674     -11.99993
     3  H(1)              -0.01100     -49.17851     -17.54812     -16.40419
     4  H(1)              -0.00938     -41.91808     -14.95741     -13.98237
     5  H(1)              -0.00250     -11.15957      -3.98201      -3.72243
 --------------------------------------------------------
       Center         ----  Spin Dipole Couplings  ----
                      3XX-RR        3YY-RR        3ZZ-RR
 --------------------------------------------------------
     1   Atom       -0.553446     -0.542356      1.095802
     2   Atom       -0.483761     -0.475302      0.959063
     3   Atom       -0.034201      0.030587      0.003614
     4   Atom       -0.048150      0.042548      0.005602
     5   Atom       -0.000659      0.017184     -0.016524
 --------------------------------------------------------
                        XY            XZ            YZ
 --------------------------------------------------------
     1   Atom       -0.001554      0.082608     -0.060210
     2   Atom        0.015970      0.091539      0.013805
     3   Atom        0.057823     -0.002831     -0.009908
     4   Atom       -0.047990     -0.004595      0.010427
     5   Atom        0.035025      0.002538      0.001133
 --------------------------------------------------------


 ---------------------------------------------------------------------------------
              Anisotropic Spin Dipole Couplings in Principal Axis System
 ---------------------------------------------------------------------------------

       Atom             a.u.   MegaHertz   Gauss  10(-4) cm-1        Axes

              Baa    -0.5577   -74.842   -26.706   -24.965  0.9926 -0.1094 -0.0536
     1 C(13)  Bbb    -0.5444   -73.053   -26.067   -24.368  0.1112  0.9933  0.0309
              Bcc     1.1021   147.896    52.773    49.333  0.0498 -0.0366  0.9981
 
              Baa    -0.4991    36.117    12.887    12.047  0.8423 -0.5368 -0.0478
     2 O(17)  Bbb    -0.4659    33.710    12.028    11.244  0.5352  0.8436 -0.0426
              Bcc     0.9650   -69.827   -24.916   -23.292  0.0632  0.0103  0.9980
 
              Baa    -0.0682   -36.377   -12.980   -12.134  0.8608 -0.5076 -0.0361
     3 H(1)   Bbb     0.0021     1.126     0.402     0.376  0.1110  0.1180  0.9868
              Bcc     0.0661    35.251    12.578    11.758  0.4966  0.8535 -0.1579
 
              Baa    -0.0688   -36.723   -13.104   -12.250  0.9184  0.3956  0.0013
     4 H(1)   Bbb     0.0034     1.830     0.653     0.611  0.0729 -0.1724  0.9823
              Bcc     0.0654    34.893    12.451    11.639 -0.3888  0.9021  0.1872
 
              Baa    -0.0280   -14.956    -5.337    -4.989  0.7868 -0.6066 -0.1138
     5 H(1)   Bbb    -0.0165    -8.789    -3.136    -2.932  0.0654 -0.1014  0.9927
              Bcc     0.0445    23.746     8.473     7.921  0.6137  0.7885  0.0402
 

 ---------------------------------------------------------------------------------

 Calling FoFJK, ICntrl=    100127 FMM=F ISym2X=0 I1Cent= 0 IOpClX= 1 NMat=1 NMatS=1 NMatT=0.
 Full mass-weighted force constant matrix:
 Low frequencies ---   -0.0009   -0.0009    0.0011    1.7030    3.6797   10.7435
 Low frequencies ---  413.2623  527.9002 1053.0820
 Diagonal vibrational polarizability:
        3.7614120       1.1216762      16.2234932
 Harmonic frequencies (cm**-1), IR intensities (KM/Mole), Raman scattering
 activities (A**4/AMU), depolarization ratios for plane and unpolarized
 incident light, reduced masses (AMU), force constants (mDyne/A),
 and normal coordinates:
                      1                      2                      3
                      A                      A                      A
 Frequencies --    413.2620               527.9000              1053.0820
 Red. masses --      1.1543                 1.1985                 1.0806
 Frc consts  --      0.1161                 0.1968                 0.7060
 IR Inten    --     30.3160               129.0744                48.3269
  Atom  AN      X      Y      Z        X      Y      Z        X      Y      Z
     1   6     0.00  -0.02   0.08    -0.01  -0.00  -0.13     0.01   0.06   0.01
     2   8     0.01  -0.00  -0.07    -0.00  -0.00  -0.00    -0.04  -0.01  -0.01
     3   1    -0.06   0.04   0.10     0.08   0.07   0.78     0.51  -0.23   0.07
     4   1     0.00   0.12  -0.61     0.10  -0.05   0.43    -0.50  -0.15  -0.08
     5   1    -0.04   0.09   0.76    -0.01   0.04   0.40     0.55  -0.30   0.07
                      4                      5                      6
                      A                      A                      A
 Frequencies --   1201.3635              1356.9763              1484.3238
 Red. masses --      5.2624                 1.2809                 1.1522
 Frc consts  --      4.4749                 1.3897                 1.4956
 IR Inten    --    106.8464                28.3661                 7.9452
  Atom  AN      X      Y      Z        X      Y      Z        X      Y      Z
     1   6    -0.42   0.09  -0.02    -0.06  -0.10  -0.00    -0.11   0.01  -0.00
     2   8     0.38  -0.07   0.01     0.00   0.09  -0.00     0.01  -0.00   0.01
     3   1    -0.31   0.02   0.05    -0.41   0.09  -0.04     0.58  -0.41  -0.07
     4   1    -0.74  -0.04   0.00     0.35   0.06   0.05     0.61   0.33  -0.04
     5   1     0.04   0.12  -0.01     0.76  -0.31   0.05    -0.03   0.02  -0.00
                      7                      8                      9
                      A                      A                      A
 Frequencies --   3136.8322              3279.6237              3834.8943
 Red. masses --      1.0459                 1.1245                 1.0665
 Frc consts  --      6.0634                 7.1261                 9.2410
 IR Inten    --     19.0666                10.4444                60.3152
  Atom  AN      X      Y      Z        X      Y      Z        X      Y      Z
     1   6     0.05  -0.02  -0.02    -0.02  -0.10   0.00     0.00  -0.00   0.00
     2   8    -0.00   0.00  -0.00     0.00   0.00  -0.00    -0.03  -0.05   0.00
     3   1    -0.29  -0.49   0.06     0.42   0.70  -0.11     0.01   0.02  -0.00
     4   1    -0.32   0.74   0.14    -0.22   0.50   0.11     0.00   0.01   0.00
     5   1    -0.00   0.00   0.00    -0.00  -0.02   0.01     0.46   0.88  -0.08

 -------------------
 - Thermochemistry -
 -------------------
 Temperature   298.150 Kelvin.  Pressure   1.00000 Atm.
 Atom     1 has atomic number  6 and mass  12.00000
 Atom     2 has atomic number  8 and mass  15.99491
 Atom     3 has atomic number  1 and mass   1.00783
 Atom     4 has atomic number  1 and mass   1.00783
 Atom     5 has atomic number  1 and mass   1.00783
 Molecular mass:    31.01839 amu.
 Principal axes and moments of inertia in atomic units:
                           1         2         3
     Eigenvalues --     9.27357  60.26915  69.02280
           X            0.99841   0.05249  -0.02057
           Y           -0.05234   0.99860   0.00763
           Z            0.02094  -0.00654   0.99976
 This molecule is an asymmetric top.
 Rotational symmetry number  1.
 Rotational temperatures (Kelvin)      9.33987     1.43712     1.25486
 Rotational constants (GHZ):         194.61127    29.94470    26.14703
 Zero-point vibrational energy      97425.4 (Joules/Mol)
                                   23.28523 (Kcal/Mol)
 Warning -- explicit consideration of   2 degrees of freedom as
           vibrations may cause significant error
 Vibrational temperatures:    594.59   759.53  1515.15  1728.49  1952.39
          (Kelvin)           2135.61  4513.20  4718.65  5517.56
 
 Zero-point correction=                           0.037107 (Hartree/Particle)
 Thermal correction to Energy=                    0.040502
 Thermal correction to Enthalpy=                  0.041446
 Thermal correction to Gibbs Free Energy=         0.014097
 Sum of electronic and zero-point Energies=           -115.079170
 Sum of electronic and thermal Energies=              -115.075776
 Sum of electronic and thermal Enthalpies=            -115.074832
 Sum of electronic and thermal Free Energies=         -115.102180
 
                     E (Thermal)             CV                S
                      KCal/Mol        Cal/Mol-Kelvin    Cal/Mol-Kelvin
 Total                   25.415              9.320             57.560
 Electronic               0.000              0.000              1.377
 Translational            0.889              2.981             36.229
 Rotational               0.889              2.981             18.296
 Vibrational             23.638              3.358              1.658
 Vibration     1          0.777              1.441              0.915
 Vibration     2          0.883              1.188              0.592
                       Q            Log10(Q)             Ln(Q)
 Total Bot       0.327837D-06         -6.484342        -14.930749
 Total V=0       0.383578D+11         10.583853         24.370223
 Vib (Bot)       0.108576D-16        -16.964268        -39.061670
 Vib (Bot)    1  0.427064D+00         -0.369507         -0.850822
 Vib (Bot)    2  0.303545D+00         -0.517777         -1.192226
 Vib (V=0)       0.127036D+01          0.103928          0.239303
 Vib (V=0)    1  0.115756D+01          0.063543          0.146313
 Vib (V=0)    2  0.108493D+01          0.035400          0.081513
 Electronic      0.200000D+01          0.301030          0.693147
 Translational   0.679020D+07          6.831883         15.730991
 Rotational      0.222338D+04          3.347013          7.706782
 ***** Axes restored to original set *****
 -------------------------------------------------------------------
 Center     Atomic                   Forces (Hartrees/Bohr)
 Number     Number              X              Y              Z
 -------------------------------------------------------------------
      1        6           0.000117147   -0.000017840   -0.000051507
      2        8          -0.000015832    0.000033504   -0.000021906
      3        1          -0.000051270    0.000007085    0.000035251
      4        1          -0.000035321   -0.000001768    0.000016299
      5        1          -0.000014724   -0.000020980    0.000021863
 -------------------------------------------------------------------
 Cartesian Forces:  Max     0.000117147 RMS     0.000040923
 FormGI is forming the generalized inverse of G from B-inverse, IUseBI=4.

 GradGradGradGradGradGradGradGradGradGradGradGradGradGradGradGradGradGrad
 Berny optimization.
 Internal  Forces:  Max     0.000059940 RMS     0.000028836
 Search for a local minimum.
 Step number   1 out of a maximum of    2
 All quantities printed in internal units (Hartrees-Bohrs-Radians)
 Second derivative matrix not updated -- analytic derivatives used.
 The second derivative matrix:
                          R1        R2        R3        R4        A1
           R1           0.42555
           R2           0.00908   0.36896
           R3           0.00885   0.00003   0.35747
           R4           0.00011  -0.00186   0.00089   0.52825
           A1           0.02123   0.00556  -0.00664   0.00711   0.10660
           A2           0.01211  -0.00806   0.00155  -0.00722  -0.06314
           A3          -0.03076   0.00512   0.00732   0.00073  -0.03676
           A4           0.05228   0.00276  -0.00092   0.01586   0.01656
           D1           0.00042  -0.00402  -0.00243  -0.00037  -0.00501
           D2          -0.00169   0.00342   0.00441   0.00140   0.00265
           D3           0.01024   0.00402   0.00530  -0.00033   0.00197
                          A2        A3        A4        D1        D2
           A2           0.09166
           A3          -0.03297   0.06887
           A4          -0.00975  -0.00576   0.17405
           D1           0.01097  -0.00802  -0.00137   0.00760
           D2          -0.00968   0.00802  -0.00019   0.00062   0.00512
           D3           0.01305  -0.01278   0.00032  -0.00189  -0.00033
                          D3
           D3           0.00892
 ITU=  0
     Eigenvalues ---    0.00556   0.00987   0.10329   0.14652   0.17937
     Eigenvalues ---    0.35748   0.36856   0.44302   0.52939
 Angle between quadratic step and forces=  56.86 degrees.
 Linear search not attempted -- first point.
 Iteration  1 RMS(Cart)=  0.00085087 RMS(Int)=  0.00000110
 Iteration  2 RMS(Cart)=  0.00000084 RMS(Int)=  0.00000046
 Variable       Old X    -DE/DX   Delta X   Delta X   Delta X     New X
                                 (Linear)    (Quad)   (Total)
    R1        2.57858  -0.00003   0.00000  -0.00011  -0.00011   2.57847
    R2        2.03546   0.00003   0.00000   0.00013   0.00013   2.03559
    R3        2.04234   0.00002   0.00000   0.00011   0.00011   2.04245
    R4        1.81541  -0.00003   0.00000  -0.00005  -0.00005   1.81536
    A1        1.98787   0.00004   0.00000   0.00016   0.00016   1.98802
    A2        2.07909   0.00001   0.00000  -0.00006  -0.00006   2.07903
    A3        2.12593  -0.00006   0.00000  -0.00101  -0.00101   2.12493
    A4        1.92029  -0.00000   0.00000  -0.00001  -0.00001   1.92028
    D1       -3.06860   0.00003   0.00000   0.00312   0.00312  -3.06547
    D2       -0.36230   0.00000   0.00000   0.00080   0.00080  -0.36150
    D3        2.69326  -0.00001   0.00000  -0.00212  -0.00212   2.69114
         Item               Value     Threshold  Converged?
 Maximum Force            0.000060     0.000450     YES
 RMS     Force            0.000029     0.000300     YES
 Maximum Displacement     0.001411     0.001800     YES
 RMS     Displacement     0.000851     0.001200     YES
 Predicted change in Energy=-1.044999D-07
 Optimization completed.
    -- Stationary point found.
                           ----------------------------
                           !   Optimized Parameters   !
                           ! (Angstroms and Degrees)  !
 --------------------------                            --------------------------
 ! Name  Definition              Value          Derivative Info.                !
 --------------------------------------------------------------------------------
 ! R1    R(1,2)                  1.3645         -DE/DX =    0.0                 !
 ! R2    R(1,3)                  1.0771         -DE/DX =    0.0                 !
 ! R3    R(1,4)                  1.0808         -DE/DX =    0.0                 !
 ! R4    R(2,5)                  0.9607         -DE/DX =    0.0                 !
 ! A1    A(2,1,3)              113.8964         -DE/DX =    0.0                 !
 ! A2    A(2,1,4)              119.1232         -DE/DX =    0.0                 !
 ! A3    A(3,1,4)              121.807          -DE/DX =   -0.0001              !
 ! A4    A(1,2,5)              110.0243         -DE/DX =    0.0                 !
 ! D1    D(3,1,2,5)           -175.8176         -DE/DX =    0.0                 !
 ! D2    D(4,1,2,5)            -20.7583         -DE/DX =    0.0                 !
 ! D3    D(2,1,3,4)            154.3125         -DE/DX =    0.0                 !
 --------------------------------------------------------------------------------
 GradGradGradGradGradGradGradGradGradGradGradGradGradGradGradGradGradGrad


 ----------------------------------------------------------------------

 Electric dipole moment (input orientation):
 (Debye = 10**-18 statcoulomb cm , SI units = C m)
                  (au)            (Debye)         (10**-30 SI)
   Tot        0.600513D+00      0.152635D+01      0.509137D+01
   x          0.162448D-01      0.412903D-01      0.137730D+00
   y          0.593375D+00      0.150821D+01      0.503084D+01
   z          0.908779D-01      0.230989D+00      0.770495D+00

 Dipole polarizability, Alpha (input orientation).
 (esu units = cm**3 , SI units = C**2 m**2 J**-1)
 Alpha(0;0):
               (au)            (10**-24 esu)      (10**-40 SI)
   iso        0.182787D+02      0.270862D+01      0.301374D+01
   aniso      0.511073D+01      0.757332D+00      0.842646D+00
   xx         0.214461D+02      0.317799D+01      0.353599D+01
   yx         0.491269D+00      0.727985D-01      0.809993D-01
   yy         0.176641D+02      0.261755D+01      0.291242D+01
   zx        -0.316341D-01     -0.468769D-02     -0.521576D-02
   zy        -0.113917D-01     -0.168808D-02     -0.187824D-02
[...]
 O,0,0.669485,-0.125548,0.01994
 H,0,-1.235869,-0.885407,0.091443
 H,0,-1.116969,0.995427,0.151952
 H,0,1.102082,0.728861,-0.055829
 Recover connectivity data from disk.
                           ----------------------------
                           !    Current Parameters    !
                           ! (Angstroms and Degrees)  !
 --------------------------                            --------------------------
 ! Name  Definition              Value                                          !
 --------------------------------------------------------------------------------
 ! R1    R(1,2)                  1.3645                                         !
 ! R2    R(1,3)                  1.0771                                         !
 ! R3    R(1,4)                  1.0808                                         !
 ! R4    R(2,5)                  0.9607                                         !
 ! A1    A(2,1,3)              113.8964                                         !
 ! A2    A(2,1,4)              119.1232                                         !
 ! A3    A(3,1,4)              121.807                                          !
 ! A4    A(1,2,5)              110.0243                                         !
 ! D1    D(3,1,2,5)           -175.8176                                         !
 ! D2    D(4,1,2,5)            -20.7583                                         !
 ! D3    D(2,1,3,4)            154.3125                                         !
 --------------------------------------------------------------------------------
                          Input orientation:                          
 ---------------------------------------------------------------------
 Center     Atomic      Atomic             Coordinates (Angstroms)
 Number     Number       Type             X           Y           Z
 ---------------------------------------------------------------------
      1          6           0       -0.684188    0.027583   -0.057847
      2          8           0        0.669485   -0.125548    0.019940
      3          1           0       -1.235869   -0.885407    0.091443
      4          1           0       -1.116969    0.995427    0.151952
      5          1           0        1.102082    0.728861   -0.055829
 ---------------------------------------------------------------------
                    Distance matrix (angstroms):
                    1          2          3          4          5
     1  C    0.000000
     2  O    1.364526   0.000000
     3  H    1.077121   2.052528   0.000000
     4  H    1.080758   2.113156   1.885560   0.000000
     5  H    1.918999   0.960675   2.844919   2.244642   0.000000
 Stoichiometry    CH3O(2)
 Framework group  C1[X(CH3O)]
 Deg. of freedom     9
 Full point group                 C1      NOp   1
 Largest Abelian subgroup         C1      NOp   1
 Largest concise Abelian subgroup C1      NOp   1
                         Standard orientation:                         
 ---------------------------------------------------------------------
 Center     Atomic      Atomic             Coordinates (Angstroms)
 Number     Number       Type             X           Y           Z
 ---------------------------------------------------------------------
      1          6           0       -0.684188    0.027583   -0.057847
      2          8           0        0.669485   -0.125548    0.019940
      3          1           0       -1.235869   -0.885407    0.091443
      4          1           0       -1.116969    0.995427    0.151952
      5          1           0        1.102082    0.728861   -0.055829
 ---------------------------------------------------------------------
 Rotational constants (GHZ):         194.6112679          29.9446952          26.1470297
 General basis read from cards:  (5D, 7F)
 There are   181 symmetry adapted cartesian basis functions of A   symmetry.
 There are   160 symmetry adapted basis functions of A   symmetry.
   160 basis functions,   219 primitive gaussians,   181 cartesian basis functions
     9 alpha electrons        8 beta electrons
       nuclear repulsion energy        35.3300016163 Hartrees.
 NAtoms=    5 NActive=    5 NUniq=    5 SFac= 1.00D+00 NAtFMM=   60 NAOKFM=F Big=F
 Integral buffers will be    131072 words long.
 Raffenetti 2 integral format.
 Two-electron integral symmetry is turned on.
 One-electron integrals computed using PRISM.
 NBasis=   160 RedAO= T EigKep=  1.53D-04  NBF=   160
 NBsUse=   160 1.00D-06 EigRej= -1.00D+00 NBFU=   160
 Initial guess from the checkpoint file:  "ch2oh.chk"
 B after Tr=     0.000000    0.000000    0.000000
         Rot=    1.000000    0.000000    0.000000   -0.000000 Ang=   0.00 deg.
 BiOrM2:  NumA=       9 NumB=       8.
 Eigenvalues of SAB:
  0.99999998  0.99999958  0.99998920  0.99997738  0.99992081
  0.99981696  0.99942704  0.99898560  0.07184166
 BiOrM2:  NumA=       1 NumB=     152.
 Eigenvalues of SAB:
  1.00000000 -0.33527060 -0.04123979 -0.55905036  0.80050764
 -0.16543096  0.71662821  0.11648337  0.77590100 -0.60021039
 -0.00666615 -0.48627482  0.06892653 -0.16949196 -0.06209104
 -0.00026052  0.11349243  0.03903795  0.03218572 -0.03251868
  0.39940138 -0.05302114 -0.08838980  0.28338540 -0.27239176
 -0.22334862  0.01660209  0.00802207  0.01087557  0.10489373
  0.12907861  0.12338663 -0.05539406 -0.02925549 -0.10773487
 -0.11642639  0.06308425  0.23603710  0.25332954 -0.07693331
 -0.19124960 -0.24630983  0.02813979 -0.09720035  0.02599815
 -0.09860004  0.16201431 -0.08380408  0.62284651 -0.28412358
  0.32367447 -0.08131759 -0.05087392  0.05052531 -0.01261637
  0.10569623  0.19900073  0.06475697 -0.10746955  0.00060945
 -0.23763299  0.12889148  0.12015845  0.08167682 -0.17266405
  0.12429462 -0.04331699 -0.02572596  0.05404282  0.12193148
  0.05256543  0.23707588 -0.02513125  0.18897823 -0.03560553
  0.05879230 -0.45233698 -0.06810673 -0.16130558 -0.03397926
  0.16060153 -0.13882316  0.34946615 -0.02973883  0.19144993
  0.22286668 -0.10760513 -0.23687820 -0.40848036  0.28475696
  0.11942439 -0.07231611 -0.00031797 -0.12737975  0.10099668
 -0.10431874  0.33355502 -0.04260001  0.12019985 -0.08173874
  0.29945510  0.07688597  0.02146533 -0.17140797 -0.26894468
  0.04031718  0.20026049  0.51451090 -0.08842600  0.06159642
 -0.24855438 -0.09505502  0.31289475  0.12841454  0.19948007
  0.05157576  0.01410463  0.04550163  0.23939499 -0.11142408
 -0.14089376 -0.40753425 -0.09942409  0.01451038  0.30336181
  0.15667024  0.11399963 -0.15030612  0.07110608 -0.02094707
 -0.08405378 -0.15925107 -0.12341999 -0.08840420 -0.00163688
 -0.00366713 -0.14250032 -0.04620159  0.04271186  0.13114417
 -0.03661643  0.04827626 -0.11772210  0.06812103 -0.11610426
  0.27566300 -0.28427289  0.10012984 -0.31759221  0.11085154
  0.07480765 -0.12213420
 BiOrM2:  NumA=     151 NumB=     151.
 Eigenvalues of SAB:
  1.00000000  1.00000000  1.00000000  1.00000000  1.00000000
  1.00000000  1.00000000  1.00000000  1.00000000  1.00000000
  1.00000000  1.00000000  1.00000000  1.00000000  1.00000000
  1.00000000  1.00000000  1.00000000  1.00000000  1.00000000
  1.00000000  1.00000000  1.00000000  1.00000000  1.00000000
  1.00000000  1.00000000  1.00000000  1.00000000  1.00000000
  1.00000000  1.00000000  1.00000000  1.00000000  1.00000000
  1.00000000  1.00000000  1.00000000  1.00000000  1.00000000
  1.00000000  1.00000000  1.00000000  1.00000000  1.00000000
  1.00000000  1.00000000  1.00000000  1.00000000  1.00000000
  1.00000000  1.00000000  1.00000000  1.00000000  1.00000000
  1.00000000  1.00000000  1.00000000  1.00000000  1.00000000
  1.00000000  1.00000000  1.00000000  1.00000000  1.00000000
  1.00000000  1.00000000  1.00000000  1.00000000  1.00000000
  1.00000000  1.00000000  1.00000000  1.00000000  1.00000000
  1.00000000  1.00000000  1.00000000  1.00000000  1.00000000
  1.00000000  1.00000000  1.00000000  1.00000000  1.00000000
  1.00000000  1.00000000  1.00000000  1.00000000  1.00000000
  1.00000000  1.00000000  1.00000000  1.00000000  1.00000000
  1.00000000  1.00000000  1.00000000  1.00000000  1.00000000
  1.00000000  1.00000000  1.00000000  1.00000000  1.00000000
  1.00000000  1.00000000  1.00000000  1.00000000  1.00000000
  1.00000000  1.00000000  1.00000000  1.00000000  1.00000000
  1.00000000  1.00000000  1.00000000  1.00000000  1.00000000
  1.00000000  1.00000000  1.00000000  1.00000000  1.00000000
  1.00000000  1.00000000  1.00000000  1.00000000  1.00000000
  1.00000000  1.00000000  1.00000000  1.00000000  1.00000000
  1.00000000  1.00000000  1.00000000  1.00000000  1.00000000
  1.00000000  1.00000000  1.00000000  0.99999998  0.99999958
  0.99998920  0.99997738  0.99992081  0.99981696  0.99942704
  0.99898560
 Keep R1 and R2 ints in memory in canonical form, NReq=168922287.
 Requested convergence on RMS density matrix=1.00D-08 within 128 cycles.
 Requested convergence on MAX density matrix=1.00D-06.
 Requested convergence on             energy=1.00D-06.
 No special actions if energy rises.
 SCF Done:  E(ROHF) =  -114.467390499     A.U. after   15 cycles
            NFock= 15  Conv=0.70D-08     -V/T= 2.0009
 <Sx>= 0.0000 <Sy>= 0.0000 <Sz>= 0.5000 <S**2>= 0.7500 S= 0.5000
 <L.S>=  0.00000000000    
 Annihilation of the first spin contaminant:
 S**2 before annihilation     0.7500,   after     0.7500

 **********************************************************************

            Population analysis using the SCF Density.

 **********************************************************************

 Orbital symmetries:
       Occupied  (A) (A) (A) (A) (A) (A) (A) (A) (A)
       Virtual   (A) (A) (A) (A) (A) (A) (A) (A) (A) (A) (A) (A)
                 (A) (A) (A) (A) (A) (A) (A) (A) (A) (A) (A) (A)
                 (A) (A) (A) (A) (A) (A) (A) (A) (A) (A) (A) (A)
                 (A) (A) (A) (A) (A) (A) (A) (A) (A) (A) (A) (A)
                 (A) (A) (A) (A) (A) (A) (A) (A) (A) (A) (A) (A)
                 (A) (A) (A) (A) (A) (A) (A) (A) (A) (A) (A) (A)
                 (A) (A) (A) (A) (A) (A) (A) (A) (A) (A) (A) (A)
                 (A) (A) (A) (A) (A) (A) (A) (A) (A) (A) (A) (A)
                 (A) (A) (A) (A) (A) (A) (A) (A) (A) (A) (A) (A)
                 (A) (A) (A) (A) (A) (A) (A) (A) (A) (A) (A) (A)
                 (A) (A) (A) (A) (A) (A) (A) (A) (A) (A) (A) (A)
                 (A) (A) (A) (A) (A) (A) (A) (A) (A) (A) (A) (A)
                 (A) (A) (A) (A) (A) (A) (A)
 The electronic state is 2-A.
 Alpha  occ. eigenvalues --  -20.58123 -11.26552  -1.38661  -0.88051  -0.71113
 Alpha  occ. eigenvalues --   -0.62120  -0.55100  -0.51944  -0.05154
 Alpha virt. eigenvalues --    0.05673   0.06787   0.07345   0.08423   0.15323
 Alpha virt. eigenvalues --    0.16173   0.18326   0.20623   0.23483   0.24547
 Alpha virt. eigenvalues --    0.28614   0.32103   0.37347   0.42609   0.44127
 Alpha virt. eigenvalues --    0.46041   0.48913   0.51544   0.53421   0.54319
 Alpha virt. eigenvalues --    0.57451   0.58369   0.61982   0.63920   0.68936
 Alpha virt. eigenvalues --    0.72612   0.75156   0.75724   0.83431   0.90784
 Alpha virt. eigenvalues --    0.92247   0.96782   1.01686   1.04157   1.08212
 Alpha virt. eigenvalues --    1.12221   1.19065   1.30263   1.39239   1.43531
 Alpha virt. eigenvalues --    1.45940   1.47480   1.52339   1.53121   1.54528
 Alpha virt. eigenvalues --    1.57063   1.59481   1.65206   1.68665   1.71485
 Alpha virt. eigenvalues --    1.75074   1.80895   1.82161   1.85778   1.87478
 Alpha virt. eigenvalues --    1.89069   1.91648   1.92984   1.95993   1.98320
 Alpha virt. eigenvalues --    2.01179   2.09808   2.15246   2.17017   2.18964
 Alpha virt. eigenvalues --    2.23956   2.27598   2.29841   2.32924   2.37216
 Alpha virt. eigenvalues --    2.41012   2.41940   2.45990   2.52034   2.60137
 Alpha virt. eigenvalues --    2.70375   2.76136   2.81836   2.89834   2.95409
 Alpha virt. eigenvalues --    2.98028   3.02907   3.09405   3.17483   3.25372
 Alpha virt. eigenvalues --    3.33628   3.39569   3.45051   3.51335   3.62022
 Alpha virt. eigenvalues --    3.65547   3.81201   3.92824   3.94438   3.99025
 Alpha virt. eigenvalues --    4.08000   4.15103   4.20685   4.42005   4.66972
 Alpha virt. eigenvalues --    4.82714   4.84280   4.86347   4.94772   5.07618
 Alpha virt. eigenvalues --    5.27470   5.34642   5.38858   5.43088   5.57830
 Alpha virt. eigenvalues --    5.71905   5.77167   5.84875   5.92886   6.18222
 Alpha virt. eigenvalues --    6.22891   6.32051   6.46849   7.06206   7.11895
 Alpha virt. eigenvalues --    7.12955   7.15454   7.24793   7.39729   7.62784
 Alpha virt. eigenvalues --    7.68569   8.14256   8.17301   8.22109   8.45125
 Alpha virt. eigenvalues --    8.81151   9.08633   9.18187   9.33924   9.38706
 Alpha virt. eigenvalues --    9.95872  10.40380  10.72326  11.31857  11.50677
 Alpha virt. eigenvalues --   11.52770  12.02790  12.51043  20.60322  21.66185
 Alpha virt. eigenvalues --   21.91377  22.91094  37.57124  37.89262  38.19100
 Alpha virt. eigenvalues --   43.24651
          Condensed to atoms (all electrons):
               1          2          3          4          5
     1  C    5.122284   0.113323   0.431204   0.394483  -0.014228
     2  O    0.113323   8.295027  -0.052704  -0.032195   0.253803
     3  H    0.431204  -0.052704   0.510343  -0.029238   0.006882
     4  H    0.394483  -0.032195  -0.029238   0.577717  -0.008150
     5  H   -0.014228   0.253803   0.006882  -0.008150   0.368269
          Atomic-Atomic Spin Densities.
               1          2          3          4          5
     1  C    1.080627  -0.140960  -0.007195  -0.021115  -0.007649
     2  O   -0.140960   0.191764  -0.002150  -0.003355   0.005032
     3  H   -0.007195  -0.002150   0.017820   0.011267   0.000596
     4  H   -0.021115  -0.003355   0.011267   0.036410   0.001619
     5  H   -0.007649   0.005032   0.000596   0.001619   0.001200
 Mulliken charges and spin densities:
               1          2
     1  C   -0.047066   0.903708
     2  O   -0.577253   0.050331
     3  H    0.133513   0.020338
     4  H    0.097384   0.024825
     5  H    0.393423   0.000798
 Sum of Mulliken charges =  -0.00000   1.00000
 Mulliken charges and spin densities with hydrogens summed into heavy atoms:
               1          2
     1  C    0.183830   0.948871
     2  O   -0.183830   0.051129
 Electronic spatial extent (au):  <R**2>=             73.5049
 Charge=             -0.0000 electrons
 Dipole moment (field-independent basis, Debye):
    X=             -0.2986    Y=              1.5580    Z=              0.1843  Tot=              1.5970
 Quadrupole moment (field-independent basis, Debye-Ang):
   XX=            -11.8046   YY=            -10.9371   ZZ=            -14.2669
   XY=              2.2225   XZ=             -0.5969   YZ=             -0.0280
 Traceless Quadrupole moment (field-independent basis, Debye-Ang):
   XX=              0.5316   YY=              1.3991   ZZ=             -1.9307
   XY=              2.2225   XZ=             -0.5969   YZ=             -0.0280
 Octapole moment (field-independent basis, Debye-Ang**2):
  XXX=              4.9304  YYY=              1.2551  ZZZ=              0.7559  XYY=              1.1730
  XXY=              2.1804  XXZ=              0.3683  XZZ=              2.0153  YZZ=              0.0490
  YYZ=              0.2898  XYZ=             -0.1928
 Hexadecapole moment (field-independent basis, Debye-Ang**3):
 XXXX=            -55.1025 YYYY=            -18.8736 ZZZZ=            -15.5746 XXXY=              3.9599
 XXXZ=             -1.0689 YYYX=              2.2719 YYYZ=              0.0286 ZZZX=             -0.8770
 ZZZY=              0.0270 XXYY=            -10.4184 XXZZ=            -13.8902 YYZZ=             -6.2950
 XXYZ=             -0.0760 YYXZ=             -0.5369 ZZXY=              0.4873
 N-N= 3.533000161629D+01 E-N=-3.405191827237D+02  KE= 1.143643757288D+02
                          Isotropic Fermi Contact Couplings
        Atom                 a.u.       MegaHertz       Gauss      10(-4) cm-1
     1  C(13)              0.07433      83.56663      29.81865      27.87483
     2  O(17)              0.00223      -1.35440      -0.48328      -0.45178
     3  H(1)               0.00201       8.96554       3.19913       2.99058
     4  H(1)               0.00289      12.91313       4.60773       4.30736
     5  H(1)               0.00016       0.71236       0.25419       0.23762
 --------------------------------------------------------
       Center         ----  Spin Dipole Couplings  ----
                      3XX-RR        3YY-RR        3ZZ-RR
 --------------------------------------------------------
     1   Atom       -0.549140     -0.547773      1.096913
     2   Atom       -0.168552     -0.243994      0.412546
     3   Atom       -0.034874      0.029210      0.005664
     4   Atom       -0.046996      0.038444      0.008552
     5   Atom        0.009307      0.002799     -0.012106
 --------------------------------------------------------
                        XY            XZ            YZ
 --------------------------------------------------------
     1   Atom       -0.003065      0.088782     -0.061932
     2   Atom       -0.006780      0.082078     -0.001776
     3   Atom        0.051385     -0.005677     -0.015567
     4   Atom       -0.041781     -0.006529      0.016820
     5   Atom        0.021802      0.004094      0.001367
 --------------------------------------------------------


 ---------------------------------------------------------------------------------
              Anisotropic Spin Dipole Couplings in Principal Axis System
 ---------------------------------------------------------------------------------

       Atom             a.u.   MegaHertz   Gauss  10(-4) cm-1        Axes

              Baa    -0.5539   -74.333   -26.524   -24.795  0.9960 -0.0689 -0.0562
     1 C(13)  Bbb    -0.5501   -73.816   -26.339   -24.622  0.0708  0.9969  0.0337
              Bcc     1.1040   148.148    52.863    49.417  0.0537 -0.0375  0.9979
 
              Baa    -0.2447    17.703     6.317     5.905  0.0991  0.9950 -0.0097
     2 O(17)  Bbb    -0.1793    12.972     4.629     4.327  0.9856 -0.0995 -0.1370
              Bcc     0.4239   -30.675   -10.946   -10.232  0.1373 -0.0040  0.9905
 
              Baa    -0.0635   -33.874   -12.087   -11.299  0.8712 -0.4894 -0.0387
     3 H(1)   Bbb     0.0010     0.556     0.198     0.186  0.1682  0.2237  0.9600
              Bcc     0.0624    33.318    11.889    11.114  0.4612  0.8429 -0.2772
 
              Baa    -0.0640   -34.165   -12.191   -11.396  0.9257  0.3782 -0.0044
     4 H(1)   Bbb     0.0024     1.291     0.461     0.431  0.1255 -0.2964  0.9468
              Bcc     0.0616    32.874    11.730    10.965 -0.3567  0.8770  0.3219
 
              Baa    -0.0166    -8.875    -3.167    -2.960 -0.6321  0.6835  0.3652
     5 H(1)   Bbb    -0.0119    -6.327    -2.257    -2.110  0.1692 -0.3381  0.9258
              Bcc     0.0285    15.201     5.424     5.071  0.7562  0.6469  0.0980
 

 ---------------------------------------------------------------------------------

 1\1\GINC-GAMBA\SP\ROHF\Gen\C1H3O1(2)\IRIKURA\29-Sep-2023\0\\# rohf/gen
  geom=check guess=check\\hydroxymethyl, ROHF/cc-pVTZ-F12\\0,2\C,0,-0.6
 84188,0.027583,-0.057847\O,0,0.669485,-0.125548,0.01994\H,0,-1.235869,
 -0.885407,0.091443\H,0,-1.116969,0.995427,0.151952\H,0,1.102082,0.7288
 61,-0.055829\\Version=ES64L-G16RevB.01\State=2-A\HF=-114.4673905\RMSD=
 6.988e-09\Dipole=-0.1174832,0.6129514,0.0725264\Quadrupole=0.3952592,1
 .0401729,-1.4354321,1.6523853,-0.4437736,-0.0208282\PG=C01 [X(C1H3O1)]
 \\@


 A HARD FALL SHOULD MEAN A HIGH BOUNCE 
 IF ONE IS MADE OF THE RIGHT MATERIAL.

                -- THE CHEMIST ANALYST, MARCH 1950
 Job cpu time:       0 days  0 hours  0 minutes 18.9 seconds.
 Elapsed time:       0 days  0 hours  0 minutes  7.7 seconds.
 File lengths (MBytes):  RWF=     14 Int=      0 D2E=      0 Chk=      4 Scr=      1
 Normal termination of Gaussian 16 at Fri Sep 29 16:27:09 2023.
