 Entering Gaussian System, Link 0=g16
 AtFile(1): pcseg2.gbs
            -H     0
            S   4   1.00
                  0.754732D+02           0.427821D-02
                  0.113575D+02           0.328672D-01
                  0.260081D+01           0.159578D+00
                  0.735503D+00           0.500000D+00
            S   1   1.00
                  0.231761D+00           1.0000000
            S   1   1.00
                  0.741675D-01           1.0000000
            P   1   1.00
                  0.160000D+01           1.0000000
            P   1   1.00
                  0.450000D+00           1.0000000
            D   1   1.00
                  0.125000D+01           1.0000000
            ****
            -C     0
            S   7   1.00
                  0.731999D+04           0.695369D-03
                  0.109818D+04           0.537138D-02
                  0.250014D+03           0.274734D-01
                  0.707586D+02           0.105078D+00
                  0.228595D+02           0.291262D+00
                  0.803936D+01           0.500000D+00
                  0.289309D+01           0.362224D+00
            S   2   1.00
                  0.521640D+01          -0.957844D-01
                  0.556124D+00           0.500000D+00
            S   1   1.00
                  0.228813D+00           1.0000000
            S   1   1.00
                  0.936338D-01           1.0000000
            P   4   1.00
                  0.339855D+02           0.818395D-02
                  0.772957D+01           0.586921D-01
                  0.224954D+01           0.222514D+00
                  0.767681D+00           0.500000D+00
            P   1   1.00
                  0.263283D+00           1.0000000
            P   1   1.00
                  0.848744D-01           1.0000000
            D   1   1.00
                  0.140000D+01           1.0000000
            D   1   1.00
                  0.450000D+00           1.0000000
            F   1   1.00
                  0.950000D+00           1.0000000
            ****
            -O     0
            S   7   1.00
                  0.135887D+05           0.665492D-03
                  0.203847D+04           0.514222D-02
                  0.464041D+03           0.263472D-01
                  0.131339D+03           0.101500D+00
                  0.425340D+02           0.285877D+00
                  0.150429D+02           0.500000D+00
                  0.546616D+01           0.368211D+00
            S   2   1.00
                  0.100915D+02          -0.100084D+00
                  0.110429D+01           0.500000D+00
            S   1   1.00
                  0.448082D+00           1.0000000
            S   1   1.00
                  0.175325D+00           1.0000000
            P   4   1.00
                  0.608220D+02           0.908253D-02
                  0.140332D+02           0.645878D-01
                  0.418244D+01           0.241502D+00
                  0.142490D+01           0.500000D+00
            P   1   1.00
                  0.478741D+00           1.0000000
            P   1   1.00
                  0.146257D+00           1.0000000
            D   1   1.00
                  0.220000D+01           1.0000000
            D   1   1.00
                  0.650000D+00           1.0000000
            F   1   1.00
                  0.110000D+01           1.0000000
            ****
            -N     0
            S   7   1.00
                  0.101643D+05           0.682757D-03
                  0.152481D+04           0.527488D-02
                  0.347119D+03           0.270037D-01
                  0.982389D+02           0.103673D+00
                  0.317799D+02           0.289575D+00
                  0.112240D+02           0.500000D+00
                  0.406611D+01           0.364621D+00
            S   2   1.00
                  0.747898D+01          -0.975681D-01
                  0.805040D+00           0.500000D+00
            S   1   1.00
                  0.324626D+00           1.0000000
            S   1   1.00
                  0.128132D+00           1.0000000
            P   4   1.00
                  0.482704D+02           0.829547D-02
                  0.110815D+02           0.596223D-01
                  0.326643D+01           0.227889D+00
                  0.111680D+01           0.500000D+00
            P   1   1.00
                  0.382049D+00           1.0000000
            P   1   1.00
                  0.121222D+00           1.0000000
            D   1   1.00
                  0.180000D+01           1.0000000
            D   1   1.00
                  0.550000D+00           1.0000000
            F   1   1.00
                  0.102000D+01           1.0000000
            ****
            -F     0
            S   7   1.00
                  0.174507D+05           0.655972D-03
                  0.261768D+04           0.506944D-02
                  0.595857D+03           0.259899D-01
                  0.168651D+03           0.100353D+00
                  0.546654D+02           0.284095D+00
                  0.193717D+02           0.500000D+00
                  0.706202D+01           0.370721D+00
            S   2   1.00
                  0.131197D+02          -0.101997D+00
                  0.145046D+01           0.500000D+00
            S   1   1.00
                  0.588255D+00           1.0000000
            S   1   1.00
                  0.227960D+00           1.0000000
            P   4   1.00
                  0.779407D+02           0.931135D-02
                  0.180425D+02           0.663964D-01
                  0.542342D+01           0.246386D+00
                  0.184876D+01           0.500000D+00
            P   1   1.00
                  0.617455D+00           1.0000000
            P   1   1.00
                  0.185496D+00           1.0000000
            D   1   1.00
                  0.280000D+01           1.0000000
            D   1   1.00
                  0.800000D+00           1.0000000
            F   1   1.00
                  0.120000D+01           1.0000000
            ****
            -Cl     0
            S   8   1.00
                  0.154272D+06           0.222473D-03
                  0.231232D+05           0.172590D-02
                  0.526257D+04           0.899286D-02
                  0.148995D+04           0.367724D-01
                  0.485417D+03           0.121446D+00
                  0.174634D+03           0.304148D+00
                  0.672393D+02           0.500000D+00
                  0.265780D+02           0.360252D+00
            S   3   1.00
                  0.131826D+03          -0.531330D-01
                  0.400703D+02          -0.233346D+00
                  0.789448D+01           0.500000D+00
            S   2   1.00
                  0.427711D+01           0.500000D+00
                  0.196233D+01           0.370517D+00
            S   1   1.00
                  0.520793D+00           1.0000000
            S   1   1.00
                  0.181633D+00           1.0000000
            P   7   1.00
                  0.124440D+04           0.988206D-03
                  0.295109D+03           0.829674D-02
                  0.947224D+02           0.430906D-01
                  0.352588D+02           0.148443D+00
                  0.144211D+02           0.344744D+00
                  0.610371D+01           0.500000D+00
                  0.258886D+01           0.348278D+00
            P   2   1.00
                  0.109447D+02          -0.196768D-01
                  0.104413D+01           0.500000D+00
            P   1   1.00
                  0.376184D+00           1.0000000
            P   1   1.00
                  0.120613D+00           1.0000000
            D   1   1.00
                  0.231000D+01           1.0000000
            D   1   1.00
                  0.520000D+00           1.0000000
            F   1   1.00
                  0.720000D+00           1.0000000
            ****
            -S     0
            S   8   1.00
                  0.134700D+06           0.226231D-03
                  0.201904D+05           0.175488D-02
                  0.459528D+04           0.914190D-02
                  0.130109D+04           0.373551D-01
                  0.423902D+03           0.123121D+00
                  0.152485D+03           0.306801D+00
                  0.586925D+02           0.500000D+00
                  0.231461D+02           0.354358D+00
            S   3   1.00
                  0.116327D+03          -0.491772D-01
                  0.352841D+02          -0.215962D+00
                  0.677831D+01           0.500000D+00
            S   2   1.00
                  0.360404D+01           0.500000D+00
                  0.164871D+01           0.366278D+00
            S   1   1.00
                  0.421821D+00           1.0000000
            S   1   1.00
                  0.147554D+00           1.0000000
            P   7   1.00
                  0.104863D+04           0.105273D-02
                  0.248717D+03           0.879338D-02
                  0.797887D+02           0.453358D-01
                  0.296023D+02           0.154476D+00
                  0.120627D+02           0.352366D+00
                  0.507628D+01           0.500000D+00
                  0.213375D+01           0.346429D+00
            P   2   1.00
                  0.928958D+01          -0.185932D-01
                  0.837819D+00           0.500000D+00
            P   1   1.00
                  0.301495D+00           1.0000000
            P   1   1.00
                  0.974740D-01           1.0000000
            D   1   1.00
                  0.210000D+01           1.0000000
            D   1   1.00
                  0.480000D+00           1.0000000
            F   1   1.00
                  0.660000D+00           1.0000000
            ****
            -Br     0
            S    10   1.00
                  0.233625D+07           0.532336D-04
                  0.349961D+06           0.413715D-03
                  0.796444D+05           0.217123D-02
                  0.225555D+05           0.910109D-02
                  0.735546D+04           0.323789D-01
                  0.265352D+04           0.988755D-01
                  0.103517D+04           0.248138D+00
                  0.422205D+03           0.474328D+00
                  0.180035D+03           0.500000D+00
                  0.793308D+02           0.187769D+00
            S    4   1.00
                  0.620834D+03          -0.226511D-01
                  0.190829D+03          -0.109497D+00
                  0.312505D+02           0.500000D+00
                  0.135270D+02           0.492812D+00
            S    2   1.00
                  0.216097D+02          -0.165418D+00
                  0.372566D+01           0.500000D+00
            S    1   1.00
                  0.169770D+01           1.0000000
            S    1   1.00
                  0.489332D+00           1.0000000
            S    1   1.00
                  0.175712D+00           1.0000000
            P    8   1.00
                  0.960829D+04           0.478974D-03
                  0.227618D+04           0.417853D-02
                  0.736723D+03           0.229315D-01
                  0.281579D+03           0.892653D-01
                  0.118395D+03           0.255288D+00
                  0.527481D+02           0.479074D+00
                  0.245098D+02           0.500000D+00
                  0.112009D+02           0.200944D+00
            P    4   1.00
                  0.587849D+02          -0.189674D-01
                  0.918962D+01           0.264104D+00
                  0.413895D+01           0.500000D+00
                  0.184225D+01           0.319316D+00
            P    1   1.00
                  0.713862D+00           1.0000000
            P    1   1.00
                  0.274232D+00           1.0000000
            P    1   1.00
                  0.944411D-01           1.0000000
            D    7   1.00
                  0.398470D+03           0.204066D-02
                  0.118967D+03           0.175171D-01
                  0.450197D+02           0.829708D-01
                  0.190320D+02           0.236284D+00
                  0.855686D+01           0.428468D+00
                  0.382950D+01           0.500000D+00
                  0.166291D+01           0.349360D+00
            D    1   1.00
                  0.672953D+00           1.0000000
            D    1   1.00
                  0.252000D+00           1.0000000
            F    1   1.00
                  0.530000D+00           1.0000000
            ****
            -Si     0
            S    8   1.00
                  0.996133D+05           0.235546D-03
                  0.149311D+05           0.182707D-02
                  0.339820D+04           0.951425D-02
                  0.962140D+03           0.388172D-01
                  0.313430D+03           0.127328D+00
                  0.112683D+03           0.313522D+00
                  0.433372D+02           0.500000D+00
                  0.170029D+02           0.340347D+00
            S    3   1.00
                  0.884208D+02          -0.404451D-01
                  0.266756D+02          -0.178059D+00
                  0.479640D+01           0.500000D+00
            S    2   1.00
                  0.239385D+01           0.500000D+00
                  0.108333D+01           0.338016D+00
            S    1   1.00
                  0.252420D+00           1.0000000
            S    1   1.00
                  0.891210D-01           1.0000000
            P    7   1.00
                  0.709901D+03           0.123028D-02
                  0.168426D+03           0.101366D-01
                  0.539946D+02           0.511840D-01
                  0.198646D+02           0.169967D+00
                  0.801369D+01           0.370717D+00
                  0.331870D+01           0.500000D+00
                  0.136112D+01           0.344128D+00
            P    2   1.00
                  0.622158D+01          -0.166609D-01
                  0.503049D+00           0.500000D+00
            P    1   1.00
                  0.179848D+00           1.0000000
            P    1   1.00
                  0.591912D-01           1.0000000
            D    1   1.00
                  0.168000D+01           1.0000000
            D    1   1.00
                  0.380000D+00           1.0000000
            F    1   1.00
                  0.540000D+00           1.0000000
            ****
            -P     0
            S    8   1.00
                  0.116416D+06           0.230715D-03
                  0.174500D+05           0.178960D-02
                  0.397149D+04           0.932116D-02
                  0.112447D+04           0.380591D-01
                  0.366347D+03           0.125148D+00
                  0.131757D+03           0.310022D+00
                  0.506988D+02           0.500000D+00
                  0.199436D+02           0.347528D+00
            S    3   1.00
                  0.101878D+03          -0.446755D-01
                  0.308249D+02          -0.196376D+00
                  0.573688D+01           0.500000D+00
            S    2   1.00
                  0.296868D+01           0.500000D+00
                  0.135315D+01           0.355098D+00
            S    1   1.00
                  0.332196D+00           1.0000000
            S    1   1.00
                  0.116229D+00           1.0000000
            P    7   1.00
                  0.873928D+03           0.112375D-02
                  0.207298D+03           0.933330D-02
                  0.664628D+02           0.477213D-01
                  0.245665D+02           0.160733D+00
                  0.996820D+01           0.359760D+00
                  0.416536D+01           0.500000D+00
                  0.173022D+01           0.346593D+00
            P    2   1.00
                  0.772530D+01          -0.175718D-01
                  0.657252D+00           0.500000D+00
            P    1   1.00
                  0.239903D+00           1.0000000
            P    1   1.00
                  0.800988D-01           1.0000000
            D    1   1.00
                  0.189000D+01           1.0000000
            D    1   1.00
                  0.430000D+00           1.0000000
            F    1   1.00
                  0.600000D+00           1.0000000
            ****
            
 Initial command:
 /usr/local/apps/g16_b01_avx/g16/l1.exe "/wrk/irikura/Gau-18907.inp" -scrdir="/wrk/irikura/"
 Entering Link 1 = /usr/local/apps/g16_b01_avx/g16/l1.exe PID=     18909.
  
 Copyright (c) 1988-2017, Gaussian, Inc.  All Rights Reserved.
  
 This is part of the Gaussian(R) 16 program.  It is based on
 the Gaussian(R) 09 system (copyright 2009, Gaussian, Inc.),
 the Gaussian(R) 03 system (copyright 2003, Gaussian, Inc.),
 the Gaussian(R) 98 system (copyright 1998, Gaussian, Inc.),
 the Gaussian(R) 94 system (copyright 1995, Gaussian, Inc.),
 the Gaussian 92(TM) system (copyright 1992, Gaussian, Inc.),
 the Gaussian 90(TM) system (copyright 1990, Gaussian, Inc.),
 the Gaussian 88(TM) system (copyright 1988, Gaussian, Inc.),
 the Gaussian 86(TM) system (copyright 1986, Carnegie Mellon
 University), and the Gaussian 82(TM) system (copyright 1983,
 Carnegie Mellon University). Gaussian is a federally registered
 trademark of Gaussian, Inc.
  
 This software contains proprietary and confidential information,
 including trade secrets, belonging to Gaussian, Inc.
  
 This software is provided under written license and may be
 used, copied, transmitted, or stored only in accord with that
 written license.
  
 The following legend is applicable only to US Government
 contracts under FAR:
  
                    RESTRICTED RIGHTS LEGEND
  
 Use, reproduction and disclosure by the US Government is
 subject to restrictions as set forth in subparagraphs (a)
 and (c) of the Commercial Computer Software - Restricted
 Rights clause in FAR 52.227-19.
  
 Gaussian, Inc.
 340 Quinnipiac St., Bldg. 40, Wallingford CT 06492
  
  
 ---------------------------------------------------------------
 Warning -- This program may not be used in any manner that
 competes with the business of Gaussian, Inc. or will provide
 assistance to any competitor of Gaussian, Inc.  The licensee
 of this program is prohibited from giving any competitor of
 Gaussian, Inc. access to this program.  By using this program,
 the user acknowledges that Gaussian, Inc. is engaged in the
 business of creating and licensing software in the field of
 computational chemistry and represents and warrants to the
 licensee that it is not a competitor of Gaussian, Inc. and that
 it will not use this program in any manner prohibited above.
 ---------------------------------------------------------------
  

 Cite this work as:
 Gaussian 16, Revision B.01,
 M. J. Frisch, G. W. Trucks, H. B. Schlegel, G. E. Scuseria, 
 M. A. Robb, J. R. Cheeseman, G. Scalmani, V. Barone, 
 G. A. Petersson, H. Nakatsuji, X. Li, M. Caricato, A. V. Marenich, 
 J. Bloino, B. G. Janesko, R. Gomperts, B. Mennucci, H. P. Hratchian, 
 J. V. Ortiz, A. F. Izmaylov, J. L. Sonnenberg, D. Williams-Young, 
 F. Ding, F. Lipparini, F. Egidi, J. Goings, B. Peng, A. Petrone, 
 T. Henderson, D. Ranasinghe, V. G. Zakrzewski, J. Gao, N. Rega, 
 G. Zheng, W. Liang, M. Hada, M. Ehara, K. Toyota, R. Fukuda, 
 J. Hasegawa, M. Ishida, T. Nakajima, Y. Honda, O. Kitao, H. Nakai, 
 T. Vreven, K. Throssell, J. A. Montgomery, Jr., J. E. Peralta, 
 F. Ogliaro, M. J. Bearpark, J. J. Heyd, E. N. Brothers, K. N. Kudin, 
 V. N. Staroverov, T. A. Keith, R. Kobayashi, J. Normand, 
 K. Raghavachari, A. P. Rendell, J. C. Burant, S. S. Iyengar, 
 J. Tomasi, M. Cossi, J. M. Millam, M. Klene, C. Adamo, R. Cammi, 
 J. W. Ochterski, R. L. Martin, K. Morokuma, O. Farkas, 
 J. B. Foresman, and D. J. Fox, Gaussian, Inc., Wallingford CT, 2016.
 
 ******************************************
 Gaussian 16:  ES64L-G16RevB.01 20-Dec-2017
                17-Jun-2022 
 ******************************************
 %mem=1000mw
 %nprocs=12
 Will use up to   12 processors via shared memory.
 --------------------
 # b3lyp/gen opt freq
 --------------------
 1/18=20,19=15,26=3,38=1/1,3;
 2/9=110,12=2,17=6,18=5,40=1/2;
 3/5=7,11=2,25=1,30=1,71=1,74=-5/1,2,3;
 4//1;
 5/5=2,38=5/2;
 6/7=2,8=2,9=2,10=2,28=1/1;
 7//1,2,3,16;
 1/18=20,19=15,26=3/3(2);
 2/9=110/2;
 99//99;
 2/9=110/2;
 3/5=7,6=1,11=2,25=1,30=1,71=1,74=-5,82=7/1,2,3;
 4/5=5,16=3,69=1/1;
 5/5=2,38=5/2;
 7//1,2,3,16;
 1/18=20,19=15,26=3/3(-5);
 2/9=110/2;
 6/7=2,8=2,9=2,10=2,19=2,28=1/1;
 99/9=1/99;
 --------------------------------
 hydroperoxymethyl, B3LYP/pcseg-2
 --------------------------------
 Symbolic Z-matrix:
 Charge =  0 Multiplicity = 2
 C                    -1.16702   0.3154    0.05707 
 O                    -0.11788  -0.54057  -0.03683 
 H                    -1.08081   1.26628  -0.45895 
 H                    -2.10324  -0.22925   0.11205 
 O                     1.11125   0.22312  -0.04127 
 H                     1.31399   0.24559   0.90692 
 

 GradGradGradGradGradGradGradGradGradGradGradGradGradGradGradGradGradGrad
 Berny optimization.
 Initialization pass.
                           ----------------------------
                           !    Initial Parameters    !
                           ! (Angstroms and Degrees)  !
 --------------------------                            --------------------------
 ! Name  Definition              Value          Derivative Info.                !
 --------------------------------------------------------------------------------
 ! R1    R(1,2)                  1.3573         estimate D2E/DX2                !
 ! R2    R(1,3)                  1.0853         estimate D2E/DX2                !
 ! R3    R(1,4)                  1.0845         estimate D2E/DX2                !
 ! R4    R(2,5)                  1.4471         estimate D2E/DX2                !
 ! R5    R(5,6)                  0.9699         estimate D2E/DX2                !
 ! A1    A(2,1,3)              117.2738         estimate D2E/DX2                !
 ! A2    A(2,1,4)              110.7365         estimate D2E/DX2                !
 ! A3    A(3,1,4)              122.1865         estimate D2E/DX2                !
 ! A4    A(1,2,5)              108.9017         estimate D2E/DX2                !
 ! A5    A(2,5,6)              100.7647         estimate D2E/DX2                !
 ! D1    D(3,1,2,5)             36.0622         estimate D2E/DX2                !
 ! D2    D(4,1,2,5)           -177.217          estimate D2E/DX2                !
 ! D3    D(2,1,3,4)            142.6733         estimate D2E/DX2                !
 ! D4    D(1,2,5,6)             91.161          estimate D2E/DX2                !
 --------------------------------------------------------------------------------
 Trust Radius=3.00D-01 FncErr=1.00D-07 GrdErr=1.00D-06 EigMax=2.50D+02 EigMin=1.00D-04
 Number of steps in this run=     24 maximum allowed number of steps=    100.
 GradGradGradGradGradGradGradGradGradGradGradGradGradGradGradGradGradGrad

                          Input orientation:                          
 ---------------------------------------------------------------------
 Center     Atomic      Atomic             Coordinates (Angstroms)
 Number     Number       Type             X           Y           Z
 ---------------------------------------------------------------------
      1          6           0       -1.167016    0.315400    0.057071
      2          8           0       -0.117875   -0.540565   -0.036828
      3          1           0       -1.080806    1.266275   -0.458954
      4          1           0       -2.103240   -0.229253    0.112047
      5          8           0        1.111246    0.223124   -0.041274
      6          1           0        1.313987    0.245591    0.906917
 ---------------------------------------------------------------------
                    Distance matrix (angstroms):
                    1          2          3          4          5
     1  C    0.000000
     2  O    1.357273   0.000000
     3  H    1.085301   2.090478   0.000000
     4  H    1.084520   2.015131   1.899478   0.000000
     5  O    2.282250   1.447059   2.463273   3.249780   0.000000
     6  H    2.623450   1.886511   2.939802   3.540443   0.969884
                    6
     6  H    0.000000
 Stoichiometry    CH3O2(2)
 Framework group  C1[X(CH3O2)]
 Deg. of freedom    12
 Full point group                 C1      NOp   1
 Largest Abelian subgroup         C1      NOp   1
 Largest concise Abelian subgroup C1      NOp   1
                         Standard orientation:                         
 ---------------------------------------------------------------------
 Center     Atomic      Atomic             Coordinates (Angstroms)
 Number     Number       Type             X           Y           Z
 ---------------------------------------------------------------------
      1          6           0       -1.131730    0.271416    0.092957
      2          8           0       -0.075033   -0.564173   -0.072484
      3          1           0       -1.073220    1.246767   -0.379424
      4          1           0       -2.058844   -0.288459    0.149390
      5          8           0        1.143541    0.216236   -0.076628
      6          1           0        1.374377    0.196693    0.865183
 ---------------------------------------------------------------------
 Rotational constants (GHZ):          52.9994042          11.2721134           9.7027415
 General basis read from cards:  (5D, 7F)
 There are   150 symmetry adapted cartesian basis functions of A   symmetry.
 There are   132 symmetry adapted basis functions of A   symmetry.
   132 basis functions,   207 primitive gaussians,   150 cartesian basis functions
    13 alpha electrons       12 beta electrons
       nuclear repulsion energy        74.6757992351 Hartrees.
 NAtoms=    6 NActive=    6 NUniq=    6 SFac= 1.00D+00 NAtFMM=   60 NAOKFM=F Big=F
 Integral buffers will be    131072 words long.
 Raffenetti 2 integral format.
 Two-electron integral symmetry is turned on.
 One-electron integrals computed using PRISM.
 NBasis=   132 RedAO= T EigKep=  2.01D-03  NBF=   132
 NBsUse=   132 1.00D-06 EigRej= -1.00D+00 NBFU=   132
 ExpMin= 7.42D-02 ExpMax= 1.36D+04 ExpMxC= 4.64D+02 IAcc=3 IRadAn=         5 AccDes= 0.00D+00
 Harris functional with IExCor=  402 and IRadAn=       5 diagonalized for initial guess.
 HarFok:  IExCor=  402 AccDes= 0.00D+00 IRadAn=         5 IDoV= 1 UseB2=F ITyADJ=14
 ICtDFT=  3500011 ScaDFX=  1.000000  1.000000  1.000000  1.000000
 FoFCou: FMM=F IPFlag=           0 FMFlag=      100000 FMFlg1=           0
         NFxFlg=           0 DoJE=T BraDBF=F KetDBF=T FulRan=T
         wScrn=  0.000000 ICntrl=       500 IOpCl=  0 I1Cent=   200000004 NGrid=           0
         NMat0=    1 NMatS0=      1 NMatT0=    0 NMatD0=    1 NMtDS0=    0 NMtDT0=    0
 Petite list used in FoFCou.
 Initial guess <Sx>= 0.0000 <Sy>= 0.0000 <Sz>= 0.5000 <S**2>= 0.7500 S= 0.5000
 Keep R1 and R2 ints in memory in canonical form, NReq=88779124.
 Requested convergence on RMS density matrix=1.00D-08 within 128 cycles.
 Requested convergence on MAX density matrix=1.00D-06.
 Requested convergence on             energy=1.00D-06.
 No special actions if energy rises.
 Integral accuracy reduced to 1.0D-05 until final iterations.
 Initial convergence to 1.0D-05 achieved.  Increase integral accuracy.
 SCF Done:  E(UB3LYP) =  -190.276890111     A.U. after   16 cycles
            NFock= 16  Conv=0.56D-08     -V/T= 2.0031
 <Sx>= 0.0000 <Sy>= 0.0000 <Sz>= 0.5000 <S**2>= 0.7540 S= 0.5020
 <L.S>=  0.00000000000    
 Annihilation of the first spin contaminant:
 S**2 before annihilation     0.7540,   after     0.7500

 **********************************************************************

            Population analysis using the SCF Density.

 **********************************************************************

 Orbital symmetries:
 Alpha Orbitals:
       Occupied  (A) (A) (A) (A) (A) (A) (A) (A) (A) (A) (A) (A)
                 (A)
       Virtual   (A) (A) (A) (A) (A) (A) (A) (A) (A) (A) (A) (A)
                 (A) (A) (A) (A) (A) (A) (A) (A) (A) (A) (A) (A)
                 (A) (A) (A) (A) (A) (A) (A) (A) (A) (A) (A) (A)
                 (A) (A) (A) (A) (A) (A) (A) (A) (A) (A) (A) (A)
                 (A) (A) (A) (A) (A) (A) (A) (A) (A) (A) (A) (A)
                 (A) (A) (A) (A) (A) (A) (A) (A) (A) (A) (A) (A)
                 (A) (A) (A) (A) (A) (A) (A) (A) (A) (A) (A) (A)
                 (A) (A) (A) (A) (A) (A) (A) (A) (A) (A) (A) (A)
                 (A) (A) (A) (A) (A) (A) (A) (A) (A) (A) (A) (A)
                 (A) (A) (A) (A) (A) (A) (A) (A) (A) (A) (A)
 Beta  Orbitals:
       Occupied  (A) (A) (A) (A) (A) (A) (A) (A) (A) (A) (A) (A)
       Virtual   (A) (A) (A) (A) (A) (A) (A) (A) (A) (A) (A) (A)
                 (A) (A) (A) (A) (A) (A) (A) (A) (A) (A) (A) (A)
                 (A) (A) (A) (A) (A) (A) (A) (A) (A) (A) (A) (A)
                 (A) (A) (A) (A) (A) (A) (A) (A) (A) (A) (A) (A)
                 (A) (A) (A) (A) (A) (A) (A) (A) (A) (A) (A) (A)
                 (A) (A) (A) (A) (A) (A) (A) (A) (A) (A) (A) (A)
                 (A) (A) (A) (A) (A) (A) (A) (A) (A) (A) (A) (A)
                 (A) (A) (A) (A) (A) (A) (A) (A) (A) (A) (A) (A)
                 (A) (A) (A) (A) (A) (A) (A) (A) (A) (A) (A) (A)
                 (A) (A) (A) (A) (A) (A) (A) (A) (A) (A) (A) (A)
 The electronic state is 2-A.
 Alpha  occ. eigenvalues --  -19.22617 -19.20060 -10.23323  -1.15832  -0.95008
 Alpha  occ. eigenvalues --   -0.67353  -0.56246  -0.49730  -0.48575  -0.42609
 Alpha  occ. eigenvalues --   -0.36503  -0.32632  -0.20502
 Alpha virt. eigenvalues --   -0.01624   0.01533   0.04041   0.07272   0.11435
 Alpha virt. eigenvalues --    0.17462   0.21644   0.23799   0.26652   0.30264
 Alpha virt. eigenvalues --    0.32228   0.33735   0.34372   0.35249   0.40043
 Alpha virt. eigenvalues --    0.42657   0.43779   0.49384   0.66916   0.70597
 Alpha virt. eigenvalues --    0.71919   0.77602   0.84135   0.88206   0.92338
 Alpha virt. eigenvalues --    0.98512   0.98922   1.01553   1.08053   1.11797
 Alpha virt. eigenvalues --    1.19350   1.25300   1.28923   1.32979   1.42377
 Alpha virt. eigenvalues --    1.47504   1.55652   1.61310   1.66834   1.68748
 Alpha virt. eigenvalues --    1.75509   1.77895   1.79080   1.89308   1.93757
 Alpha virt. eigenvalues --    2.03430   2.08317   2.11438   2.15437   2.32511
 Alpha virt. eigenvalues --    2.33761   2.40951   2.48051   2.51318   2.73717
 Alpha virt. eigenvalues --    2.97466   3.20138   3.20724   3.31247   3.35508
 Alpha virt. eigenvalues --    3.38032   3.44975   3.50540   3.52155   3.57981
 Alpha virt. eigenvalues --    3.64956   3.67948   3.73940   3.80773   3.84408
 Alpha virt. eigenvalues --    3.89568   3.90638   3.94277   4.03575   4.06365
 Alpha virt. eigenvalues --    4.08473   4.11129   4.11991   4.16417   4.28199
 Alpha virt. eigenvalues --    4.31747   4.35100   4.42542   4.43070   4.44746
 Alpha virt. eigenvalues --    4.46800   4.51059   4.56136   4.61258   4.74969
 Alpha virt. eigenvalues --    4.82724   4.88744   4.94748   5.07077   5.13953
 Alpha virt. eigenvalues --    5.14581   5.20609   5.36940   5.48922   5.60059
 Alpha virt. eigenvalues --    5.66674   5.75607   5.79511   5.89499   5.95304
 Alpha virt. eigenvalues --    6.04567   6.12825   6.16967   6.24605   6.30253
 Alpha virt. eigenvalues --    6.36015   6.45529   6.51740   6.65760   6.68693
 Alpha virt. eigenvalues --    6.91398   6.98325   7.30042   9.13128
  Beta  occ. eigenvalues --  -19.22031 -19.20038 -10.21993  -1.15086  -0.94360
  Beta  occ. eigenvalues --   -0.64941  -0.55293  -0.48931  -0.47608  -0.41038
  Beta  occ. eigenvalues --   -0.34060  -0.32432
  Beta virt. eigenvalues --   -0.06576  -0.00952   0.01767   0.04363   0.07471
  Beta virt. eigenvalues --    0.12034   0.19802   0.22818   0.25092   0.26904
  Beta virt. eigenvalues --    0.30522   0.33425   0.34208   0.35197   0.36128
  Beta virt. eigenvalues --    0.40351   0.42948   0.44050   0.49744   0.67403
  Beta virt. eigenvalues --    0.70894   0.72490   0.78354   0.84893   0.89120
  Beta virt. eigenvalues --    0.92949   0.99530   1.00055   1.02692   1.09182
  Beta virt. eigenvalues --    1.13038   1.20074   1.27868   1.33890   1.35455
  Beta virt. eigenvalues --    1.43109   1.48379   1.56533   1.62083   1.67749
  Beta virt. eigenvalues --    1.70002   1.76040   1.78205   1.79897   1.89895
  Beta virt. eigenvalues --    1.94499   2.03875   2.09027   2.11914   2.16523
  Beta virt. eigenvalues --    2.33674   2.34412   2.42389   2.49105   2.52528
  Beta virt. eigenvalues --    2.74057   2.97919   3.21791   3.22650   3.32495
  Beta virt. eigenvalues --    3.37548   3.39220   3.46107   3.51227   3.52928
  Beta virt. eigenvalues --    3.59214   3.65301   3.68430   3.76247   3.81470
  Beta virt. eigenvalues --    3.86280   3.90423   3.91700   3.95802   4.05038
  Beta virt. eigenvalues --    4.08068   4.11249   4.12285   4.13501   4.17937
  Beta virt. eigenvalues --    4.29148   4.32788   4.35934   4.43470   4.44571
  Beta virt. eigenvalues --    4.45432   4.47868   4.51454   4.56551   4.61820
  Beta virt. eigenvalues --    4.75707   4.83166   4.88914   4.96591   5.07810
  Beta virt. eigenvalues --    5.15350   5.15836   5.21363   5.38367   5.50055
  Beta virt. eigenvalues --    5.61541   5.67840   5.76367   5.80474   5.90417
  Beta virt. eigenvalues --    5.96040   6.04735   6.13637   6.17113   6.25335
  Beta virt. eigenvalues --    6.30840   6.36515   6.46795   6.53020   6.66334
  Beta virt. eigenvalues --    6.69146   6.91774   6.98610   7.30182   9.13377
          Condensed to atoms (all electrons):
               1          2          3          4          5          6
     1  C    4.973700   0.210157   0.402772   0.407754  -0.054156   0.009297
     2  O    0.210157   8.049923  -0.035064  -0.026664   0.005470  -0.023844
     3  H    0.402772  -0.035064   0.612661  -0.037690  -0.000174  -0.002849
     4  H    0.407754  -0.026664  -0.037690   0.598025   0.007852  -0.000277
     5  O   -0.054156   0.005470  -0.000174   0.007852   7.924019   0.312136
     6  H    0.009297  -0.023844  -0.002849  -0.000277   0.312136   0.492233
          Atomic-Atomic Spin Densities.
               1          2          3          4          5          6
     1  C    1.100528  -0.171685  -0.020843   0.004523  -0.016264   0.014653
     2  O   -0.171685   0.305646  -0.003738   0.000241  -0.007806  -0.004665
     3  H   -0.020843  -0.003738   0.004039   0.004319   0.005914  -0.002063
     4  H    0.004523   0.000241   0.004319  -0.034138  -0.000189  -0.000041
     5  O   -0.016264  -0.007806   0.005914  -0.000189   0.023867  -0.009174
     6  H    0.014653  -0.004665  -0.002063  -0.000041  -0.009174   0.013695
 Mulliken charges and spin densities:
               1          2
     1  C    0.050475   0.910911
     2  O   -0.179978   0.117992
     3  H    0.060345  -0.012373
     4  H    0.051001  -0.025284
     5  O   -0.195147  -0.003652
     6  H    0.213304   0.012405
 Sum of Mulliken charges =  -0.00000   1.00000
 Mulliken charges and spin densities with hydrogens summed into heavy atoms:
               1          2
     1  C    0.161821   0.873254
     2  O   -0.179978   0.117992
     5  O    0.018157   0.008753
 Electronic spatial extent (au):  <R**2>=            151.7141
 Charge=             -0.0000 electrons
 Dipole moment (field-independent basis, Debye):
    X=             -0.4523    Y=              0.5361    Z=              1.1928  Tot=              1.3838
 Quadrupole moment (field-independent basis, Debye-Ang):
   XX=            -15.8242   YY=            -18.7431   ZZ=            -17.8786
   XY=              0.3458   XZ=              2.9095   YZ=             -0.3918
 Traceless Quadrupole moment (field-independent basis, Debye-Ang):
   XX=              1.6578   YY=             -1.2611   ZZ=             -0.3967
   XY=              0.3458   XZ=              2.9095   YZ=             -0.3918
 Octapole moment (field-independent basis, Debye-Ang**2):
  XXX=              3.4471  YYY=             -0.6269  ZZZ=              0.4634  XYY=              0.8622
  XXY=             -1.1447  XXZ=              3.4798  XZZ=              5.2997  YZZ=             -0.6432
  YYZ=             -0.7362  XYZ=              1.2675
 Hexadecapole moment (field-independent basis, Debye-Ang**3):
 XXXX=           -120.2251 YYYY=            -38.5939 ZZZZ=            -22.0463 XXXY=              6.1075
 XXXZ=              6.4181 YYYX=              0.5626 YYYZ=             -1.2679 ZZZX=              4.3133
 ZZZY=             -0.4398 XXYY=            -27.3374 XXZZ=            -25.0458 YYZZ=            -10.6543
 XXYZ=             -0.2057 YYXZ=              1.3932 ZZXY=              1.4092
 N-N= 7.467579923506D+01 E-N=-5.975719950331D+02  KE= 1.896821247065D+02
                          Isotropic Fermi Contact Couplings
        Atom                 a.u.       MegaHertz       Gauss      10(-4) cm-1
     1  C(13)              0.19209     215.94560      77.05476      72.03170
     2  O(17)              0.07181     -43.53371     -15.53391     -14.52128
     3  H(1)              -0.00169      -7.54790      -2.69328      -2.51771
     4  H(1)              -0.01023     -45.72548     -16.31599     -15.25238
     5  O(17)              0.05301     -32.13461     -11.46643     -10.71895
     6  H(1)               0.00267      11.93442       4.25850       3.98089
 --------------------------------------------------------
       Center         ----  Spin Dipole Couplings  ----
                      3XX-RR        3YY-RR        3ZZ-RR
 --------------------------------------------------------
     1   Atom       -0.500275     -0.442305      0.942579
     2   Atom       -0.457566     -0.507006      0.964572
     3   Atom       -0.059874      0.053613      0.006261
     4   Atom        0.028439     -0.026296     -0.002143
     5   Atom        0.043334     -0.018177     -0.025157
     6   Atom        0.014567     -0.007083     -0.007484
 --------------------------------------------------------
                        XY            XZ            YZ
 --------------------------------------------------------
     1   Atom        0.054274      0.193815      0.361097
     2   Atom        0.014570     -0.251135     -0.055482
     3   Atom        0.013076      0.007364     -0.023392
     4   Atom        0.057103     -0.002804      0.007879
     5   Atom       -0.003261      0.038153      0.019679
     6   Atom        0.001637      0.004996      0.002100
 --------------------------------------------------------


 ---------------------------------------------------------------------------------
              Anisotropic Spin Dipole Couplings in Principal Axis System
 ---------------------------------------------------------------------------------

       Atom             a.u.   MegaHertz   Gauss  10(-4) cm-1        Axes

              Baa    -0.5354   -71.851   -25.638   -23.967 -0.5746  0.8092 -0.1224
     1 C(13)  Bbb    -0.5216   -69.997   -24.977   -23.348  0.8084  0.5377 -0.2396
              Bcc     1.0571   141.848    50.615    47.315  0.1281  0.2366  0.9631
 
              Baa    -0.5115    37.008    13.205    12.345 -0.4175  0.9079 -0.0369
     2 O(17)  Bbb    -0.4983    36.058    12.866    12.028  0.8928  0.4175  0.1691
              Bcc     1.0098   -73.066   -26.072   -24.372 -0.1689 -0.0376  0.9849
 
              Baa    -0.0629   -33.555   -11.973   -11.193  0.9784 -0.1403 -0.1516
     3 H(1)   Bbb    -0.0010    -0.555    -0.198    -0.185  0.1920  0.3470  0.9180
              Bcc     0.0639    34.110    12.171    11.378  0.0761  0.9273 -0.3664
 
              Baa    -0.0633   -33.796   -12.059   -11.273 -0.5265  0.8398 -0.1323
     4 H(1)   Bbb    -0.0011    -0.589    -0.210    -0.196 -0.0938  0.0972  0.9908
              Bcc     0.0644    34.385    12.269    11.469  0.8450  0.5341  0.0276
 
              Baa    -0.0530     3.832     1.367     1.278 -0.3358 -0.4875  0.8060
     5 O(17)  Bbb    -0.0077     0.560     0.200     0.187 -0.2576  0.8706  0.4192
              Bcc     0.0607    -4.392    -1.567    -1.465  0.9060  0.0668  0.4180
 
              Baa    -0.0097    -5.194    -1.853    -1.733 -0.1294 -0.5653  0.8147
     6 H(1)   Bbb    -0.0061    -3.252    -1.160    -1.085 -0.1951  0.8200  0.5381
              Bcc     0.0158     8.446     3.014     2.817  0.9722  0.0893  0.2164
 

 ---------------------------------------------------------------------------------

 Calling FoFJK, ICntrl=      2127 FMM=F ISym2X=0 I1Cent= 0 IOpClX= 1 NMat=1 NMatS=1 NMatT=0.
 ***** Axes restored to original set *****
 -------------------------------------------------------------------
 Center     Atomic                   Forces (Hartrees/Bohr)
 Number     Number              X              Y              Z
 -------------------------------------------------------------------
      1        6          -0.001974092   -0.001130237   -0.003259994
      2        8          -0.003357294    0.000810410    0.000358532
      3        1          -0.000024762   -0.001833280    0.001831404
      4        1           0.002147381    0.001317112    0.000636410
      5        8           0.002734618    0.000679374    0.002146472
      6        1           0.000474150    0.000156622   -0.001712825
 -------------------------------------------------------------------
 Cartesian Forces:  Max     0.003357294 RMS     0.001780380

 GradGradGradGradGradGradGradGradGradGradGradGradGradGradGradGradGradGrad
 Berny optimization.
 FormGI is forming the generalized inverse of G from B-inverse, IUseBI=4.
 Internal  Forces:  Max     0.003165316 RMS     0.001626306
 Search for a local minimum.
 Step number   1 out of a maximum of   24
 All quantities printed in internal units (Hartrees-Bohrs-Radians)
 Mixed Optimization -- RFO/linear search
 Second derivative matrix not updated -- first step.
 The second derivative matrix:
                          R1        R2        R3        R4        R5
           R1           0.53503
           R2           0.00000   0.35361
           R3           0.00000   0.00000   0.35454
           R4           0.00000   0.00000   0.00000   0.38633
           R5           0.00000   0.00000   0.00000   0.00000   0.53401
           A1           0.00000   0.00000   0.00000   0.00000   0.00000
           A2           0.00000   0.00000   0.00000   0.00000   0.00000
           A3           0.00000   0.00000   0.00000   0.00000   0.00000
           A4           0.00000   0.00000   0.00000   0.00000   0.00000
           A5           0.00000   0.00000   0.00000   0.00000   0.00000
           D1           0.00000   0.00000   0.00000   0.00000   0.00000
           D2           0.00000   0.00000   0.00000   0.00000   0.00000
           D3           0.00000   0.00000   0.00000   0.00000   0.00000
           D4           0.00000   0.00000   0.00000   0.00000   0.00000
                          A1        A2        A3        A4        A5
           A1           0.16000
           A2           0.00000   0.16000
           A3           0.00000   0.00000   0.16000
           A4           0.00000   0.00000   0.00000   0.25000
           A5           0.00000   0.00000   0.00000   0.00000   0.16000
           D1           0.00000   0.00000   0.00000   0.00000   0.00000
           D2           0.00000   0.00000   0.00000   0.00000   0.00000
           D3           0.00000   0.00000   0.00000   0.00000   0.00000
           D4           0.00000   0.00000   0.00000   0.00000   0.00000
                          D1        D2        D3        D4
           D1           0.02257
           D2           0.00000   0.02257
           D3           0.00000   0.00000   0.00297
           D4           0.00000   0.00000   0.00000   0.00672
 ITU=  0
     Eigenvalues ---    0.00672   0.01867   0.02257   0.14916   0.16000
     Eigenvalues ---    0.16000   0.25000   0.35361   0.35454   0.38633
     Eigenvalues ---    0.53401   0.53503
 RFO step:  Lambda=-2.08378606D-04 EMin= 6.72307633D-03
 Linear search not attempted -- first point.
 Iteration  1 RMS(Cart)=  0.02802157 RMS(Int)=  0.00070809
 Iteration  2 RMS(Cart)=  0.00054828 RMS(Int)=  0.00016694
 Iteration  3 RMS(Cart)=  0.00000009 RMS(Int)=  0.00016694
 Variable       Old X    -DE/DX   Delta X   Delta X   Delta X     New X
                                 (Linear)    (Quad)   (Total)
    R1        2.56487  -0.00121   0.00000  -0.00226  -0.00226   2.56262
    R2        2.05092  -0.00248   0.00000  -0.00701  -0.00701   2.04391
    R3        2.04945  -0.00248   0.00000  -0.00700  -0.00700   2.04245
    R4        2.73454   0.00317   0.00000   0.00819   0.00819   2.74273
    R5        1.83282  -0.00157   0.00000  -0.00294  -0.00294   1.82987
    A1        2.04681   0.00025   0.00000   0.00872   0.00838   2.05520
    A2        1.93272  -0.00008   0.00000   0.00812   0.00775   1.94046
    A3        2.13256   0.00035   0.00000   0.00914   0.00879   2.14135
    A4        1.90069   0.00266   0.00000   0.01063   0.01063   1.91132
    A5        1.75868   0.00146   0.00000   0.00913   0.00913   1.76781
    D1        0.62940  -0.00040   0.00000  -0.01881  -0.01886   0.61055
    D2       -3.09302   0.00050   0.00000   0.02331   0.02337  -3.06965
    D3        2.49012   0.00085   0.00000   0.04689   0.04702   2.53714
    D4        1.59106   0.00049   0.00000   0.07128   0.07128   1.66234
         Item               Value     Threshold  Converged?
 Maximum Force            0.003165     0.000450     NO 
 RMS     Force            0.001626     0.000300     NO 
 Maximum Displacement     0.062917     0.001800     NO 
 RMS     Displacement     0.027901     0.001200     NO 
 Predicted change in Energy=-1.064413D-04
 GradGradGradGradGradGradGradGradGradGradGradGradGradGradGradGradGradGrad

                          Input orientation:                          
 ---------------------------------------------------------------------
 Center     Atomic      Atomic             Coordinates (Angstroms)
 Number     Number       Type             X           Y           Z
 ---------------------------------------------------------------------
      1          6           0       -1.178161    0.315222    0.040460
      2          8           0       -0.119523   -0.529538   -0.027466
      3          1           0       -1.097818    1.265480   -0.469833
      4          1           0       -2.108412   -0.229788    0.116370
      5          8           0        1.112928    0.237011   -0.029988
      6          1           0        1.347281    0.222186    0.909436
 ---------------------------------------------------------------------
                    Distance matrix (angstroms):
                    1          2          3          4          5
     1  C    0.000000
     2  O    1.356079   0.000000
     3  H    1.081593   2.091612   0.000000
     4  H    1.080817   2.016487   1.897566   0.000000
     5  O    2.293506   1.451392   2.477623   3.258275   0.000000
     6  H    2.672384   1.895887   2.994888   3.574220   0.968327
                    6
     6  H    0.000000
 Stoichiometry    CH3O2(2)
 Framework group  C1[X(CH3O2)]
 Deg. of freedom    12
 Full point group                 C1      NOp   1
 Largest Abelian subgroup         C1      NOp   1
 Largest concise Abelian subgroup C1      NOp   1
                         Standard orientation:                         
 ---------------------------------------------------------------------
 Center     Atomic      Atomic             Coordinates (Angstroms)
 Number     Number       Type             X           Y           Z
 ---------------------------------------------------------------------
      1          6           0       -1.139584    0.266162    0.091716
      2          8           0       -0.076553   -0.558427   -0.078477
      3          1           0       -1.088586    1.251627   -0.351120
      4          1           0       -2.060888   -0.294298    0.164151
      5          8           0        1.147526    0.221410   -0.073504
      6          1           0        1.419196    0.141836    0.852521
 ---------------------------------------------------------------------
 Rotational constants (GHZ):          53.7642665          11.1480284           9.6228422
 Basis read from rwf:  (5D, 7F)
 There are   150 symmetry adapted cartesian basis functions of A   symmetry.
 There are   132 symmetry adapted basis functions of A   symmetry.
   132 basis functions,   207 primitive gaussians,   150 cartesian basis functions
    13 alpha electrons       12 beta electrons
       nuclear repulsion energy        74.5412955604 Hartrees.
 NAtoms=    6 NActive=    6 NUniq=    6 SFac= 1.00D+00 NAtFMM=   60 NAOKFM=F Big=F
 Integral buffers will be    131072 words long.
 Raffenetti 2 integral format.
 Two-electron integral symmetry is turned on.
 One-electron integrals computed using PRISM.
 NBasis=   132 RedAO= T EigKep=  1.99D-03  NBF=   132
 NBsUse=   132 1.00D-06 EigRej= -1.00D+00 NBFU=   132
 Initial guess from the checkpoint file:  "/wrk/irikura/Gau-18909.chk"
 B after Tr=    -0.000000   -0.000000   -0.000000
         Rot=    0.999951   -0.009804   -0.001423   -0.000322 Ang=  -1.14 deg.
 Initial guess <Sx>= 0.0000 <Sy>= 0.0000 <Sz>= 0.5000 <S**2>= 0.7540 S= 0.5020
 ExpMin= 7.42D-02 ExpMax= 1.36D+04 ExpMxC= 4.64D+02 IAcc=3 IRadAn=         5 AccDes= 0.00D+00
 Harris functional with IExCor=  402 and IRadAn=       5 diagonalized for initial guess.
 HarFok:  IExCor=  402 AccDes= 0.00D+00 IRadAn=         5 IDoV= 1 UseB2=F ITyADJ=14
 ICtDFT=  3500011 ScaDFX=  1.000000  1.000000  1.000000  1.000000
 FoFCou: FMM=F IPFlag=           0 FMFlag=      100000 FMFlg1=           0
         NFxFlg=           0 DoJE=T BraDBF=F KetDBF=T FulRan=T
         wScrn=  0.000000 ICntrl=       500 IOpCl=  0 I1Cent=   200000004 NGrid=           0
         NMat0=    1 NMatS0=      1 NMatT0=    0 NMatD0=    1 NMtDS0=    0 NMtDT0=    0
 Petite list used in FoFCou.
 Keep R1 and R2 ints in memory in canonical form, NReq=88779124.
 Requested convergence on RMS density matrix=1.00D-08 within 128 cycles.
 Requested convergence on MAX density matrix=1.00D-06.
 Requested convergence on             energy=1.00D-06.
 No special actions if energy rises.
 Integral accuracy reduced to 1.0D-05 until final iterations.
 Initial convergence to 1.0D-05 achieved.  Increase integral accuracy.
 SCF Done:  E(UB3LYP) =  -190.277001852     A.U. after   12 cycles
            NFock= 12  Conv=0.79D-08     -V/T= 2.0031
 <Sx>= 0.0000 <Sy>= 0.0000 <Sz>= 0.5000 <S**2>= 0.7542 S= 0.5021
 <L.S>=  0.00000000000    
 Annihilation of the first spin contaminant:
 S**2 before annihilation     0.7542,   after     0.7500
 Calling FoFJK, ICntrl=      2127 FMM=F ISym2X=0 I1Cent= 0 IOpClX= 1 NMat=1 NMatS=1 NMatT=0.
 ***** Axes restored to original set *****
 -------------------------------------------------------------------
 Center     Atomic                   Forces (Hartrees/Bohr)
 Number     Number              X              Y              Z
 -------------------------------------------------------------------
      1        6           0.000767713   -0.000140662   -0.001148822
      2        8          -0.001616837   -0.000188672    0.000689967
      3        1           0.000291833   -0.000252845    0.000432076
      4        1           0.000630457   -0.000099175    0.000446248
      5        8           0.000609998    0.001178662   -0.000348476
      6        1          -0.000683164   -0.000497308   -0.000070994
 -------------------------------------------------------------------
 Cartesian Forces:  Max     0.001616837 RMS     0.000691169

 GradGradGradGradGradGradGradGradGradGradGradGradGradGradGradGradGradGrad
 Berny optimization.
 Using GEDIIS/GDIIS optimizer.
 FormGI is forming the generalized inverse of G from B-inverse, IUseBI=4.
 Internal  Forces:  Max     0.001639553 RMS     0.000774410
 Search for a local minimum.
 Step number   2 out of a maximum of   24
 All quantities printed in internal units (Hartrees-Bohrs-Radians)
 Mixed Optimization -- En-DIIS/RFO-DIIS
 Update second derivatives using D2CorX and points    1    2
 DE= -1.12D-04 DEPred=-1.06D-04 R= 1.05D+00
 TightC=F SS=  1.41D+00  RLast= 9.37D-02 DXNew= 5.0454D-01 2.8106D-01
 Trust test= 1.05D+00 RLast= 9.37D-02 DXMaxT set to 3.00D-01
 The second derivative matrix:
                          R1        R2        R3        R4        R5
           R1           0.52885
           R2          -0.01938   0.34612
           R3          -0.01928  -0.00812   0.34580
           R4           0.02524   0.00720   0.00806   0.38042
           R5          -0.01236  -0.00443  -0.00484   0.00412   0.53140
           A1           0.00847   0.01380   0.01390  -0.01737   0.00872
           A2           0.00813   0.01128   0.01140  -0.01401   0.00710
           A3           0.00773   0.01997   0.01993  -0.02580   0.01271
           A4           0.02509  -0.01269  -0.01148   0.02092  -0.00868
           A5           0.01535  -0.01443  -0.01358   0.02180  -0.00960
           D1          -0.00312  -0.00229  -0.00237   0.00263  -0.00141
           D2           0.00334   0.00539   0.00543  -0.00678   0.00340
           D3           0.00222  -0.00499  -0.00482   0.00708  -0.00326
           D4           0.00367   0.00184   0.00195  -0.00193   0.00111
                          A1        A2        A3        A4        A5
           A1           0.15145
           A2          -0.00774   0.15310
           A3          -0.00957  -0.00903   0.15066
           A4          -0.01251  -0.00863  -0.02405   0.30482
           A5          -0.00606  -0.00350  -0.01418   0.04497   0.19534
           D1           0.00248   0.00211   0.00330  -0.00018  -0.00105
           D2          -0.00336  -0.00304  -0.00377  -0.00485  -0.00233
           D3          -0.00018   0.00027  -0.00181   0.01148   0.00852
           D4          -0.00271  -0.00225  -0.00381   0.00168   0.00224
                          D1        D2        D3        D4
           D1           0.02205
           D2           0.00097   0.02125
           D3          -0.00056  -0.00006   0.00485
           D4           0.00049  -0.00106   0.00085   0.00630
 ITU=  1  0
 Use linear search instead of GDIIS.
     Eigenvalues ---    0.00595   0.01420   0.02260   0.14837   0.15996
     Eigenvalues ---    0.17726   0.29607   0.34782   0.35413   0.38625
     Eigenvalues ---    0.52414   0.55068
 RFO step:  Lambda=-5.41190758D-05 EMin= 5.94886356D-03
 Quartic linear search produced a step of  0.09963.
 Iteration  1 RMS(Cart)=  0.01365541 RMS(Int)=  0.00028411
 Iteration  2 RMS(Cart)=  0.00023137 RMS(Int)=  0.00010028
 Iteration  3 RMS(Cart)=  0.00000007 RMS(Int)=  0.00010028
 Variable       Old X    -DE/DX   Delta X   Delta X   Delta X     New X
                                 (Linear)    (Quad)   (Total)
    R1        2.56262  -0.00164  -0.00022  -0.00371  -0.00393   2.55869
    R2        2.04391  -0.00040  -0.00070  -0.00229  -0.00299   2.04093
    R3        2.04245  -0.00046  -0.00070  -0.00246  -0.00316   2.03929
    R4        2.74273   0.00030   0.00082   0.00206   0.00287   2.74561
    R5        1.82987  -0.00023  -0.00029  -0.00090  -0.00119   1.82868
    A1        2.05520   0.00002   0.00084   0.00429   0.00492   2.06012
    A2        1.94046  -0.00043   0.00077   0.00153   0.00207   1.94254
    A3        2.14135   0.00062   0.00088   0.00857   0.00925   2.15060
    A4        1.91132  -0.00147   0.00106  -0.00489  -0.00383   1.90749
    A5        1.76781  -0.00149   0.00091  -0.00890  -0.00799   1.75982
    D1        0.61055  -0.00013  -0.00188  -0.00631  -0.00818   0.60236
    D2       -3.06965   0.00041   0.00233   0.02030   0.02262  -3.04703
    D3        2.53714   0.00023   0.00469   0.02738   0.03217   2.56931
    D4        1.66234   0.00013   0.00710   0.03217   0.03928   1.70162
         Item               Value     Threshold  Converged?
 Maximum Force            0.001640     0.000450     NO 
 RMS     Force            0.000774     0.000300     NO 
 Maximum Displacement     0.028373     0.001800     NO 
 RMS     Displacement     0.013632     0.001200     NO 
 Predicted change in Energy=-2.776180D-05
 GradGradGradGradGradGradGradGradGradGradGradGradGradGradGradGradGradGrad

                          Input orientation:                          
 ---------------------------------------------------------------------
 Center     Atomic      Atomic             Coordinates (Angstroms)
 Number     Number       Type             X           Y           Z
 ---------------------------------------------------------------------
      1          6           0       -1.178962    0.314397    0.030135
      2          8           0       -0.118862   -0.526055   -0.025895
      3          1           0       -1.100631    1.264820   -0.476802
      4          1           0       -2.105909   -0.229717    0.126355
      5          8           0        1.109455    0.249956   -0.025424
      6          1           0        1.351205    0.207171    0.910610
 ---------------------------------------------------------------------
                    Distance matrix (angstroms):
                    1          2          3          4          5
     1  C    0.000000
     2  O    1.353999   0.000000
     3  H    1.080011   2.091512   0.000000
     4  H    1.079143   2.014784   1.899480   0.000000
     5  O    2.289998   1.452913   2.473493   3.254488   0.000000
     6  H    2.681134   1.890968   3.009158   3.571774   0.967695
                    6
     6  H    0.000000
 Stoichiometry    CH3O2(2)
 Framework group  C1[X(CH3O2)]
 Deg. of freedom    12
 Full point group                 C1      NOp   1
 Largest Abelian subgroup         C1      NOp   1
 Largest concise Abelian subgroup C1      NOp   1
                         Standard orientation:                         
 ---------------------------------------------------------------------
 Center     Atomic      Atomic             Coordinates (Angstroms)
 Number     Number       Type             X           Y           Z
 ---------------------------------------------------------------------
      1          6           0       -1.138406    0.264855    0.089831
      2          8           0       -0.077316   -0.558245   -0.083101
      3          1           0       -1.087602    1.255270   -0.337861
      4          1           0       -2.057278   -0.293812    0.179919
      5          8           0        1.145648    0.226073   -0.070434
      6          1           0        1.428662    0.106791    0.847231
 ---------------------------------------------------------------------
 Rotational constants (GHZ):          53.6991941          11.1729481           9.6348288
 Basis read from rwf:  (5D, 7F)
 There are   150 symmetry adapted cartesian basis functions of A   symmetry.
 There are   132 symmetry adapted basis functions of A   symmetry.
   132 basis functions,   207 primitive gaussians,   150 cartesian basis functions
    13 alpha electrons       12 beta electrons
       nuclear repulsion energy        74.5814713915 Hartrees.
 NAtoms=    6 NActive=    6 NUniq=    6 SFac= 1.00D+00 NAtFMM=   60 NAOKFM=F Big=F
 Integral buffers will be    131072 words long.
 Raffenetti 2 integral format.
 Two-electron integral symmetry is turned on.
 One-electron integrals computed using PRISM.
 NBasis=   132 RedAO= T EigKep=  1.98D-03  NBF=   132
 NBsUse=   132 1.00D-06 EigRej= -1.00D+00 NBFU=   132
 Initial guess from the checkpoint file:  "/wrk/irikura/Gau-18909.chk"
 B after Tr=     0.000000    0.000000   -0.000000
         Rot=    0.999983   -0.005741   -0.000393    0.000106 Ang=  -0.66 deg.
 Initial guess <Sx>= 0.0000 <Sy>= 0.0000 <Sz>= 0.5000 <S**2>= 0.7542 S= 0.5021
 ExpMin= 7.42D-02 ExpMax= 1.36D+04 ExpMxC= 4.64D+02 IAcc=3 IRadAn=         5 AccDes= 0.00D+00
 Harris functional with IExCor=  402 and IRadAn=       5 diagonalized for initial guess.
 HarFok:  IExCor=  402 AccDes= 0.00D+00 IRadAn=         5 IDoV= 1 UseB2=F ITyADJ=14
 ICtDFT=  3500011 ScaDFX=  1.000000  1.000000  1.000000  1.000000
 FoFCou: FMM=F IPFlag=           0 FMFlag=      100000 FMFlg1=           0
         NFxFlg=           0 DoJE=T BraDBF=F KetDBF=T FulRan=T
         wScrn=  0.000000 ICntrl=       500 IOpCl=  0 I1Cent=   200000004 NGrid=           0
         NMat0=    1 NMatS0=      1 NMatT0=    0 NMatD0=    1 NMtDS0=    0 NMtDT0=    0
 Petite list used in FoFCou.
 Keep R1 and R2 ints in memory in canonical form, NReq=88779124.
 Requested convergence on RMS density matrix=1.00D-08 within 128 cycles.
 Requested convergence on MAX density matrix=1.00D-06.
 Requested convergence on             energy=1.00D-06.
 No special actions if energy rises.
 Integral accuracy reduced to 1.0D-05 until final iterations.
 Initial convergence to 1.0D-05 achieved.  Increase integral accuracy.
 SCF Done:  E(UB3LYP) =  -190.277034957     A.U. after   13 cycles
            NFock= 13  Conv=0.29D-08     -V/T= 2.0031
 <Sx>= 0.0000 <Sy>= 0.0000 <Sz>= 0.5000 <S**2>= 0.7543 S= 0.5021
 <L.S>=  0.00000000000    
 Annihilation of the first spin contaminant:
 S**2 before annihilation     0.7543,   after     0.7500
 Calling FoFJK, ICntrl=      2127 FMM=F ISym2X=0 I1Cent= 0 IOpClX= 1 NMat=1 NMatS=1 NMatT=0.
 ***** Axes restored to original set *****
 -------------------------------------------------------------------
 Center     Atomic                   Forces (Hartrees/Bohr)
 Number     Number              X              Y              Z
 -------------------------------------------------------------------
      1        6           0.000353572   -0.000158302   -0.000007760
      2        8          -0.000903200   -0.000255839   -0.000140058
      3        1           0.000252941    0.000245168   -0.000204292
      4        1          -0.000340845   -0.000319085    0.000255490
      5        8           0.000617741    0.000554137   -0.000126311
      6        1           0.000019791   -0.000066079    0.000222931
 -------------------------------------------------------------------
 Cartesian Forces:  Max     0.000903200 RMS     0.000354271

 GradGradGradGradGradGradGradGradGradGradGradGradGradGradGradGradGradGrad
 Berny optimization.
 Using GEDIIS/GDIIS optimizer.
 FormGI is forming the generalized inverse of G from B-inverse, IUseBI=4.
 Internal  Forces:  Max     0.000799421 RMS     0.000318091
 Search for a local minimum.
 Step number   3 out of a maximum of   24
 All quantities printed in internal units (Hartrees-Bohrs-Radians)
 Mixed Optimization -- En-DIIS/RFO-DIIS
 Swapping is turned off.
 Update second derivatives using D2CorX and points    1    2    3
 DE= -3.31D-05 DEPred=-2.78D-05 R= 1.19D+00
 TightC=F SS=  1.41D+00  RLast= 5.82D-02 DXNew= 5.0454D-01 1.7474D-01
 Trust test= 1.19D+00 RLast= 5.82D-02 DXMaxT set to 3.00D-01
 The second derivative matrix:
                          R1        R2        R3        R4        R5
           R1           0.51815
           R2          -0.01243   0.36266
           R3          -0.00868   0.01258   0.37153
           R4           0.04707   0.01865   0.02060   0.37165
           R5          -0.00757   0.00617   0.00839   0.01106   0.53819
           A1           0.01064   0.01146   0.01055  -0.02275   0.00714
           A2           0.01778   0.02076   0.02268  -0.01293   0.01304
           A3           0.02464   0.02645   0.02624  -0.03757   0.01651
           A4           0.02042  -0.01062  -0.00774   0.03226  -0.00721
           A5           0.01194  -0.00801  -0.00438   0.03632  -0.00533
           D1           0.00138   0.00356   0.00473   0.00464   0.00229
           D2           0.00823   0.00622   0.00589  -0.01141   0.00382
           D3           0.00026  -0.00964  -0.01063   0.00389  -0.00624
           D4           0.00537   0.00113   0.00083  -0.00456   0.00061
                          A1        A2        A3        A4        A5
           A1           0.15105
           A2          -0.01033   0.15673
           A3          -0.01372  -0.01071   0.13890
           A4          -0.01140  -0.00409  -0.01651   0.30476
           A5          -0.00545   0.00357  -0.00452   0.04488   0.19640
           D1           0.00120   0.00479   0.00363   0.00172   0.00241
           D2          -0.00451  -0.00429  -0.00803  -0.00258   0.00029
           D3           0.00048  -0.00238  -0.00362   0.01091   0.00673
           D4          -0.00306  -0.00336  -0.00606   0.00264   0.00305
                          D1        D2        D3        D4
           D1           0.02387
           D2           0.00064   0.01982
           D3          -0.00220  -0.00029   0.00616
           D4          -0.00002  -0.00173   0.00105   0.00606
 ITU=  1  1  0
     Eigenvalues ---    0.00494   0.01219   0.02313   0.14489   0.16157
     Eigenvalues ---    0.17813   0.29005   0.35416   0.36639   0.40257
     Eigenvalues ---    0.53393   0.54520
 En-DIIS/RFO-DIIS/Sim-DIIS IScMMF=       -3 using points:     3    2
 RFO step:  Lambda=-1.26312025D-05.
 DidBck=F Rises=F RFO-DIIS coefs:    1.54802   -0.54802
 Iteration  1 RMS(Cart)=  0.01067404 RMS(Int)=  0.00014598
 Iteration  2 RMS(Cart)=  0.00010833 RMS(Int)=  0.00006217
 Iteration  3 RMS(Cart)=  0.00000001 RMS(Int)=  0.00006217
 Variable       Old X    -DE/DX   Delta X   Delta X   Delta X     New X
                                 (Linear)    (Quad)   (Total)
    R1        2.55869  -0.00035  -0.00215   0.00033  -0.00183   2.55686
    R2        2.04093   0.00033  -0.00164   0.00165   0.00001   2.04093
    R3        2.03929   0.00048  -0.00173   0.00223   0.00049   2.03978
    R4        2.74561   0.00080   0.00157   0.00231   0.00388   2.74949
    R5        1.82868   0.00022  -0.00065   0.00070   0.00005   1.82873
    A1        2.06012  -0.00026   0.00270  -0.00254   0.00003   2.06015
    A2        1.94254   0.00001   0.00114   0.00063   0.00162   1.94416
    A3        2.15060   0.00027   0.00507   0.00036   0.00531   2.15592
    A4        1.90749  -0.00018  -0.00210   0.00122  -0.00088   1.90661
    A5        1.75982  -0.00011  -0.00438   0.00256  -0.00182   1.75800
    D1        0.60236   0.00012  -0.00448   0.00919   0.00472   0.60708
    D2       -3.04703   0.00024   0.01240   0.00660   0.01898  -3.02805
    D3        2.56931   0.00003   0.01763  -0.00299   0.01471   2.58402
    D4        1.70162   0.00005   0.02152   0.00165   0.02318   1.72480
         Item               Value     Threshold  Converged?
 Maximum Force            0.000799     0.000450     NO 
 RMS     Force            0.000318     0.000300     NO 
 Maximum Displacement     0.021086     0.001800     NO 
 RMS     Displacement     0.010645     0.001200     NO 
 Predicted change in Energy=-6.312614D-06
 GradGradGradGradGradGradGradGradGradGradGradGradGradGradGradGradGradGrad

                          Input orientation:                          
 ---------------------------------------------------------------------
 Center     Atomic      Atomic             Coordinates (Angstroms)
 Number     Number       Type             X           Y           Z
 ---------------------------------------------------------------------
      1          6           0       -1.180415    0.314387    0.024468
      2          8           0       -0.118611   -0.522576   -0.028085
      3          1           0       -1.103940    1.264045   -0.484190
      4          1           0       -2.105887   -0.230138    0.134498
      5          8           0        1.108687    0.258841   -0.020532
      6          1           0        1.356462    0.196013    0.912820
 ---------------------------------------------------------------------
                    Distance matrix (angstroms):
                    1          2          3          4          5
     1  C    0.000000
     2  O    1.353032   0.000000
     3  H    1.080015   2.090674   0.000000
     4  H    1.079405   2.015247   1.902435   0.000000
     5  O    2.290218   1.454967   2.474092   3.255245   0.000000
     6  H    2.690525   1.891432   3.024220   3.574248   0.967721
                    6
     6  H    0.000000
 Stoichiometry    CH3O2(2)
 Framework group  C1[X(CH3O2)]
 Deg. of freedom    12
 Full point group                 C1      NOp   1
 Largest Abelian subgroup         C1      NOp   1
 Largest concise Abelian subgroup C1      NOp   1
                         Standard orientation:                         
 ---------------------------------------------------------------------
 Center     Atomic      Atomic             Coordinates (Angstroms)
 Number     Number       Type             X           Y           Z
 ---------------------------------------------------------------------
      1          6           0       -1.138698    0.264151    0.089606
      2          8           0       -0.078348   -0.557493   -0.087184
      3          1           0       -1.089000    1.255752   -0.335469
      4          1           0       -2.056442   -0.294365    0.194106
      5          8           0        1.145827    0.228605   -0.067795
      6          1           0        1.437795    0.084807    0.843556
 ---------------------------------------------------------------------
 Rotational constants (GHZ):          53.6924941          11.1619833           9.6268979
 Basis read from rwf:  (5D, 7F)
 There are   150 symmetry adapted cartesian basis functions of A   symmetry.
 There are   132 symmetry adapted basis functions of A   symmetry.
   132 basis functions,   207 primitive gaussians,   150 cartesian basis functions
    13 alpha electrons       12 beta electrons
       nuclear repulsion energy        74.5535712748 Hartrees.
 NAtoms=    6 NActive=    6 NUniq=    6 SFac= 1.00D+00 NAtFMM=   60 NAOKFM=F Big=F
 Integral buffers will be    131072 words long.
 Raffenetti 2 integral format.
 Two-electron integral symmetry is turned on.
 One-electron integrals computed using PRISM.
 NBasis=   132 RedAO= T EigKep=  1.98D-03  NBF=   132
 NBsUse=   132 1.00D-06 EigRej= -1.00D+00 NBFU=   132
 Initial guess from the checkpoint file:  "/wrk/irikura/Gau-18909.chk"
 B after Tr=     0.000000   -0.000000   -0.000000
         Rot=    0.999994   -0.003523   -0.000328    0.000109 Ang=  -0.41 deg.
 Initial guess <Sx>= 0.0000 <Sy>= 0.0000 <Sz>= 0.5000 <S**2>= 0.7543 S= 0.5021
 ExpMin= 7.42D-02 ExpMax= 1.36D+04 ExpMxC= 4.64D+02 IAcc=3 IRadAn=         5 AccDes= 0.00D+00
 Harris functional with IExCor=  402 and IRadAn=       5 diagonalized for initial guess.
 HarFok:  IExCor=  402 AccDes= 0.00D+00 IRadAn=         5 IDoV= 1 UseB2=F ITyADJ=14
 ICtDFT=  3500011 ScaDFX=  1.000000  1.000000  1.000000  1.000000
 FoFCou: FMM=F IPFlag=           0 FMFlag=      100000 FMFlg1=           0
         NFxFlg=           0 DoJE=T BraDBF=F KetDBF=T FulRan=T
         wScrn=  0.000000 ICntrl=       500 IOpCl=  0 I1Cent=   200000004 NGrid=           0
         NMat0=    1 NMatS0=      1 NMatT0=    0 NMatD0=    1 NMtDS0=    0 NMtDT0=    0
 Petite list used in FoFCou.
 Keep R1 and R2 ints in memory in canonical form, NReq=88779124.
 Requested convergence on RMS density matrix=1.00D-08 within 128 cycles.
 Requested convergence on MAX density matrix=1.00D-06.
 Requested convergence on             energy=1.00D-06.
 No special actions if energy rises.
 Integral accuracy reduced to 1.0D-05 until final iterations.
 Initial convergence to 1.0D-05 achieved.  Increase integral accuracy.
 SCF Done:  E(UB3LYP) =  -190.277043784     A.U. after   11 cycles
            NFock= 11  Conv=0.93D-08     -V/T= 2.0031
 <Sx>= 0.0000 <Sy>= 0.0000 <Sz>= 0.5000 <S**2>= 0.7544 S= 0.5022
 <L.S>=  0.00000000000    
 Annihilation of the first spin contaminant:
 S**2 before annihilation     0.7544,   after     0.7500
 Calling FoFJK, ICntrl=      2127 FMM=F ISym2X=0 I1Cent= 0 IOpClX= 1 NMat=1 NMatS=1 NMatT=0.
 ***** Axes restored to original set *****
 -------------------------------------------------------------------
 Center     Atomic                   Forces (Hartrees/Bohr)
 Number     Number              X              Y              Z
 -------------------------------------------------------------------
      1        6           0.000231393   -0.000139146    0.000160754
      2        8          -0.000477444   -0.000250098   -0.000171438
      3        1          -0.000009819    0.000169307   -0.000191532
      4        1          -0.000160569   -0.000064898    0.000096697
      5        8           0.000424133    0.000296279   -0.000025136
      6        1          -0.000007693   -0.000011444    0.000130655
 -------------------------------------------------------------------
 Cartesian Forces:  Max     0.000477444 RMS     0.000212000

 GradGradGradGradGradGradGradGradGradGradGradGradGradGradGradGradGradGrad
 Berny optimization.
 Using GEDIIS/GDIIS optimizer.
 FormGI is forming the generalized inverse of G from B-inverse, IUseBI=4.
 Internal  Forces:  Max     0.000504558 RMS     0.000174102
 Search for a local minimum.
 Step number   4 out of a maximum of   24
 All quantities printed in internal units (Hartrees-Bohrs-Radians)
 Mixed Optimization -- En-DIIS/RFO-DIIS
 Swapping is turned off.
 Update second derivatives using D2CorX and points    1    2    3    4
 DE= -8.83D-06 DEPred=-6.31D-06 R= 1.40D+00
 TightC=F SS=  1.41D+00  RLast= 3.45D-02 DXNew= 5.0454D-01 1.0349D-01
 Trust test= 1.40D+00 RLast= 3.45D-02 DXMaxT set to 3.00D-01
 The second derivative matrix:
                          R1        R2        R3        R4        R5
           R1           0.52240
           R2          -0.00280   0.35638
           R3          -0.00320   0.00271   0.36099
           R4           0.06393   0.00938   0.01024   0.33941
           R5          -0.00299   0.00154   0.00228   0.00545   0.53505
           A1           0.01117   0.01492   0.01224  -0.01243   0.00865
           A2           0.01995   0.01955   0.02074  -0.00670   0.01194
           A3           0.01951   0.01691   0.02094  -0.04132   0.01173
           A4           0.02352  -0.00068   0.00179   0.04226  -0.00148
           A5           0.01371  -0.00096   0.00268   0.04614  -0.00126
           D1           0.00942   0.00205   0.00019  -0.00151   0.00068
           D2           0.01170   0.00265   0.00221  -0.02188   0.00176
           D3           0.00004  -0.00922  -0.00950  -0.00072  -0.00572
           D4           0.00286  -0.00011   0.00131  -0.00546   0.00028
                          A1        A2        A3        A4        A5
           A1           0.15067
           A2          -0.01001   0.15746
           A3          -0.01590  -0.01264   0.14369
           A4          -0.00923   0.00274  -0.01324   0.30465
           A5          -0.00442   0.00854  -0.00184   0.04602   0.19814
           D1           0.00478   0.00575  -0.00257   0.00742   0.00669
           D2          -0.00226  -0.00381  -0.00915  -0.00109   0.00183
           D3           0.00111  -0.00160  -0.00180   0.00808   0.00502
           D4          -0.00389  -0.00339  -0.00310   0.00135   0.00234
                          D1        D2        D3        D4
           D1           0.02431
           D2          -0.00186   0.01691
           D3          -0.00300  -0.00116   0.00520
           D4          -0.00150  -0.00177   0.00114   0.00696
 ITU=  1  1  1  0
     Eigenvalues ---    0.00465   0.00970   0.02136   0.15069   0.16057
     Eigenvalues ---    0.17836   0.27752   0.35335   0.35576   0.37640
     Eigenvalues ---    0.53520   0.55184
 En-DIIS/RFO-DIIS/Sim-DIIS IScMMF=       -3 using points:     4    3    2
 RFO step:  Lambda=-7.34421014D-06.
 DidBck=F Rises=F RFO-DIIS coefs:    1.36282   -0.15915   -0.20367
 Iteration  1 RMS(Cart)=  0.00823577 RMS(Int)=  0.00007659
 Iteration  2 RMS(Cart)=  0.00005007 RMS(Int)=  0.00004660
 Iteration  3 RMS(Cart)=  0.00000000 RMS(Int)=  0.00004660
 Variable       Old X    -DE/DX   Delta X   Delta X   Delta X     New X
                                 (Linear)    (Quad)   (Total)
    R1        2.55686  -0.00007  -0.00146   0.00009  -0.00137   2.55549
    R2        2.04093   0.00024  -0.00061   0.00084   0.00023   2.04116
    R3        2.03978   0.00018  -0.00046   0.00065   0.00018   2.03996
    R4        2.74949   0.00050   0.00199   0.00162   0.00362   2.75311
    R5        1.82873   0.00012  -0.00023   0.00029   0.00006   1.82879
    A1        2.06015  -0.00003   0.00101  -0.00035   0.00057   2.06072
    A2        1.94416   0.00004   0.00101   0.00036   0.00127   1.94543
    A3        2.15592  -0.00001   0.00381  -0.00059   0.00314   2.15905
    A4        1.90661  -0.00005  -0.00110   0.00038  -0.00072   1.90590
    A5        1.75800  -0.00007  -0.00229   0.00042  -0.00187   1.75613
    D1        0.60708   0.00016   0.00004   0.00862   0.00868   0.61576
    D2       -3.02805   0.00015   0.01150   0.00739   0.01887  -3.00917
    D3        2.58402   0.00000   0.01189  -0.00110   0.01084   2.59487
    D4        1.72480  -0.00004   0.01641  -0.00724   0.00917   1.73396
         Item               Value     Threshold  Converged?
 Maximum Force            0.000505     0.000450     NO 
 RMS     Force            0.000174     0.000300     YES
 Maximum Displacement     0.015909     0.001800     NO 
 RMS     Displacement     0.008228     0.001200     NO 
 Predicted change in Energy=-3.538948D-06
 GradGradGradGradGradGradGradGradGradGradGradGradGradGradGradGradGradGrad

                          Input orientation:                          
 ---------------------------------------------------------------------
 Center     Atomic      Atomic             Coordinates (Angstroms)
 Number     Number       Type             X           Y           Z
 ---------------------------------------------------------------------
      1          6           0       -1.180457    0.314333    0.020189
      2          8           0       -0.117980   -0.520561   -0.032961
      3          1           0       -1.106983    1.263576   -0.489943
      4          1           0       -2.104673   -0.229802    0.142916
      5          8           0        1.109339    0.264250   -0.016843
      6          1           0        1.357049    0.188776    0.915621
 ---------------------------------------------------------------------
                    Distance matrix (angstroms):
                    1          2          3          4          5
     1  C    0.000000
     2  O    1.352306   0.000000
     3  H    1.080136   2.090479   0.000000
     4  H    1.079500   2.015545   1.904226   0.000000
     5  O    2.290644   1.456881   2.476804   3.255685   0.000000
     6  H    2.693790   1.891739   3.033522   3.571527   0.967753
                    6
     6  H    0.000000
 Stoichiometry    CH3O2(2)
 Framework group  C1[X(CH3O2)]
 Deg. of freedom    12
 Full point group                 C1      NOp   1
 Largest Abelian subgroup         C1      NOp   1
 Largest concise Abelian subgroup C1      NOp   1
                         Standard orientation:                         
 ---------------------------------------------------------------------
 Center     Atomic      Atomic             Coordinates (Angstroms)
 Number     Number       Type             X           Y           Z
 ---------------------------------------------------------------------
      1          6           0       -1.138662    0.263855    0.089137
      2          8           0       -0.079210   -0.557152   -0.090419
      3          1           0       -1.091803    1.254899   -0.337864
      4          1           0       -2.054986   -0.294127    0.208825
      5          8           0        1.146493    0.229957   -0.065677
      6          1           0        1.440491    0.073662    0.842994
 ---------------------------------------------------------------------
 Rotational constants (GHZ):          53.6410544          11.1515537           9.6209225
 Basis read from rwf:  (5D, 7F)
 There are   150 symmetry adapted cartesian basis functions of A   symmetry.
 There are   132 symmetry adapted basis functions of A   symmetry.
[...]
           D4           0.00228   0.00075   0.00067   0.01063   0.01257
                          D1        D2        D3        D4
           D1           0.01792
           D2          -0.01046   0.01375
           D3          -0.01355   0.01436   0.02866
           D4           0.00109  -0.00045   0.00049   0.00285
 ITU=  1  1  1  1  0  1  1  1 -1  0  0  0  1  0  1
     Eigenvalues ---    0.00095   0.00350   0.02368   0.04609   0.12318
     Eigenvalues ---    0.15513   0.17776   0.27635   0.35011   0.35607
     Eigenvalues ---    0.51986   1.15524
 En-DIIS/RFO-DIIS/Sim-DIIS IScMMF=       -3 using points:    24   23   22
 RFO step:  Lambda=-1.78735399D-05.
 DidBck=F Rises=F RFO-DIIS coefs:    0.84262    0.95627   -0.79889
 Iteration  1 RMS(Cart)=  0.02647702 RMS(Int)=  0.00111049
 Iteration  2 RMS(Cart)=  0.00091369 RMS(Int)=  0.00000350
 Iteration  3 RMS(Cart)=  0.00000014 RMS(Int)=  0.00000350
 Variable       Old X    -DE/DX   Delta X   Delta X   Delta X     New X
                                 (Linear)    (Quad)   (Total)
    R1        2.27056   0.00127  -0.00288   0.00258  -0.00030   2.27026
    R2        2.07973  -0.00002   0.00108  -0.00091   0.00017   2.07991
    R3        2.08629   0.00003   0.00071  -0.00065   0.00006   2.08636
    R4        4.71507  -0.00041   0.00182  -0.00632  -0.00450   4.71058
    R5        1.83421  -0.00014   0.00031  -0.00019   0.00012   1.83433
    A1        2.12462   0.00027  -0.00431   0.00377  -0.00054   2.12407
    A2        2.11282   0.00005  -0.00017   0.00029   0.00012   2.11294
    A3        2.04574  -0.00032   0.00447  -0.00405   0.00042   2.04617
    A4        1.76899   0.00012   0.00303   0.00034   0.00337   1.77236
    A5        1.32485   0.00025   0.01165   0.00086   0.01251   1.33736
    D1        0.03872  -0.00012  -0.02325  -0.00077  -0.02402   0.01470
    D2       -3.10644   0.00003  -0.02703   0.00281  -0.02422  -3.13066
    D3        3.13815   0.00015  -0.00363   0.00345  -0.00019   3.13796
    D4       -3.05853  -0.00004  -0.07081  -0.00056  -0.07138  -3.12991
         Item               Value     Threshold  Converged?
 Maximum Force            0.001273     0.000450     NO 
 RMS     Force            0.000387     0.000300     NO 
 Maximum Displacement     0.061344     0.001800     NO 
 RMS     Displacement     0.026421     0.001200     NO 
 Predicted change in Energy=-6.294256D-06
 Optimization stopped.
    -- Number of steps exceeded,  NStep=  24
    -- Flag reset to prevent archiving.
                           ----------------------------
                           ! Non-Optimized Parameters !
                           ! (Angstroms and Degrees)  !
 --------------------------                            --------------------------
 ! Name  Definition              Value          Derivative Info.                !
 --------------------------------------------------------------------------------
 ! R1    R(1,2)                  1.2014         -DE/DX =    0.0013              !
 ! R2    R(1,3)                  1.1006         -DE/DX =    0.0                 !
 ! R3    R(1,4)                  1.1041         -DE/DX =    0.0                 !
 ! R4    R(2,5)                  2.4927         -DE/DX =   -0.0004              !
 ! R5    R(5,6)                  0.9707         -DE/DX =   -0.0001              !
 ! A1    A(2,1,3)              121.7003         -DE/DX =    0.0003              !
 ! A2    A(2,1,4)              121.0627         -DE/DX =    0.0                 !
 ! A3    A(3,1,4)              117.2367         -DE/DX =   -0.0003              !
 ! A4    A(1,2,5)              101.5489         -DE/DX =    0.0001              !
 ! A5    A(2,5,6)               76.6249         -DE/DX =    0.0003              !
 ! D1    D(3,1,2,5)              0.842          -DE/DX =   -0.0001              !
 ! D2    D(4,1,2,5)           -179.3739         -DE/DX =    0.0                 !
 ! D3    D(2,1,3,4)            179.792          -DE/DX =    0.0001              !
 ! D4    D(1,2,5,6)           -179.3306         -DE/DX =    0.0                 !
 --------------------------------------------------------------------------------
 GradGradGradGradGradGradGradGradGradGradGradGradGradGradGradGradGradGrad

                          Input orientation:                          
 ---------------------------------------------------------------------
 Center     Atomic      Atomic             Coordinates (Angstroms)
 Number     Number       Type             X           Y           Z
 ---------------------------------------------------------------------
      1          6           0       -1.357325    0.159568   -0.095046
      2          8           0       -0.539774   -0.623387    0.307772
      3          1           0       -1.084263    1.187566   -0.377648
      4          1           0       -2.418111   -0.127913   -0.199680
      5          8           0        1.519872    0.784778    0.330002
      6          1           0        1.835897   -0.100040    0.573578
 ---------------------------------------------------------------------
                    Distance matrix (angstroms):
                    1          2          3          4          5
     1  C    0.000000
     2  O    1.201529   0.000000
     3  H    1.100548   2.011422   0.000000
     4  H    1.104019   2.007773   1.881835   0.000000
     5  O    2.974865   2.495109   2.728466   4.076920   0.000000
     6  H    3.272785   2.447112   3.330180   4.323804   0.970621
                    6
     6  H    0.000000
 Stoichiometry    CH3O2(2)
 Framework group  C1[X(CH3O2)]
 Deg. of freedom    12
 Full point group                 C1      NOp   1
 Largest Abelian subgroup         C1      NOp   1
 Largest concise Abelian subgroup C1      NOp   1
                         Standard orientation:                         
 ---------------------------------------------------------------------
 Center     Atomic      Atomic             Coordinates (Angstroms)
 Number     Number       Type             X           Y           Z
 ---------------------------------------------------------------------
      1          6           0       -1.249410    0.388427   -0.003203
      2          8           0       -0.622937   -0.636840    0.002493
      3          1           0       -0.752924    1.369923   -0.040246
      4          1           0       -2.353039    0.381677    0.025378
      5          8           0        1.720623    0.219453    0.009886
      6          1           0        1.820938   -0.743066   -0.064940
 ---------------------------------------------------------------------
 Rotational constants (GHZ):          43.9610595           6.1697033           5.4113026

 **********************************************************************

            Population analysis using the SCF Density.

 **********************************************************************

 Orbital symmetries:
 Alpha Orbitals:
       Occupied  (A) (A) (A) (A) (A) (A) (A) (A) (A) (A) (A) (A)
                 (A)
       Virtual   (A) (A) (A) (A) (A) (A) (A) (A) (A) (A) (A) (A)
                 (A) (A) (A) (A) (A) (A) (A) (A) (A) (A) (A) (A)
                 (A) (A) (A) (A) (A) (A) (A) (A) (A) (A) (A) (A)
                 (A) (A) (A) (A) (A) (A) (A) (A) (A) (A) (A) (A)
                 (A) (A) (A) (A) (A) (A) (A) (A) (A) (A) (A) (A)
                 (A) (A) (A) (A) (A) (A) (A) (A) (A) (A) (A) (A)
                 (A) (A) (A) (A) (A) (A) (A) (A) (A) (A) (A) (A)
                 (A) (A) (A) (A) (A) (A) (A) (A) (A) (A) (A) (A)
                 (A) (A) (A) (A) (A) (A) (A) (A) (A) (A) (A) (A)
                 (A) (A) (A) (A) (A) (A) (A) (A) (A) (A) (A)
 Beta  Orbitals:
       Occupied  (A) (A) (A) (A) (A) (A) (A) (A) (A) (A) (A) (A)
       Virtual   (A) (A) (A) (A) (A) (A) (A) (A) (A) (A) (A) (A)
                 (A) (A) (A) (A) (A) (A) (A) (A) (A) (A) (A) (A)
                 (A) (A) (A) (A) (A) (A) (A) (A) (A) (A) (A) (A)
                 (A) (A) (A) (A) (A) (A) (A) (A) (A) (A) (A) (A)
                 (A) (A) (A) (A) (A) (A) (A) (A) (A) (A) (A) (A)
                 (A) (A) (A) (A) (A) (A) (A) (A) (A) (A) (A) (A)
                 (A) (A) (A) (A) (A) (A) (A) (A) (A) (A) (A) (A)
                 (A) (A) (A) (A) (A) (A) (A) (A) (A) (A) (A) (A)
                 (A) (A) (A) (A) (A) (A) (A) (A) (A) (A) (A) (A)
                 (A) (A) (A) (A) (A) (A) (A) (A) (A) (A) (A) (A)
 The electronic state is 2-A.
 Alpha  occ. eigenvalues --  -19.16898 -19.16563 -10.28620  -1.08841  -0.99214
 Alpha  occ. eigenvalues --   -0.65250  -0.52068  -0.48118  -0.45601  -0.42611
 Alpha  occ. eigenvalues --   -0.38919  -0.32351  -0.29251
 Alpha virt. eigenvalues --   -0.07081   0.01877   0.03189   0.07103   0.11167
 Alpha virt. eigenvalues --    0.16184   0.19514   0.26116   0.29368   0.30121
 Alpha virt. eigenvalues --    0.32912   0.33510   0.34742   0.39586   0.42174
 Alpha virt. eigenvalues --    0.46415   0.46686   0.51590   0.56739   0.63535
 Alpha virt. eigenvalues --    0.71274   0.81746   0.86457   0.88857   0.92583
 Alpha virt. eigenvalues --    0.93334   0.99326   1.01199   1.14208   1.17568
 Alpha virt. eigenvalues --    1.18258   1.20067   1.26270   1.28771   1.39728
 Alpha virt. eigenvalues --    1.45852   1.46349   1.49901   1.61201   1.64091
 Alpha virt. eigenvalues --    1.68890   1.70355   1.81248   1.81442   1.94131
 Alpha virt. eigenvalues --    1.97804   1.99229   2.03131   2.06640   2.24442
 Alpha virt. eigenvalues --    2.27188   2.37217   2.41892   2.46780   2.67236
 Alpha virt. eigenvalues --    2.89258   2.95051   3.13449   3.17365   3.34363
 Alpha virt. eigenvalues --    3.49846   3.50171   3.51536   3.53915   3.57277
 Alpha virt. eigenvalues --    3.65030   3.69860   3.74911   3.77786   3.79546
 Alpha virt. eigenvalues --    3.89766   3.91351   3.95131   3.97019   3.98198
 Alpha virt. eigenvalues --    3.98916   4.02863   4.10701   4.11132   4.17536
 Alpha virt. eigenvalues --    4.22708   4.26600   4.28480   4.33102   4.33726
 Alpha virt. eigenvalues --    4.47281   4.49742   4.49942   4.52399   4.57669
 Alpha virt. eigenvalues --    4.59824   4.61988   4.69452   4.71525   4.89063
 Alpha virt. eigenvalues --    4.99252   5.07991   5.36448   5.41904   5.53370
 Alpha virt. eigenvalues --    5.57683   5.61746   5.78483   5.85804   5.96066
 Alpha virt. eigenvalues --    5.98320   6.04006   6.05056   6.07840   6.11307
 Alpha virt. eigenvalues --    6.14076   6.18961   6.26201   6.41470   6.52995
 Alpha virt. eigenvalues --    6.77038   6.79597   7.10044   7.12316
  Beta  occ. eigenvalues --  -19.16301 -19.14355 -10.28642  -1.08397  -0.92574
  Beta  occ. eigenvalues --   -0.65143  -0.51599  -0.47689  -0.43226  -0.42417
  Beta  occ. eigenvalues --   -0.29896  -0.29195
  Beta virt. eigenvalues --   -0.14819  -0.07011   0.01972   0.03554   0.07151
  Beta virt. eigenvalues --    0.11496   0.16182   0.19558   0.26432   0.30250
  Beta virt. eigenvalues --    0.30671   0.33086   0.33817   0.35277   0.40576
  Beta virt. eigenvalues --    0.42357   0.46612   0.48561   0.52980   0.57765
  Beta virt. eigenvalues --    0.63566   0.71626   0.81645   0.86463   0.89313
  Beta virt. eigenvalues --    0.92921   0.93914   0.99431   1.01364   1.14330
  Beta virt. eigenvalues --    1.17545   1.18380   1.20668   1.26264   1.29069
  Beta virt. eigenvalues --    1.39932   1.46564   1.50958   1.51930   1.61326
  Beta virt. eigenvalues --    1.66644   1.69237   1.70853   1.81907   1.85532
  Beta virt. eigenvalues --    1.94249   1.98282   1.99911   2.04373   2.06942
  Beta virt. eigenvalues --    2.26293   2.35904   2.37430   2.42311   2.47846
  Beta virt. eigenvalues --    2.67660   2.91651   2.95382   3.13483   3.17358
  Beta virt. eigenvalues --    3.34486   3.51107   3.51632   3.51839   3.54770
  Beta virt. eigenvalues --    3.57278   3.65179   3.69963   3.77490   3.77937
  Beta virt. eigenvalues --    3.82702   3.90498   3.91620   3.96011   3.97897
  Beta virt. eigenvalues --    4.02108   4.03078   4.04053   4.10859   4.11276
  Beta virt. eigenvalues --    4.18694   4.22784   4.26699   4.28501   4.33210
  Beta virt. eigenvalues --    4.33813   4.46913   4.49798   4.50367   4.52591
  Beta virt. eigenvalues --    4.58401   4.62069   4.63814   4.69604   4.71764
  Beta virt. eigenvalues --    4.89448   4.99424   5.08008   5.36547   5.42013
  Beta virt. eigenvalues --    5.53513   5.57717   5.61798   5.78623   5.86114
  Beta virt. eigenvalues --    6.03330   6.03990   6.05425   6.07995   6.09758
  Beta virt. eigenvalues --    6.11736   6.20413   6.21591   6.30950   6.41710
  Beta virt. eigenvalues --    6.53194   6.78382   6.81035   7.11423   7.13042
          Condensed to atoms (all electrons):
               1          2          3          4          5          6
     1  C    4.356676   0.531372   0.404843   0.395573  -0.005022  -0.001832
     2  O    0.531372   7.939398  -0.066060  -0.063244  -0.001007   0.002829
     3  H    0.404843  -0.066060   0.714042  -0.099894   0.000218  -0.000977
     4  H    0.395573  -0.063244  -0.099894   0.734903   0.000483  -0.000018
     5  O   -0.005022  -0.001007   0.000218   0.000483   7.977519   0.302197
     6  H   -0.001832   0.002829  -0.000977  -0.000018   0.302197   0.478543
          Atomic-Atomic Spin Densities.
               1          2          3          4          5          6
     1  C   -0.008984   0.001196  -0.002519   0.000854  -0.002078  -0.000088
     2  O    0.001196   0.098394  -0.004315   0.001036  -0.035517   0.000451
     3  H   -0.002519  -0.004315   0.009218  -0.002298   0.007903  -0.000083
     4  H    0.000854   0.001036  -0.002298   0.005609  -0.001748   0.000095
     5  O   -0.002078  -0.035517   0.007903  -0.001748   0.980128   0.004173
     6  H   -0.000088   0.000451  -0.000083   0.000095   0.004173  -0.018491
 Mulliken charges and spin densities:
               1          2
     1  C    0.318391  -0.011620
     2  O   -0.343288   0.061245
     3  H    0.047829   0.007908
     4  H    0.032198   0.003549
     5  O   -0.274388   0.952861
     6  H    0.219259  -0.013943
 Sum of Mulliken charges =  -0.00000   1.00000
 Mulliken charges and spin densities with hydrogens summed into heavy atoms:
               1          2
     1  C    0.398418  -0.000163
     2  O   -0.343288   0.061245
     5  O   -0.055130   0.938918
 Electronic spatial extent (au):  <R**2>=            226.0072
 Charge=             -0.0000 electrons
 Dipole moment (field-independent basis, Debye):
    X=             -1.8460    Y=              0.3967    Z=             -0.1441  Tot=              1.8936
 Quadrupole moment (field-independent basis, Debye-Ang):
   XX=            -14.9906   YY=            -17.3741   ZZ=            -18.5355
   XY=             -4.9412   XZ=             -0.2810   YZ=              0.1347
 Traceless Quadrupole moment (field-independent basis, Debye-Ang):
   XX=              1.9761   YY=             -0.4074   ZZ=             -1.5688
   XY=             -4.9412   XZ=             -0.2810   YZ=              0.1347
 Octapole moment (field-independent basis, Debye-Ang**2):
  XXX=             -0.3680  YYY=             -0.8479  ZZZ=             -0.0554  XYY=              3.2518
  XXY=             -4.4903  XXZ=             -0.5715  XZZ=             -0.4925  YZZ=             -0.8306
  YYZ=             -0.1115  XYZ=              0.2292
 Hexadecapole moment (field-independent basis, Debye-Ang**3):
 XXXX=           -191.4910 YYYY=            -45.1592 ZZZZ=            -16.8330 XXXY=            -11.5389
 XXXZ=             -1.4111 YYYX=             -2.7824 YYYZ=              0.1529 ZZZX=             -0.1434
 ZZZY=              0.1059 XXYY=            -40.6953 XXZZ=            -40.5684 YYZZ=            -10.6364
 XXYZ=              0.4784 YYXZ=             -0.1105 ZZXY=             -0.2964
 N-N= 6.344023189190D+01 E-N=-5.756355265890D+02  KE= 1.897590490095D+02
                          Isotropic Fermi Contact Couplings
        Atom                 a.u.       MegaHertz       Gauss      10(-4) cm-1
     1  C(13)             -0.00525      -5.90297      -2.10632      -1.96902
     2  O(17)              0.05894     -35.72881     -12.74893     -11.91785
     3  H(1)               0.00125       5.57605       1.98967       1.85997
     4  H(1)               0.00210       9.38747       3.34968       3.13132
     5  O(17)              0.21120    -128.02637     -45.68299     -42.70500
     6  H(1)              -0.01342     -60.00427     -21.41102     -20.01527
 --------------------------------------------------------
       Center         ----  Spin Dipole Couplings  ----
                      3XX-RR        3YY-RR        3ZZ-RR
 --------------------------------------------------------
     1   Atom        0.015428      0.004389     -0.019816
     2   Atom        0.286927     -0.125872     -0.161055
     3   Atom        0.009658     -0.001366     -0.008292
     4   Atom        0.005089     -0.001700     -0.003390
     5   Atom        3.729457     -1.808258     -1.921199
     6   Atom       -0.029066      0.155340     -0.126274
 --------------------------------------------------------
                        XY            XZ            YZ
 --------------------------------------------------------
     1   Atom       -0.008715     -0.000406      0.000067
     2   Atom        0.192516     -0.006290     -0.001919
     3   Atom       -0.010234      0.000473     -0.000231
     4   Atom       -0.001174      0.000027      0.000019
     5   Atom        0.756006     -0.163296     -0.020846
     6   Atom       -0.028480     -0.005968      0.021996
 --------------------------------------------------------


 ---------------------------------------------------------------------------------
              Anisotropic Spin Dipole Couplings in Principal Axis System
 ---------------------------------------------------------------------------------

       Atom             a.u.   MegaHertz   Gauss  10(-4) cm-1        Axes

              Baa    -0.0198    -2.660    -0.949    -0.887  0.0119  0.0015  0.9999
     1 C(13)  Bbb    -0.0004    -0.055    -0.019    -0.018  0.4820  0.8761 -0.0071
              Bcc     0.0202     2.714     0.969     0.905  0.8761 -0.4821 -0.0097
 
              Baa    -0.2017    14.597     5.208     4.869 -0.3667  0.9303 -0.0128
     2 O(17)  Bbb    -0.1611    11.659     4.160     3.889  0.0069  0.0165  0.9998
              Bcc     0.3629   -26.256    -9.369    -8.758  0.9303  0.3665 -0.0125
 
              Baa    -0.0083    -4.431    -1.581    -1.478 -0.0458 -0.0343  0.9984
     3 H(1)   Bbb    -0.0075    -3.989    -1.423    -1.331  0.5110  0.8579  0.0529
              Bcc     0.0158     8.420     3.005     2.809  0.8583 -0.5126  0.0218
 
              Baa    -0.0034    -1.809    -0.645    -0.603 -0.0053 -0.0150  0.9999
     4 H(1)   Bbb    -0.0019    -1.012    -0.361    -0.338  0.1657  0.9861  0.0157
              Bcc     0.0053     2.821     1.007     0.941  0.9862 -0.1658  0.0027
 
              Baa    -1.9260   139.362    49.728    46.486  0.0367 -0.0589  0.9976
     5 O(17)  Bbb    -1.9095   138.173    49.304    46.090 -0.1308  0.9894  0.0632
              Bcc     3.8355  -277.535   -99.032   -92.576  0.9907  0.1328 -0.0286
 
              Baa    -0.1281   -68.363   -24.394   -22.803  0.0389 -0.0734  0.9965
     6 H(1)   Bbb    -0.0333   -17.763    -6.338    -5.925  0.9879  0.1524 -0.0274
              Bcc     0.1614    86.126    30.732    28.729 -0.1498  0.9856  0.0785
 

 ---------------------------------------------------------------------------------



 OF ALL THE WONDERS OF THE UNIVERSE, THE GREATEST IS MAN.

                                    -- ARISTOTLE
 Error termination request processed by link 9999.
 Error termination via Lnk1e in /usr/local/apps/g16_b01_avx/g16/l9999.exe at Fri Jun 17 16:25:45 2022.
 Job cpu time:       0 days  0 hours 42 minutes 57.2 seconds.
 Elapsed time:       0 days  0 hours  4 minutes 25.2 seconds.
 File lengths (MBytes):  RWF=     20 Int=      0 D2E=      0 Chk=      3 Scr=      1
