 Entering Gaussian System, Link 0=g16
 AtFile(1): pcseg2.gbs
            -H     0
            S   4   1.00
                  0.754732D+02           0.427821D-02
                  0.113575D+02           0.328672D-01
                  0.260081D+01           0.159578D+00
                  0.735503D+00           0.500000D+00
            S   1   1.00
                  0.231761D+00           1.0000000
            S   1   1.00
                  0.741675D-01           1.0000000
            P   1   1.00
                  0.160000D+01           1.0000000
            P   1   1.00
                  0.450000D+00           1.0000000
            D   1   1.00
                  0.125000D+01           1.0000000
            ****
            -C     0
            S   7   1.00
                  0.731999D+04           0.695369D-03
                  0.109818D+04           0.537138D-02
                  0.250014D+03           0.274734D-01
                  0.707586D+02           0.105078D+00
                  0.228595D+02           0.291262D+00
                  0.803936D+01           0.500000D+00
                  0.289309D+01           0.362224D+00
            S   2   1.00
                  0.521640D+01          -0.957844D-01
                  0.556124D+00           0.500000D+00
            S   1   1.00
                  0.228813D+00           1.0000000
            S   1   1.00
                  0.936338D-01           1.0000000
            P   4   1.00
                  0.339855D+02           0.818395D-02
                  0.772957D+01           0.586921D-01
                  0.224954D+01           0.222514D+00
                  0.767681D+00           0.500000D+00
            P   1   1.00
                  0.263283D+00           1.0000000
            P   1   1.00
                  0.848744D-01           1.0000000
            D   1   1.00
                  0.140000D+01           1.0000000
            D   1   1.00
                  0.450000D+00           1.0000000
            F   1   1.00
                  0.950000D+00           1.0000000
            ****
            -O     0
            S   7   1.00
                  0.135887D+05           0.665492D-03
                  0.203847D+04           0.514222D-02
                  0.464041D+03           0.263472D-01
                  0.131339D+03           0.101500D+00
                  0.425340D+02           0.285877D+00
                  0.150429D+02           0.500000D+00
                  0.546616D+01           0.368211D+00
            S   2   1.00
                  0.100915D+02          -0.100084D+00
                  0.110429D+01           0.500000D+00
            S   1   1.00
                  0.448082D+00           1.0000000
            S   1   1.00
                  0.175325D+00           1.0000000
            P   4   1.00
                  0.608220D+02           0.908253D-02
                  0.140332D+02           0.645878D-01
                  0.418244D+01           0.241502D+00
                  0.142490D+01           0.500000D+00
            P   1   1.00
                  0.478741D+00           1.0000000
            P   1   1.00
                  0.146257D+00           1.0000000
            D   1   1.00
                  0.220000D+01           1.0000000
            D   1   1.00
                  0.650000D+00           1.0000000
            F   1   1.00
                  0.110000D+01           1.0000000
            ****
            -N     0
            S   7   1.00
                  0.101643D+05           0.682757D-03
                  0.152481D+04           0.527488D-02
                  0.347119D+03           0.270037D-01
                  0.982389D+02           0.103673D+00
                  0.317799D+02           0.289575D+00
                  0.112240D+02           0.500000D+00
                  0.406611D+01           0.364621D+00
            S   2   1.00
                  0.747898D+01          -0.975681D-01
                  0.805040D+00           0.500000D+00
            S   1   1.00
                  0.324626D+00           1.0000000
            S   1   1.00
                  0.128132D+00           1.0000000
            P   4   1.00
                  0.482704D+02           0.829547D-02
                  0.110815D+02           0.596223D-01
                  0.326643D+01           0.227889D+00
                  0.111680D+01           0.500000D+00
            P   1   1.00
                  0.382049D+00           1.0000000
            P   1   1.00
                  0.121222D+00           1.0000000
            D   1   1.00
                  0.180000D+01           1.0000000
            D   1   1.00
                  0.550000D+00           1.0000000
            F   1   1.00
                  0.102000D+01           1.0000000
            ****
            -F     0
            S   7   1.00
                  0.174507D+05           0.655972D-03
                  0.261768D+04           0.506944D-02
                  0.595857D+03           0.259899D-01
                  0.168651D+03           0.100353D+00
                  0.546654D+02           0.284095D+00
                  0.193717D+02           0.500000D+00
                  0.706202D+01           0.370721D+00
            S   2   1.00
                  0.131197D+02          -0.101997D+00
                  0.145046D+01           0.500000D+00
            S   1   1.00
                  0.588255D+00           1.0000000
            S   1   1.00
                  0.227960D+00           1.0000000
            P   4   1.00
                  0.779407D+02           0.931135D-02
                  0.180425D+02           0.663964D-01
                  0.542342D+01           0.246386D+00
                  0.184876D+01           0.500000D+00
            P   1   1.00
                  0.617455D+00           1.0000000
            P   1   1.00
                  0.185496D+00           1.0000000
            D   1   1.00
                  0.280000D+01           1.0000000
            D   1   1.00
                  0.800000D+00           1.0000000
            F   1   1.00
                  0.120000D+01           1.0000000
            ****
            -Cl     0
            S   8   1.00
                  0.154272D+06           0.222473D-03
                  0.231232D+05           0.172590D-02
                  0.526257D+04           0.899286D-02
                  0.148995D+04           0.367724D-01
                  0.485417D+03           0.121446D+00
                  0.174634D+03           0.304148D+00
                  0.672393D+02           0.500000D+00
                  0.265780D+02           0.360252D+00
            S   3   1.00
                  0.131826D+03          -0.531330D-01
                  0.400703D+02          -0.233346D+00
                  0.789448D+01           0.500000D+00
            S   2   1.00
                  0.427711D+01           0.500000D+00
                  0.196233D+01           0.370517D+00
            S   1   1.00
                  0.520793D+00           1.0000000
            S   1   1.00
                  0.181633D+00           1.0000000
            P   7   1.00
                  0.124440D+04           0.988206D-03
                  0.295109D+03           0.829674D-02
                  0.947224D+02           0.430906D-01
                  0.352588D+02           0.148443D+00
                  0.144211D+02           0.344744D+00
                  0.610371D+01           0.500000D+00
                  0.258886D+01           0.348278D+00
            P   2   1.00
                  0.109447D+02          -0.196768D-01
                  0.104413D+01           0.500000D+00
            P   1   1.00
                  0.376184D+00           1.0000000
            P   1   1.00
                  0.120613D+00           1.0000000
            D   1   1.00
                  0.231000D+01           1.0000000
            D   1   1.00
                  0.520000D+00           1.0000000
            F   1   1.00
                  0.720000D+00           1.0000000
            ****
            -S     0
            S   8   1.00
                  0.134700D+06           0.226231D-03
                  0.201904D+05           0.175488D-02
                  0.459528D+04           0.914190D-02
                  0.130109D+04           0.373551D-01
                  0.423902D+03           0.123121D+00
                  0.152485D+03           0.306801D+00
                  0.586925D+02           0.500000D+00
                  0.231461D+02           0.354358D+00
            S   3   1.00
                  0.116327D+03          -0.491772D-01
                  0.352841D+02          -0.215962D+00
                  0.677831D+01           0.500000D+00
            S   2   1.00
                  0.360404D+01           0.500000D+00
                  0.164871D+01           0.366278D+00
            S   1   1.00
                  0.421821D+00           1.0000000
            S   1   1.00
                  0.147554D+00           1.0000000
            P   7   1.00
                  0.104863D+04           0.105273D-02
                  0.248717D+03           0.879338D-02
                  0.797887D+02           0.453358D-01
                  0.296023D+02           0.154476D+00
                  0.120627D+02           0.352366D+00
                  0.507628D+01           0.500000D+00
                  0.213375D+01           0.346429D+00
            P   2   1.00
                  0.928958D+01          -0.185932D-01
                  0.837819D+00           0.500000D+00
            P   1   1.00
                  0.301495D+00           1.0000000
            P   1   1.00
                  0.974740D-01           1.0000000
            D   1   1.00
                  0.210000D+01           1.0000000
            D   1   1.00
                  0.480000D+00           1.0000000
            F   1   1.00
                  0.660000D+00           1.0000000
            ****
            -Br     0
            S    10   1.00
                  0.233625D+07           0.532336D-04
                  0.349961D+06           0.413715D-03
                  0.796444D+05           0.217123D-02
                  0.225555D+05           0.910109D-02
                  0.735546D+04           0.323789D-01
                  0.265352D+04           0.988755D-01
                  0.103517D+04           0.248138D+00
                  0.422205D+03           0.474328D+00
                  0.180035D+03           0.500000D+00
                  0.793308D+02           0.187769D+00
            S    4   1.00
                  0.620834D+03          -0.226511D-01
                  0.190829D+03          -0.109497D+00
                  0.312505D+02           0.500000D+00
                  0.135270D+02           0.492812D+00
            S    2   1.00
                  0.216097D+02          -0.165418D+00
                  0.372566D+01           0.500000D+00
            S    1   1.00
                  0.169770D+01           1.0000000
            S    1   1.00
                  0.489332D+00           1.0000000
            S    1   1.00
                  0.175712D+00           1.0000000
            P    8   1.00
                  0.960829D+04           0.478974D-03
                  0.227618D+04           0.417853D-02
                  0.736723D+03           0.229315D-01
                  0.281579D+03           0.892653D-01
                  0.118395D+03           0.255288D+00
                  0.527481D+02           0.479074D+00
                  0.245098D+02           0.500000D+00
                  0.112009D+02           0.200944D+00
            P    4   1.00
                  0.587849D+02          -0.189674D-01
                  0.918962D+01           0.264104D+00
                  0.413895D+01           0.500000D+00
                  0.184225D+01           0.319316D+00
            P    1   1.00
                  0.713862D+00           1.0000000
            P    1   1.00
                  0.274232D+00           1.0000000
            P    1   1.00
                  0.944411D-01           1.0000000
            D    7   1.00
                  0.398470D+03           0.204066D-02
                  0.118967D+03           0.175171D-01
                  0.450197D+02           0.829708D-01
                  0.190320D+02           0.236284D+00
                  0.855686D+01           0.428468D+00
                  0.382950D+01           0.500000D+00
                  0.166291D+01           0.349360D+00
            D    1   1.00
                  0.672953D+00           1.0000000
            D    1   1.00
                  0.252000D+00           1.0000000
            F    1   1.00
                  0.530000D+00           1.0000000
            ****
            -Si     0
            S    8   1.00
                  0.996133D+05           0.235546D-03
                  0.149311D+05           0.182707D-02
                  0.339820D+04           0.951425D-02
                  0.962140D+03           0.388172D-01
                  0.313430D+03           0.127328D+00
                  0.112683D+03           0.313522D+00
                  0.433372D+02           0.500000D+00
                  0.170029D+02           0.340347D+00
            S    3   1.00
                  0.884208D+02          -0.404451D-01
                  0.266756D+02          -0.178059D+00
                  0.479640D+01           0.500000D+00
            S    2   1.00
                  0.239385D+01           0.500000D+00
                  0.108333D+01           0.338016D+00
            S    1   1.00
                  0.252420D+00           1.0000000
            S    1   1.00
                  0.891210D-01           1.0000000
            P    7   1.00
                  0.709901D+03           0.123028D-02
                  0.168426D+03           0.101366D-01
                  0.539946D+02           0.511840D-01
                  0.198646D+02           0.169967D+00
                  0.801369D+01           0.370717D+00
                  0.331870D+01           0.500000D+00
                  0.136112D+01           0.344128D+00
            P    2   1.00
                  0.622158D+01          -0.166609D-01
                  0.503049D+00           0.500000D+00
            P    1   1.00
                  0.179848D+00           1.0000000
            P    1   1.00
                  0.591912D-01           1.0000000
            D    1   1.00
                  0.168000D+01           1.0000000
            D    1   1.00
                  0.380000D+00           1.0000000
            F    1   1.00
                  0.540000D+00           1.0000000
            ****
            -P     0
            S    8   1.00
                  0.116416D+06           0.230715D-03
                  0.174500D+05           0.178960D-02
                  0.397149D+04           0.932116D-02
                  0.112447D+04           0.380591D-01
                  0.366347D+03           0.125148D+00
                  0.131757D+03           0.310022D+00
                  0.506988D+02           0.500000D+00
                  0.199436D+02           0.347528D+00
            S    3   1.00
                  0.101878D+03          -0.446755D-01
                  0.308249D+02          -0.196376D+00
                  0.573688D+01           0.500000D+00
            S    2   1.00
                  0.296868D+01           0.500000D+00
                  0.135315D+01           0.355098D+00
            S    1   1.00
                  0.332196D+00           1.0000000
            S    1   1.00
                  0.116229D+00           1.0000000
            P    7   1.00
                  0.873928D+03           0.112375D-02
                  0.207298D+03           0.933330D-02
                  0.664628D+02           0.477213D-01
                  0.245665D+02           0.160733D+00
                  0.996820D+01           0.359760D+00
                  0.416536D+01           0.500000D+00
                  0.173022D+01           0.346593D+00
            P    2   1.00
                  0.772530D+01          -0.175718D-01
                  0.657252D+00           0.500000D+00
            P    1   1.00
                  0.239903D+00           1.0000000
            P    1   1.00
                  0.800988D-01           1.0000000
            D    1   1.00
                  0.189000D+01           1.0000000
            D    1   1.00
                  0.430000D+00           1.0000000
            F    1   1.00
                  0.600000D+00           1.0000000
            ****
            
 Initial command:
 /usr/local/apps/g16_b01_avx/g16/l1.exe "/wrk/irikura/Gau-492234.inp" -scrdir="/wrk/irikura/"
 Entering Link 1 = /usr/local/apps/g16_b01_avx/g16/l1.exe PID=    492236.
  
 Copyright (c) 1988-2017, Gaussian, Inc.  All Rights Reserved.
  
 This is part of the Gaussian(R) 16 program.  It is based on
 the Gaussian(R) 09 system (copyright 2009, Gaussian, Inc.),
 the Gaussian(R) 03 system (copyright 2003, Gaussian, Inc.),
 the Gaussian(R) 98 system (copyright 1998, Gaussian, Inc.),
 the Gaussian(R) 94 system (copyright 1995, Gaussian, Inc.),
 the Gaussian 92(TM) system (copyright 1992, Gaussian, Inc.),
 the Gaussian 90(TM) system (copyright 1990, Gaussian, Inc.),
 the Gaussian 88(TM) system (copyright 1988, Gaussian, Inc.),
 the Gaussian 86(TM) system (copyright 1986, Carnegie Mellon
 University), and the Gaussian 82(TM) system (copyright 1983,
 Carnegie Mellon University). Gaussian is a federally registered
 trademark of Gaussian, Inc.
  
 This software contains proprietary and confidential information,
 including trade secrets, belonging to Gaussian, Inc.
  
 This software is provided under written license and may be
 used, copied, transmitted, or stored only in accord with that
 written license.
  
 The following legend is applicable only to US Government
 contracts under FAR:
  
                    RESTRICTED RIGHTS LEGEND
  
 Use, reproduction and disclosure by the US Government is
 subject to restrictions as set forth in subparagraphs (a)
 and (c) of the Commercial Computer Software - Restricted
 Rights clause in FAR 52.227-19.
  
 Gaussian, Inc.
 340 Quinnipiac St., Bldg. 40, Wallingford CT 06492
  
  
 ---------------------------------------------------------------
 Warning -- This program may not be used in any manner that
 competes with the business of Gaussian, Inc. or will provide
 assistance to any competitor of Gaussian, Inc.  The licensee
 of this program is prohibited from giving any competitor of
 Gaussian, Inc. access to this program.  By using this program,
 the user acknowledges that Gaussian, Inc. is engaged in the
 business of creating and licensing software in the field of
 computational chemistry and represents and warrants to the
 licensee that it is not a competitor of Gaussian, Inc. and that
 it will not use this program in any manner prohibited above.
 ---------------------------------------------------------------
  

 Cite this work as:
 Gaussian 16, Revision B.01,
 M. J. Frisch, G. W. Trucks, H. B. Schlegel, G. E. Scuseria, 
 M. A. Robb, J. R. Cheeseman, G. Scalmani, V. Barone, 
 G. A. Petersson, H. Nakatsuji, X. Li, M. Caricato, A. V. Marenich, 
 J. Bloino, B. G. Janesko, R. Gomperts, B. Mennucci, H. P. Hratchian, 
 J. V. Ortiz, A. F. Izmaylov, J. L. Sonnenberg, D. Williams-Young, 
 F. Ding, F. Lipparini, F. Egidi, J. Goings, B. Peng, A. Petrone, 
 T. Henderson, D. Ranasinghe, V. G. Zakrzewski, J. Gao, N. Rega, 
 G. Zheng, W. Liang, M. Hada, M. Ehara, K. Toyota, R. Fukuda, 
 J. Hasegawa, M. Ishida, T. Nakajima, Y. Honda, O. Kitao, H. Nakai, 
 T. Vreven, K. Throssell, J. A. Montgomery, Jr., J. E. Peralta, 
 F. Ogliaro, M. J. Bearpark, J. J. Heyd, E. N. Brothers, K. N. Kudin, 
 V. N. Staroverov, T. A. Keith, R. Kobayashi, J. Normand, 
 K. Raghavachari, A. P. Rendell, J. C. Burant, S. S. Iyengar, 
 J. Tomasi, M. Cossi, J. M. Millam, M. Klene, C. Adamo, R. Cammi, 
 J. W. Ochterski, R. L. Martin, K. Morokuma, O. Farkas, 
 J. B. Foresman, and D. J. Fox, Gaussian, Inc., Wallingford CT, 2016.
 
 ******************************************
 Gaussian 16:  ES64L-G16RevB.01 20-Dec-2017
                 1-Oct-2023 
 ******************************************
 %chk=ch2o.chk
 %mem=500mw
 %nprocs=4
 Will use up to    4 processors via shared memory.
 ---------------------------------------
 # b3lyp/gen opt freq CPHF(Grid=OneStep)
 ---------------------------------------
 1/18=20,19=15,26=3,38=1/1,3;
 2/9=110,12=2,17=6,18=5,40=1/2;
 3/5=7,11=2,25=1,30=1,71=1,74=-5/1,2,3;
 4//1;
 5/5=2,38=5/2;
 6/7=2,8=2,9=2,10=2,28=1/1;
 7//1,2,3,16;
 1/18=20,19=15,26=3/3(2);
 2/9=110/2;
 99//99;
 2/9=110/2;
 3/5=7,6=1,11=2,25=1,30=1,71=1,74=-5,82=7/1,2,3;
 4/5=5,16=3,69=1/1;
 5/5=2,38=5/2;
 7//1,2,3,16;
 1/18=20,19=15,26=3/3(-5);
 2/9=110/2;
 6/7=2,8=2,9=2,10=2,19=2,28=1/1;
 99/9=1/99;
 -------------------
 CH2O, B3LYP/pcseg-2
 -------------------
 Symbolic Z-matrix:
 Charge =  0 Multiplicity = 1
 C                     0.        0.       -0.52627 
 O                     0.        0.        0.67282 
 H                     0.        0.93788  -1.11247 
 H                     0.       -0.93788  -1.11247 
 

 GradGradGradGradGradGradGradGradGradGradGradGradGradGradGradGradGradGrad
 Berny optimization.
 Initialization pass.
                           ----------------------------
                           !    Initial Parameters    !
                           ! (Angstroms and Degrees)  !
 --------------------------                            --------------------------
 ! Name  Definition              Value          Derivative Info.                !
 --------------------------------------------------------------------------------
 ! R1    R(1,2)                  1.1991         estimate D2E/DX2                !
 ! R2    R(1,3)                  1.106          estimate D2E/DX2                !
 ! R3    R(1,4)                  1.106          estimate D2E/DX2                !
 ! A1    A(2,1,3)              122.0065         estimate D2E/DX2                !
 ! A2    A(2,1,4)              122.0065         estimate D2E/DX2                !
 ! A3    A(3,1,4)              115.987          estimate D2E/DX2                !
 ! D1    D(2,1,4,3)            180.0            estimate D2E/DX2                !
 --------------------------------------------------------------------------------
 Trust Radius=3.00D-01 FncErr=1.00D-07 GrdErr=1.00D-06 EigMax=2.50D+02 EigMin=1.00D-04
 Number of steps in this run=     20 maximum allowed number of steps=    100.
 GradGradGradGradGradGradGradGradGradGradGradGradGradGradGradGradGradGrad

                          Input orientation:                          
 ---------------------------------------------------------------------
 Center     Atomic      Atomic             Coordinates (Angstroms)
 Number     Number       Type             X           Y           Z
 ---------------------------------------------------------------------
      1          6           0        0.000000    0.000000   -0.526271
      2          8           0        0.000000    0.000000    0.672821
      3          1           0        0.000000    0.937875   -1.112468
      4          1           0        0.000000   -0.937875   -1.112468
 ---------------------------------------------------------------------
                    Distance matrix (angstroms):
                    1          2          3          4
     1  C    0.000000
     2  O    1.199092   0.000000
     3  H    1.106000   2.016647   0.000000
     4  H    1.106000   2.016647   1.875750   0.000000
 Stoichiometry    CH2O
 Framework group  C2V[C2(CO),SGV(H2)]
 Deg. of freedom     3
 Full point group                 C2V     NOp   4
 Largest Abelian subgroup         C2V     NOp   4
 Largest concise Abelian subgroup C2      NOp   2
                         Standard orientation:                         
 ---------------------------------------------------------------------
 Center     Atomic      Atomic             Coordinates (Angstroms)
 Number     Number       Type             X           Y           Z
 ---------------------------------------------------------------------
      1          6           0        0.000000    0.000000   -0.526271
      2          8           0        0.000000   -0.000000    0.672821
      3          1           0        0.000000    0.937875   -1.112468
      4          1           0       -0.000000   -0.937875   -1.112468
 ---------------------------------------------------------------------
 Rotational constants (GHZ):         285.0441563          39.1860864          34.4501020
 General basis read from cards:  (5D, 7F)
 There are    43 symmetry adapted cartesian basis functions of A1  symmetry.
 There are    10 symmetry adapted cartesian basis functions of A2  symmetry.
 There are    20 symmetry adapted cartesian basis functions of B1  symmetry.
 There are    27 symmetry adapted cartesian basis functions of B2  symmetry.
 There are    36 symmetry adapted basis functions of A1  symmetry.
 There are    10 symmetry adapted basis functions of A2  symmetry.
 There are    18 symmetry adapted basis functions of B1  symmetry.
 There are    24 symmetry adapted basis functions of B2  symmetry.
    88 basis functions,   138 primitive gaussians,   100 cartesian basis functions
     8 alpha electrons        8 beta electrons
       nuclear repulsion energy        31.4052269440 Hartrees.
 NAtoms=    4 NActive=    4 NUniq=    3 SFac= 1.78D+00 NAtFMM=   60 NAOKFM=F Big=F
 Integral buffers will be    131072 words long.
 Raffenetti 2 integral format.
 Two-electron integral symmetry is turned on.
 One-electron integrals computed using PRISM.
 NBasis=    88 RedAO= T EigKep=  1.89D-03  NBF=    36    10    18    24
 NBsUse=    88 1.00D-06 EigRej= -1.00D+00 NBFU=    36    10    18    24
 ExpMin= 7.42D-02 ExpMax= 1.36D+04 ExpMxC= 4.64D+02 IAcc=3 IRadAn=         5 AccDes= 0.00D+00
 Harris functional with IExCor=  402 and IRadAn=       5 diagonalized for initial guess.
 HarFok:  IExCor=  402 AccDes= 0.00D+00 IRadAn=         5 IDoV= 1 UseB2=F ITyADJ=14
 ICtDFT=  3500011 ScaDFX=  1.000000  1.000000  1.000000  1.000000
 FoFCou: FMM=F IPFlag=           0 FMFlag=      100000 FMFlg1=           0
         NFxFlg=           0 DoJE=T BraDBF=F KetDBF=T FulRan=T
         wScrn=  0.000000 ICntrl=       500 IOpCl=  0 I1Cent=   200000004 NGrid=           0
         NMat0=    1 NMatS0=      1 NMatT0=    0 NMatD0=    1 NMtDS0=    0 NMtDT0=    0
 Petite list used in FoFCou.
 Initial guess orbital symmetries:
       Occupied  (A1) (A1) (A1) (A1) (B2) (A1) (B1) (B2)
       Virtual   (B1) (A1) (B2) (A1) (B1) (A1) (B2) (B2) (A1) (A1)
                 (B1) (A1) (B2) (A2) (A1) (B1) (B2) (A1) (A1) (B2)
                 (A1) (B1) (A2) (B2) (B1) (A1) (A1) (B2) (A2) (A1)
                 (B1) (B2) (A1) (A1) (B1) (B2) (A1) (B2) (A1) (A2)
                 (B1) (B2) (B2) (A1) (B1) (A1) (A2) (B2) (A1) (B1)
                 (A2) (B1) (A1) (B2) (A2) (B2) (B1) (A1) (A1) (B1)
                 (B2) (A1) (A2) (A1) (B2) (B1) (A1) (B2) (A1) (A2)
                 (B1) (B2) (A1) (A2) (A1) (A1) (B1) (B2) (B2) (A1)
 The electronic state of the initial guess is 1-A1.
 Keep R1 ints in memory in symmetry-blocked form, NReq=11387006.
 Requested convergence on RMS density matrix=1.00D-08 within 128 cycles.
 Requested convergence on MAX density matrix=1.00D-06.
 Requested convergence on             energy=1.00D-06.
 No special actions if energy rises.
 Integral accuracy reduced to 1.0D-05 until final iterations.
 Initial convergence to 1.0D-05 achieved.  Increase integral accuracy.
 SCF Done:  E(RB3LYP) =  -114.554613510     A.U. after   11 cycles
            NFock= 11  Conv=0.52D-08     -V/T= 2.0032

 **********************************************************************

            Population analysis using the SCF Density.

 **********************************************************************

 Orbital symmetries:
       Occupied  (A1) (A1) (A1) (A1) (B2) (A1) (B1) (B2)
       Virtual   (B1) (A1) (B2) (A1) (B1) (A1) (B2) (A1) (A1) (B2)
                 (B1) (A1) (B2) (A2) (A1) (B1) (B2) (A1) (A1) (B2)
                 (A1) (B1) (A2) (B2) (B1) (A1) (A1) (B2) (A1) (A2)
                 (B1) (B2) (A1) (A1) (B1) (A1) (B2) (B2) (A1) (A2)
                 (B1) (B2) (B2) (A1) (B1) (A1) (A2) (B2) (A1) (B1)
                 (A2) (B1) (B2) (A1) (A2) (B2) (B1) (A1) (A1) (B1)
                 (B2) (A1) (A2) (A1) (B2) (B1) (A1) (B2) (A1) (A2)
                 (B1) (B2) (A1) (A2) (A1) (A1) (B1) (B2) (B2) (A1)
 The electronic state is 1-A1.
 Alpha  occ. eigenvalues --  -19.14785 -10.27741  -1.07327  -0.64338  -0.50679
 Alpha  occ. eigenvalues --   -0.46321  -0.41360  -0.28090
 Alpha virt. eigenvalues --   -0.06112   0.01863   0.06679   0.09112   0.16368
 Alpha virt. eigenvalues --    0.20441   0.23224   0.31057   0.33171   0.33464
 Alpha virt. eigenvalues --    0.41492   0.46970   0.50143   0.63592   0.69098
 Alpha virt. eigenvalues --    0.86329   0.90316   0.92588   0.98562   1.00653
 Alpha virt. eigenvalues --    1.14579   1.18440   1.18565   1.25948   1.26763
 Alpha virt. eigenvalues --    1.40307   1.54283   1.59578   1.69288   1.69419
 Alpha virt. eigenvalues --    1.94970   1.97192   1.98223   2.04823   2.38288
 Alpha virt. eigenvalues --    2.41530   2.41780   2.67319   2.90749   3.14466
 Alpha virt. eigenvalues --    3.17656   3.32958   3.52322   3.54146   3.58539
 Alpha virt. eigenvalues --    3.64677   3.78010   3.90717   3.91663   3.97253
 Alpha virt. eigenvalues --    3.98949   4.02941   4.11364   4.11550   4.23363
 Alpha virt. eigenvalues --    4.26543   4.29750   4.32321   4.32922   4.49697
 Alpha virt. eigenvalues --    4.52035   4.56954   4.69583   4.70730   4.94972
 Alpha virt. eigenvalues --    5.08439   5.36616   5.41066   5.49849   5.58477
 Alpha virt. eigenvalues --    5.62154   5.78935   5.84731   6.08317   6.12028
 Alpha virt. eigenvalues --    6.15174   6.42637   6.51541   6.78328   7.13552
          Condensed to atoms (all electrons):
               1          2          3          4
     1  C    4.364904   0.568768   0.385316   0.385316
     2  O    0.568768   7.905830  -0.072345  -0.072345
     3  H    0.385316  -0.072345   0.797101  -0.127179
     4  H    0.385316  -0.072345  -0.127179   0.797101
 Mulliken charges:
               1
     1  C    0.295696
     2  O   -0.329909
     3  H    0.017106
     4  H    0.017106
 Sum of Mulliken charges =  -0.00000
 Mulliken charges with hydrogens summed into heavy atoms:
               1
     1  C    0.329909
     2  O   -0.329909
 Electronic spatial extent (au):  <R**2>=             60.6060
 Charge=             -0.0000 electrons
 Dipole moment (field-independent basis, Debye):
    X=              0.0000    Y=             -0.0000    Z=             -2.3960  Tot=              2.3960
 Quadrupole moment (field-independent basis, Debye-Ang):
   XX=            -11.7092   YY=            -11.7046   ZZ=            -12.3881
   XY=              0.0000   XZ=              0.0000   YZ=              0.0000
 Traceless Quadrupole moment (field-independent basis, Debye-Ang):
   XX=              0.2248   YY=              0.2294   ZZ=             -0.4542
   XY=              0.0000   XZ=              0.0000   YZ=              0.0000
 Octapole moment (field-independent basis, Debye-Ang**2):
  XXX=              0.0000  YYY=              0.0000  ZZZ=              0.5723  XYY=              0.0000
  XXY=              0.0000  XXZ=              0.6594  XZZ=              0.0000  YZZ=             -0.0000
  YYZ=             -0.3782  XYZ=             -0.0000
 Hexadecapole moment (field-independent basis, Debye-Ang**3):
 XXXX=            -10.6500 YYYY=            -19.2782 ZZZZ=            -46.7506 XXXY=             -0.0000
 XXXZ=             -0.0000 YYYX=             -0.0000 YYYZ=              0.0000 ZZZX=             -0.0000
 ZZZY=             -0.0000 XXYY=             -5.2841 XXZZ=             -9.5100 YYZZ=            -10.7576
 XXYZ=             -0.0000 YYXZ=             -0.0000 ZZXY=             -0.0000
 N-N= 3.140522694396D+01 E-N=-3.319368919334D+02  KE= 1.141889053387D+02
 Symmetry A1   KE= 1.036871072109D+02
 Symmetry A2   KE= 6.072372403069D-33
 Symmetry B1   KE= 3.703864994330D+00
 Symmetry B2   KE= 6.797933133463D+00
 Calling FoFJK, ICntrl=      2127 FMM=F ISym2X=1 I1Cent= 0 IOpClX= 0 NMat=1 NMatS=1 NMatT=0.
 ***** Axes restored to original set *****
 -------------------------------------------------------------------
 Center     Atomic                   Forces (Hartrees/Bohr)
 Number     Number              X              Y              Z
 -------------------------------------------------------------------
      1        6          -0.000000000    0.000000000   -0.000010057
      2        8          -0.000000000    0.000000000   -0.000003126
      3        1           0.000000000   -0.000044799    0.000006591
      4        1           0.000000000    0.000044799    0.000006591
 -------------------------------------------------------------------
 Cartesian Forces:  Max     0.000044799 RMS     0.000018734

 GradGradGradGradGradGradGradGradGradGradGradGradGradGradGradGradGradGrad
 Berny optimization.
 FormGI is forming the generalized inverse of G from B-inverse, IUseBI=4.
 Internal  Forces:  Max     0.000041482 RMS     0.000025103
 Search for a local minimum.
 Step number   1 out of a maximum of   20
 All quantities printed in internal units (Hartrees-Bohrs-Radians)
 Mixed Optimization -- En-DIIS/RFO-DIIS
 Second derivative matrix not updated -- first step.
 The second derivative matrix:
                          R1        R2        R3        A1        A2
           R1           1.05281
           R2           0.00000   0.33027
           R3           0.00000   0.00000   0.33027
           A1           0.00000   0.00000   0.00000   0.16000
           A2           0.00000   0.00000   0.00000   0.00000   0.16000
           A3           0.00000   0.00000   0.00000   0.00000   0.00000
           D1           0.00000   0.00000   0.00000   0.00000   0.00000
                          A3        D1
           A3           0.16000
           D1           0.00000   0.00230
 ITU=  0
     Eigenvalues ---    0.00230   0.16000   0.16000   0.33027   0.33027
     Eigenvalues ---    1.05281
 RFO step:  Lambda=-1.64286131D-08 EMin= 2.30000000D-03
 Linear search not attempted -- first point.
 Iteration  1 RMS(Cart)=  0.00010725 RMS(Int)=  0.00000001
 Iteration  2 RMS(Cart)=  0.00000000 RMS(Int)=  0.00000000
 ClnCor:  largest displacement from symmetrization is 2.14D-13 for atom     1.
 Variable       Old X    -DE/DX   Delta X   Delta X   Delta X     New X
                                 (Linear)    (Quad)   (Total)
    R1        2.26596  -0.00000   0.00000  -0.00000  -0.00000   2.26595
    R2        2.09004  -0.00004   0.00000  -0.00013  -0.00013   2.08991
    R3        2.09004  -0.00004   0.00000  -0.00013  -0.00013   2.08991
    A1        2.12941   0.00001   0.00000   0.00008   0.00008   2.12949
    A2        2.12941   0.00001   0.00000   0.00008   0.00008   2.12949
    A3        2.02436  -0.00003   0.00000  -0.00016  -0.00016   2.02420
    D1        3.14159   0.00000   0.00000   0.00000   0.00000   3.14159
         Item               Value     Threshold  Converged?
 Maximum Force            0.000041     0.000450     YES
 RMS     Force            0.000025     0.000300     YES
 Maximum Displacement     0.000194     0.001800     YES
 RMS     Displacement     0.000107     0.001200     YES
 Predicted change in Energy=-8.214307D-09
 Optimization completed.
    -- Stationary point found.
                           ----------------------------
                           !   Optimized Parameters   !
                           ! (Angstroms and Degrees)  !
 --------------------------                            --------------------------
 ! Name  Definition              Value          Derivative Info.                !
 --------------------------------------------------------------------------------
 ! R1    R(1,2)                  1.1991         -DE/DX =    0.0                 !
 ! R2    R(1,3)                  1.106          -DE/DX =    0.0                 !
 ! R3    R(1,4)                  1.106          -DE/DX =    0.0                 !
 ! A1    A(2,1,3)              122.0065         -DE/DX =    0.0                 !
 ! A2    A(2,1,4)              122.0065         -DE/DX =    0.0                 !
 ! A3    A(3,1,4)              115.987          -DE/DX =    0.0                 !
 ! D1    D(2,1,4,3)            180.0            -DE/DX =    0.0                 !
 --------------------------------------------------------------------------------
 GradGradGradGradGradGradGradGradGradGradGradGradGradGradGradGradGradGrad

                          Input orientation:                          
 ---------------------------------------------------------------------
 Center     Atomic      Atomic             Coordinates (Angstroms)
 Number     Number       Type             X           Y           Z
 ---------------------------------------------------------------------
      1          6           0        0.000000    0.000000   -0.526271
      2          8           0       -0.000000   -0.000000    0.672821
      3          1           0        0.000000    0.937875   -1.112468
      4          1           0       -0.000000   -0.937875   -1.112468
 ---------------------------------------------------------------------
                    Distance matrix (angstroms):
                    1          2          3          4
     1  C    0.000000
     2  O    1.199092   0.000000
     3  H    1.106000   2.016647   0.000000
     4  H    1.106000   2.016647   1.875750   0.000000
 Stoichiometry    CH2O
 Framework group  C2V[C2(CO),SGV(H2)]
 Deg. of freedom     3
 Full point group                 C2V     NOp   4
 Largest Abelian subgroup         C2V     NOp   4
 Largest concise Abelian subgroup C2      NOp   2
                         Standard orientation:                         
 ---------------------------------------------------------------------
 Center     Atomic      Atomic             Coordinates (Angstroms)
 Number     Number       Type             X           Y           Z
 ---------------------------------------------------------------------
      1          6           0        0.000000    0.000000   -0.526271
      2          8           0        0.000000    0.000000    0.672821
      3          1           0        0.000000    0.937875   -1.112468
      4          1           0       -0.000000   -0.937875   -1.112468
 ---------------------------------------------------------------------
 Rotational constants (GHZ):         285.0441563          39.1860864          34.4501020
 1\1\GINC-GAMBA\FOpt\RB3LYP\Gen\C1H2O1\IRIKURA\01-Oct-2023\0\\# b3lyp/g
 en opt freq CPHF(Grid=OneStep)\\CH2O, B3LYP/pcseg-2\\0,1\C,0.,0.,-0.52
 6271\O,0.,0.,0.672821\H,0.,0.937875,-1.112468\H,0.,-0.937875,-1.112468
 \\Version=ES64L-G16RevB.01\State=1-A1\HF=-114.5546135\RMSD=5.215e-09\R
 MSF=1.873e-05\Dipole=0.,0.,-0.9426781\Quadrupole=0.1670996,0.1705504,-
 0.33765,0.,0.,0.\PG=C02V [C2(C1O1),SGV(H2)]\\@


 IT'S WHAT YOU LEARN AFTER YOU KNOW IT ALL
 THAT COUNTS.
 Job cpu time:       0 days  0 hours  0 minutes 12.6 seconds.
 Elapsed time:       0 days  0 hours  0 minutes  3.2 seconds.
 File lengths (MBytes):  RWF=     10 Int=      0 D2E=      0 Chk=      2 Scr=      1
 Normal termination of Gaussian 16 at Sun Oct  1 00:39:56 2023.
 Link1:  Proceeding to internal job step number  2.
 ------------------------------------------------------------------
 #N Geom=AllCheck Guess=TCheck SCRF=Check GenChk RB3LYP/ChkBas Freq
 ------------------------------------------------------------------
 1/10=4,29=7,30=1,38=1,40=1/1,3;
 2/12=2,40=1/2;
 3/5=7,6=2,11=2,14=-4,25=1,30=1,67=1,70=2,71=2,74=-5,82=7,116=1,140=1/1,2,3;
 4/5=101/1;
 5/5=2,38=6,98=1/2;
 8/6=4,10=90,11=11/1;
 11/6=1,8=1,9=11,15=111,16=1/1,2,10;
 10/6=1,60=-420/2;
 6/7=2,8=2,9=2,10=2,28=1/1;
 7/8=1,10=1,25=1/1,2,3,16;
 1/10=4,30=1/3;
 99//99;
 Structure from the checkpoint file:  "ch2o.chk"
 -------------------
 CH2O, B3LYP/pcseg-2
 -------------------
 Charge =  0 Multiplicity = 1
 Redundant internal coordinates found in file.  (old form).
 C,0,0.,0.,-0.526271
 O,0,0.,0.,0.672821
 H,0,0.,0.937875,-1.112468
 H,0,0.,-0.937875,-1.112468
 Recover connectivity data from disk.

 GradGradGradGradGradGradGradGradGradGradGradGradGradGradGradGradGradGrad
 Berny optimization.
 Initialization pass.
                           ----------------------------
                           !    Initial Parameters    !
                           ! (Angstroms and Degrees)  !
 --------------------------                            --------------------------
 ! Name  Definition              Value          Derivative Info.                !
 --------------------------------------------------------------------------------
 ! R1    R(1,2)                  1.1991         calculate D2E/DX2 analytically  !
 ! R2    R(1,3)                  1.106          calculate D2E/DX2 analytically  !
 ! R3    R(1,4)                  1.106          calculate D2E/DX2 analytically  !
 ! A1    A(2,1,3)              122.0065         calculate D2E/DX2 analytically  !
 ! A2    A(2,1,4)              122.0065         calculate D2E/DX2 analytically  !
 ! A3    A(3,1,4)              115.987          calculate D2E/DX2 analytically  !
 ! D1    D(2,1,4,3)            180.0            calculate D2E/DX2 analytically  !
 --------------------------------------------------------------------------------
 Trust Radius=3.00D-01 FncErr=1.00D-07 GrdErr=1.00D-07 EigMax=2.50D+02 EigMin=1.00D-04
 Number of steps in this run=      2 maximum allowed number of steps=      2.
 GradGradGradGradGradGradGradGradGradGradGradGradGradGradGradGradGradGrad

                          Input orientation:                          
 ---------------------------------------------------------------------
 Center     Atomic      Atomic             Coordinates (Angstroms)
 Number     Number       Type             X           Y           Z
 ---------------------------------------------------------------------
      1          6           0        0.000000    0.000000   -0.526271
      2          8           0       -0.000000   -0.000000    0.672821
      3          1           0        0.000000    0.937875   -1.112468
      4          1           0       -0.000000   -0.937875   -1.112468
 ---------------------------------------------------------------------
                    Distance matrix (angstroms):
                    1          2          3          4
     1  C    0.000000
     2  O    1.199092   0.000000
     3  H    1.106000   2.016647   0.000000
     4  H    1.106000   2.016647   1.875750   0.000000
 Stoichiometry    CH2O
 Framework group  C2V[C2(CO),SGV(H2)]
 Deg. of freedom     3
 Full point group                 C2V     NOp   4
 Largest Abelian subgroup         C2V     NOp   4
 Largest concise Abelian subgroup C2      NOp   2
                         Standard orientation:                         
 ---------------------------------------------------------------------
 Center     Atomic      Atomic             Coordinates (Angstroms)
 Number     Number       Type             X           Y           Z
 ---------------------------------------------------------------------
      1          6           0       -0.000000   -0.000000   -0.526271
      2          8           0        0.000000    0.000000    0.672821
      3          1           0        0.000000    0.937875   -1.112468
      4          1           0       -0.000000   -0.937875   -1.112468
 ---------------------------------------------------------------------
 Rotational constants (GHZ):         285.0441563          39.1860864          34.4501020
 Basis read from chk: "ch2o.chk" (5D, 7F)
 There are    43 symmetry adapted cartesian basis functions of A1  symmetry.
 There are    10 symmetry adapted cartesian basis functions of A2  symmetry.
 There are    20 symmetry adapted cartesian basis functions of B1  symmetry.
 There are    27 symmetry adapted cartesian basis functions of B2  symmetry.
 There are    36 symmetry adapted basis functions of A1  symmetry.
 There are    10 symmetry adapted basis functions of A2  symmetry.
 There are    18 symmetry adapted basis functions of B1  symmetry.
 There are    24 symmetry adapted basis functions of B2  symmetry.
    88 basis functions,   138 primitive gaussians,   100 cartesian basis functions
     8 alpha electrons        8 beta electrons
       nuclear repulsion energy        31.4052269440 Hartrees.
 NAtoms=    4 NActive=    4 NUniq=    3 SFac= 1.78D+00 NAtFMM=   60 NAOKFM=F Big=F
 Integral buffers will be    131072 words long.
 Raffenetti 2 integral format.
 Two-electron integral symmetry is turned on.
 One-electron integrals computed using PRISM.
 NBasis=    88 RedAO= T EigKep=  1.89D-03  NBF=    36    10    18    24
 NBsUse=    88 1.00D-06 EigRej= -1.00D+00 NBFU=    36    10    18    24
 Initial guess from the checkpoint file:  "ch2o.chk"
 B after Tr=    -0.000000   -0.000000    0.000000
         Rot=    1.000000   -0.000000    0.000000   -0.000000 Ang=   0.00 deg.
 Initial guess orbital symmetries:
       Occupied  (A1) (A1) (A1) (A1) (B2) (A1) (B1) (B2)
       Virtual   (B1) (A1) (B2) (A1) (B1) (A1) (B2) (A1) (A1) (B2)
                 (B1) (A1) (B2) (A2) (A1) (B1) (B2) (A1) (A1) (B2)
                 (A1) (B1) (A2) (B2) (B1) (A1) (A1) (B2) (A1) (A2)
                 (B1) (B2) (A1) (A1) (B1) (A1) (B2) (B2) (A1) (A2)
                 (B1) (B2) (B2) (A1) (B1) (A1) (A2) (B2) (A1) (B1)
                 (A2) (B1) (B2) (A1) (A2) (B2) (B1) (A1) (A1) (B1)
                 (B2) (A1) (A2) (A1) (B2) (B1) (A1) (B2) (A1) (A2)
                 (B1) (B2) (A1) (A2) (A1) (A1) (B1) (B2) (B2) (A1)
 Keep R1 ints in memory in symmetry-blocked form, NReq=11387006.
 Requested convergence on RMS density matrix=1.00D-08 within 128 cycles.
 Requested convergence on MAX density matrix=1.00D-06.
 Requested convergence on             energy=1.00D-06.
 No special actions if energy rises.
 SCF Done:  E(RB3LYP) =  -114.554613510     A.U. after    1 cycles
            NFock=  1  Conv=0.63D-09     -V/T= 2.0032
 DoSCS=F DFT=T ScalE2(SS,OS)=  1.000000  1.000000
 Range of M.O.s used for correlation:     1    88
 NBasis=    88 NAE=     8 NBE=     8 NFC=     0 NFV=     0
 NROrb=     88 NOA=     8 NOB=     8 NVA=    80 NVB=    80
 Symmetrizing basis deriv contribution to polar:
 IMax=3 JMax=2 DiffMx= 0.00D+00
 G2DrvN: will do     5 centers at a time, making    1 passes.
 Calling FoFCou, ICntrl=  3107 FMM=F I1Cent=   0 AccDes= 0.00D+00.
 End of G2Drv F.D. properties file   721 does not exist.
 End of G2Drv F.D. properties file   722 does not exist.
 End of G2Drv F.D. properties file   788 does not exist.
          IDoAtm=1111
          Differentiating once with respect to electric field.
                with respect to dipole field.
          Differentiating once with respect to nuclear coordinates.
 Keep R1 ints in memory in symmetry-blocked form, NReq=11381661.
          There are    12 degrees of freedom in the 1st order CPHF.  IDoFFX=4 NUNeed=    12.
     12 vectors produced by pass  0 Test12= 5.33D-15 8.33D-09 XBig12= 1.84D+01 3.15D+00.
 AX will form    12 AO Fock derivatives at one time.
     12 vectors produced by pass  1 Test12= 5.33D-15 8.33D-09 XBig12= 6.83D+00 9.74D-01.
     12 vectors produced by pass  2 Test12= 5.33D-15 8.33D-09 XBig12= 1.94D-01 1.65D-01.
     12 vectors produced by pass  3 Test12= 5.33D-15 8.33D-09 XBig12= 1.34D-03 1.54D-02.
     12 vectors produced by pass  4 Test12= 5.33D-15 8.33D-09 XBig12= 7.13D-06 8.34D-04.
      8 vectors produced by pass  5 Test12= 5.33D-15 8.33D-09 XBig12= 1.14D-08 4.19D-05.
      2 vectors produced by pass  6 Test12= 5.33D-15 8.33D-09 XBig12= 1.06D-11 1.03D-06.
      1 vectors produced by pass  7 Test12= 5.33D-15 8.33D-09 XBig12= 1.01D-14 2.49D-08.
 InvSVY:  IOpt=1 It=  1 EMax= 8.88D-16
 Solved reduced A of dimension    71 with    12 vectors.
 Isotropic polarizability for W=    0.000000       15.93 Bohr**3.
 End of Minotr F.D. properties file   721 does not exist.
 End of Minotr F.D. properties file   722 does not exist.
 End of Minotr F.D. properties file   788 does not exist.

 **********************************************************************

            Population analysis using the SCF Density.

 **********************************************************************

 Orbital symmetries:
       Occupied  (A1) (A1) (A1) (A1) (B2) (A1) (B1) (B2)
       Virtual   (B1) (A1) (B2) (A1) (B1) (A1) (B2) (A1) (A1) (B2)
                 (B1) (A1) (B2) (A2) (A1) (B1) (B2) (A1) (A1) (B2)
                 (A1) (B1) (A2) (B2) (B1) (A1) (A1) (B2) (A1) (A2)
                 (B1) (B2) (A1) (A1) (B1) (A1) (B2) (B2) (A1) (A2)
                 (B1) (B2) (B2) (A1) (B1) (A1) (A2) (B2) (A1) (B1)
                 (A2) (B1) (B2) (A1) (A2) (B2) (B1) (A1) (A1) (B1)
                 (B2) (A1) (A2) (A1) (B2) (B1) (A1) (B2) (A1) (A2)
                 (B1) (B2) (A1) (A2) (A1) (A1) (B1) (B2) (B2) (A1)
 The electronic state is 1-A1.
 Alpha  occ. eigenvalues --  -19.14785 -10.27741  -1.07327  -0.64338  -0.50679
 Alpha  occ. eigenvalues --   -0.46321  -0.41360  -0.28090
 Alpha virt. eigenvalues --   -0.06112   0.01863   0.06679   0.09112   0.16368
 Alpha virt. eigenvalues --    0.20441   0.23224   0.31057   0.33171   0.33464
 Alpha virt. eigenvalues --    0.41492   0.46970   0.50143   0.63592   0.69098
 Alpha virt. eigenvalues --    0.86329   0.90316   0.92588   0.98562   1.00653
 Alpha virt. eigenvalues --    1.14579   1.18440   1.18565   1.25948   1.26763
 Alpha virt. eigenvalues --    1.40307   1.54283   1.59578   1.69288   1.69419
 Alpha virt. eigenvalues --    1.94970   1.97192   1.98223   2.04823   2.38288
 Alpha virt. eigenvalues --    2.41530   2.41780   2.67319   2.90749   3.14466
 Alpha virt. eigenvalues --    3.17656   3.32958   3.52322   3.54146   3.58539
 Alpha virt. eigenvalues --    3.64677   3.78010   3.90717   3.91663   3.97253
 Alpha virt. eigenvalues --    3.98949   4.02941   4.11364   4.11550   4.23363
 Alpha virt. eigenvalues --    4.26543   4.29750   4.32321   4.32922   4.49697
 Alpha virt. eigenvalues --    4.52035   4.56954   4.69583   4.70730   4.94972
 Alpha virt. eigenvalues --    5.08439   5.36616   5.41066   5.49849   5.58477
 Alpha virt. eigenvalues --    5.62154   5.78935   5.84731   6.08317   6.12028
 Alpha virt. eigenvalues --    6.15174   6.42637   6.51541   6.78328   7.13552
          Condensed to atoms (all electrons):
               1          2          3          4
     1  C    4.364903   0.568768   0.385316   0.385316
     2  O    0.568768   7.905830  -0.072345  -0.072345
     3  H    0.385316  -0.072345   0.797101  -0.127179
     4  H    0.385316  -0.072345  -0.127179   0.797101
 Mulliken charges:
               1
     1  C    0.295696
     2  O   -0.329909
     3  H    0.017106
     4  H    0.017106
 Sum of Mulliken charges =  -0.00000
 Mulliken charges with hydrogens summed into heavy atoms:
               1
     1  C    0.329909
     2  O   -0.329909
 APT charges:
               1
     1  C    0.698826
     2  O   -0.583001
     3  H   -0.057912
     4  H   -0.057912
 Sum of APT charges =   0.00000
 APT charges with hydrogens summed into heavy atoms:
               1
     1  C    0.583001
     2  O   -0.583001
 Electronic spatial extent (au):  <R**2>=             60.6060
 Charge=             -0.0000 electrons
 Dipole moment (field-independent basis, Debye):
    X=              0.0000    Y=             -0.0000    Z=             -2.3960  Tot=              2.3960
 Quadrupole moment (field-independent basis, Debye-Ang):
   XX=            -11.7092   YY=            -11.7046   ZZ=            -12.3881
   XY=              0.0000   XZ=              0.0000   YZ=             -0.0000
 Traceless Quadrupole moment (field-independent basis, Debye-Ang):
   XX=              0.2248   YY=              0.2294   ZZ=             -0.4542
   XY=              0.0000   XZ=              0.0000   YZ=             -0.0000
 Octapole moment (field-independent basis, Debye-Ang**2):
  XXX=              0.0000  YYY=             -0.0000  ZZZ=              0.5723  XYY=              0.0000
  XXY=              0.0000  XXZ=              0.6594  XZZ=              0.0000  YZZ=              0.0000
  YYZ=             -0.3782  XYZ=             -0.0000
 Hexadecapole moment (field-independent basis, Debye-Ang**3):
 XXXX=            -10.6500 YYYY=            -19.2782 ZZZZ=            -46.7506 XXXY=             -0.0000
 XXXZ=             -0.0000 YYYX=             -0.0000 YYYZ=              0.0000 ZZZX=             -0.0000
 ZZZY=             -0.0000 XXYY=             -5.2841 XXZZ=             -9.5100 YYZZ=            -10.7576
 XXYZ=             -0.0000 YYXZ=             -0.0000 ZZXY=             -0.0000
 N-N= 3.140522694396D+01 E-N=-3.319368919975D+02  KE= 1.141889054147D+02
 Symmetry A1   KE= 1.036871072159D+02
 Symmetry A2   KE= 4.841497057125D-33
 Symmetry B1   KE= 3.703865026488D+00
 Symmetry B2   KE= 6.797933172307D+00
  Exact polarizability:  10.225   0.000  15.959   0.000  -0.000  21.598
 Approx polarizability:  13.563   0.000  19.080   0.000  -0.000  33.137
 Calling FoFJK, ICntrl=    100127 FMM=F ISym2X=1 I1Cent= 0 IOpClX= 0 NMat=1 NMatS=1 NMatT=0.
 Full mass-weighted force constant matrix:
 Low frequencies ---   -0.0016    0.0013    0.0015    2.9691    9.7985   28.0881
 Low frequencies --- 1204.5442 1267.6116 1534.4611
 Diagonal vibrational polarizability:
        0.0683606       0.6194163       1.3008681
 Harmonic frequencies (cm**-1), IR intensities (KM/Mole), Raman scattering
 activities (A**4/AMU), depolarization ratios for plane and unpolarized
 incident light, reduced masses (AMU), force constants (mDyne/A),
 and normal coordinates:
                      1                      2                      3
                     B1                     B2                     A1
 Frequencies --   1204.5442              1267.6116              1534.4611
 Red. masses --      1.3681                 1.3439                 1.1088
 Frc consts  --      1.1695                 1.2723                 1.5383
 IR Inten    --      3.6857                12.1043                10.2564
  Atom  AN      X      Y      Z        X      Y      Z        X      Y      Z
     1   6    -0.17   0.00  -0.00    -0.00  -0.15  -0.00    -0.00  -0.00   0.01
     2   8     0.04  -0.00   0.00     0.00   0.08   0.00     0.00   0.00  -0.08
     3   1     0.70  -0.00  -0.00     0.00   0.25   0.65     0.00   0.35   0.61
     4   1     0.70   0.00   0.00     0.00   0.25  -0.65     0.00  -0.35   0.61
                      4                      5                      6
                     A1                     A1                     B2
 Frequencies --   1816.3063              2885.5382              2942.5414
 Red. masses --      7.3608                 1.0424                 1.1207
 Frc consts  --     14.3071                 5.1136                 5.7172
 IR Inten    --    117.4697                69.7355               134.0696
  Atom  AN      X      Y      Z        X      Y      Z        X      Y      Z
     1   6     0.00   0.00   0.59    -0.00   0.00   0.06     0.00  -0.10   0.00
     2   8    -0.00  -0.00  -0.41     0.00  -0.00   0.00    -0.00   0.00  -0.00
     3   1    -0.00  -0.44  -0.23     0.00   0.61  -0.35    -0.00   0.60  -0.37
     4   1    -0.00   0.44  -0.23     0.00  -0.61  -0.35    -0.00   0.60   0.37

 -------------------
 - Thermochemistry -
 -------------------
 Temperature   298.150 Kelvin.  Pressure   1.00000 Atm.
 Atom     1 has atomic number  6 and mass  12.00000
 Atom     2 has atomic number  8 and mass  15.99491
 Atom     3 has atomic number  1 and mass   1.00783
 Atom     4 has atomic number  1 and mass   1.00783
 Molecular mass:    30.01056 amu.
 Principal axes and moments of inertia in atomic units:
                           1         2         3
     Eigenvalues --     6.33144  46.05566  52.38711
           X            0.00000   0.00000   1.00000
           Y            0.00000   1.00000   0.00000
           Z            1.00000   0.00000   0.00000
 This molecule is an asymmetric top.
 Rotational symmetry number  2.
 Rotational temperatures (Kelvin)     13.67996     1.88064     1.65334
 Rotational constants (GHZ):         285.04416    39.18609    34.45010
 Zero-point vibrational energy      69688.5 (Joules/Mol)
                                   16.65594 (Kcal/Mol)
 Vibrational temperatures:   1733.07  1823.81  2207.75  2613.26  4151.65
          (Kelvin)           4233.66
 
 Zero-point correction=                           0.026543 (Hartree/Particle)
 Thermal correction to Energy=                    0.029410
 Thermal correction to Enthalpy=                  0.030354
 Thermal correction to Gibbs Free Energy=         0.005546
 Sum of electronic and zero-point Energies=           -114.528071
 Sum of electronic and thermal Energies=              -114.525203
 Sum of electronic and thermal Enthalpies=            -114.524259
 Sum of electronic and thermal Free Energies=         -114.549067
 
                     E (Thermal)             CV                S
                      KCal/Mol        Cal/Mol-Kelvin    Cal/Mol-Kelvin
 Total                   18.455              6.419             52.213
 Electronic               0.000              0.000              0.000
 Translational            0.889              2.981             36.130
 Rotational               0.889              2.981             15.998
 Vibrational             16.678              0.457              0.085
                       Q            Log10(Q)             Ln(Q)
 Total Bot       0.281115D-02         -2.551116         -5.874161
 Total V=0       0.454755D+10          9.657777         22.237854
 Vib (Bot)       0.621869D-12        -12.206301        -28.106048
 Vib (V=0)       0.100599D+01          0.002592          0.005967
 Electronic      0.100000D+01          0.000000          0.000000
 Translational   0.646197D+07          6.810365         15.681445
 Rotational      0.699553D+03          2.844821          6.550442
 ***** Axes restored to original set *****
 -------------------------------------------------------------------
 Center     Atomic                   Forces (Hartrees/Bohr)
 Number     Number              X              Y              Z
 -------------------------------------------------------------------
      1        6          -0.000000000    0.000000000   -0.000010052
      2        8          -0.000000000    0.000000000   -0.000003143
      3        1           0.000000000   -0.000044806    0.000006597
      4        1           0.000000000    0.000044806    0.000006597
 -------------------------------------------------------------------
 Cartesian Forces:  Max     0.000044806 RMS     0.000018737
 FormGI is forming the generalized inverse of G from B-inverse, IUseBI=4.

 GradGradGradGradGradGradGradGradGradGradGradGradGradGradGradGradGradGrad
 Berny optimization.
 Internal  Forces:  Max     0.000041491 RMS     0.000025107
 Search for a local minimum.
 Step number   1 out of a maximum of    2
 All quantities printed in internal units (Hartrees-Bohrs-Radians)
 Second derivative matrix not updated -- analytic derivatives used.
 The second derivative matrix:
                          R1        R2        R3        A1        A2
           R1           0.87749
           R2           0.03901   0.30172
           R3           0.03901   0.00621   0.30172
           A1           0.01861   0.00243  -0.01085   0.11527
           A2           0.01861  -0.01085   0.00243  -0.07279   0.11527
           A3          -0.03723   0.00843   0.00843  -0.04248  -0.04248
           D1          -0.00000  -0.00000   0.00000  -0.00000   0.00000
                          A3        D1
           A3           0.08496
           D1           0.00000   0.06961
 ITU=  0
     Eigenvalues ---    0.06961   0.12291   0.18645   0.29713   0.30461
     Eigenvalues ---    0.88534
 Angle between quadratic step and forces=  23.57 degrees.
 Linear search not attempted -- first point.
 Iteration  1 RMS(Cart)=  0.00011698 RMS(Int)=  0.00000001
 Iteration  2 RMS(Cart)=  0.00000001 RMS(Int)=  0.00000000
 ClnCor:  largest displacement from symmetrization is 1.51D-12 for atom     1.
 Variable       Old X    -DE/DX   Delta X   Delta X   Delta X     New X
                                 (Linear)    (Quad)   (Total)
    R1        2.26596  -0.00000   0.00000  -0.00000  -0.00000   2.26595
    R2        2.09004  -0.00004   0.00000  -0.00013  -0.00013   2.08991
    R3        2.09004  -0.00004   0.00000  -0.00013  -0.00013   2.08991
    A1        2.12941   0.00001   0.00000   0.00009   0.00009   2.12951
    A2        2.12941   0.00001   0.00000   0.00009   0.00009   2.12951
    A3        2.02436  -0.00003   0.00000  -0.00018  -0.00018   2.02417
    D1        3.14159   0.00000   0.00000   0.00000   0.00000   3.14159
         Item               Value     Threshold  Converged?
 Maximum Force            0.000041     0.000450     YES
 RMS     Force            0.000025     0.000300     YES
 Maximum Displacement     0.000209     0.001800     YES
 RMS     Displacement     0.000117     0.001200     YES
 Predicted change in Energy=-8.733638D-09
 Optimization completed.
    -- Stationary point found.
                           ----------------------------
                           !   Optimized Parameters   !
                           ! (Angstroms and Degrees)  !
 --------------------------                            --------------------------
 ! Name  Definition              Value          Derivative Info.                !
 --------------------------------------------------------------------------------
 ! R1    R(1,2)                  1.1991         -DE/DX =    0.0                 !
 ! R2    R(1,3)                  1.106          -DE/DX =    0.0                 !
 ! R3    R(1,4)                  1.106          -DE/DX =    0.0                 !
 ! A1    A(2,1,3)              122.0065         -DE/DX =    0.0                 !
 ! A2    A(2,1,4)              122.0065         -DE/DX =    0.0                 !
 ! A3    A(3,1,4)              115.987          -DE/DX =    0.0                 !
 ! D1    D(2,1,4,3)            180.0            -DE/DX =    0.0                 !
 --------------------------------------------------------------------------------
 GradGradGradGradGradGradGradGradGradGradGradGradGradGradGradGradGradGrad


 ----------------------------------------------------------------------

 Electric dipole moment (input orientation):
 (Debye = 10**-18 statcoulomb cm , SI units = C m)
                  (au)            (Debye)         (10**-30 SI)
   Tot        0.942678D+00      0.239605D+01      0.799236D+01
   x          0.000000D+00      0.000000D+00      0.000000D+00
   y          0.000000D+00      0.000000D+00      0.000000D+00
   z         -0.942678D+00     -0.239605D+01     -0.799236D+01

 Dipole polarizability, Alpha (input orientation).
 (esu units = cm**3 , SI units = C**2 m**2 J**-1)
 Alpha(0;0):
               (au)            (10**-24 esu)      (10**-40 SI)
   iso        0.159273D+02      0.236018D+01      0.262606D+01
   aniso      0.984957D+01      0.145956D+01      0.162397D+01
   xx         0.102251D+02      0.151520D+01      0.168588D+01
   yx         0.000000D+00      0.000000D+00      0.000000D+00
   yy         0.159586D+02      0.236482D+01      0.263122D+01
   zx         0.000000D+00      0.000000D+00      0.000000D+00
   zy         0.000000D+00      0.000000D+00      0.000000D+00
   zz         0.215982D+02      0.320053D+01      0.356107D+01

 ----------------------------------------------------------------------

 Dipole orientation:
     6         -0.00000000         -0.00000000          0.99450806
     8         -0.00000000          0.00000000         -1.27144742
     1          0.00000000         -1.77232689          2.10225984
     1         -0.00000000          1.77232689          2.10225984

 Electric dipole moment (dipole orientation):
 (Debye = 10**-18 statcoulomb cm , SI units = C m)
                  (au)            (Debye)         (10**-30 SI)
   Tot        0.942678D+00      0.239605D+01      0.799236D+01
   x          0.000000D+00      0.000000D+00      0.000000D+00
   y          0.000000D+00      0.000000D+00      0.000000D+00
   z          0.942678D+00      0.239605D+01      0.799236D+01

 Dipole polarizability, Alpha (dipole orientation).
 (esu units = cm**3 , SI units = C**2 m**2 J**-1)
 Alpha(0;0):
               (au)            (10**-24 esu)      (10**-40 SI)
   iso        0.159273D+02      0.236018D+01      0.262606D+01
   aniso      0.984957D+01      0.145956D+01      0.162397D+01
   xx         0.102251D+02      0.151520D+01      0.168588D+01
   yx         0.000000D+00      0.000000D+00      0.000000D+00
   yy         0.159586D+02      0.236482D+01      0.263122D+01
   zx         0.000000D+00      0.000000D+00      0.000000D+00
   zy         0.000000D+00      0.000000D+00      0.000000D+00
   zz         0.215982D+02      0.320053D+01      0.356107D+01

 ----------------------------------------------------------------------
 1\1\GINC-GAMBA\Freq\RB3LYP\Gen\C1H2O1\IRIKURA\01-Oct-2023\0\\#N Geom=A
 llCheck Guess=TCheck SCRF=Check GenChk RB3LYP/ChkBas Freq\\CH2O, B3LYP
 /pcseg-2\\0,1\C,0.,0.,-0.526271\O,0.,0.,0.672821\H,0.,0.937875,-1.1124
 68\H,0.,-0.937875,-1.112468\\Version=ES64L-G16RevB.01\State=1-A1\HF=-1
 14.5546135\RMSD=6.262e-10\RMSF=1.874e-05\ZeroPoint=0.0265429\Thermal=0
 .0294103\Dipole=0.,0.,-0.9426783\DipoleDeriv=0.1686107,0.,0.,0.,0.8415
 77,0.,0.,0.,1.0862892,-0.3347826,0.,0.,0.,-0.4513437,0.,0.,0.,-0.96287
 56,0.083086,0.,0.,0.,-0.1951166,0.1396366,0.,0.0993736,-0.0617068,0.08
 3086,0.,0.,0.,-0.1951166,-0.1396366,0.,-0.0993736,-0.0617068\Polar=10.
 2250592,0.,15.958606,0.,0.,21.5982328\Quadrupole=0.1670998,0.1705504,-
 0.3376502,0.,0.,0.\PG=C02V [C2(C1O1),SGV(H2)]\NImag=0\\0.17491685,0.,0
 .57532143,0.,0.,0.98133820,-0.05742604,0.,0.,0.01885460,0.,-0.10540683
 ,0.,0.,0.07325340,0.,0.,-0.79082277,0.,0.,0.87749105,-0.05874540,0.,0.
 ,0.01928572,0.,0.,0.01974488,0.,-0.23495730,0.07483780,0.,0.01607671,0
 .01891990,0.,0.23788397,0.,0.07946286,-0.09525771,0.,0.03678079,-0.043
 33414,0.,-0.10500068,0.12914947,-0.05874540,0.,0.,0.01928572,0.,0.,0.0
 1971479,0.,0.,0.01974488,0.,-0.23495730,-0.07483780,0.,0.01607671,-0.0
 1891990,0.,-0.01900338,-0.01124297,0.,0.23788397,0.,-0.07946286,-0.095
 25771,0.,-0.03678079,-0.04333414,0.,0.01124297,0.00944238,0.,0.1050006
 8,0.12914947\\0.,0.,0.00001005,0.,0.,0.00000314,0.,0.00004481,-0.00000
 660,0.,-0.00004481,-0.00000660\\\@


 MICHAEL FARADAY, ASKED BY A POLITICIAN WHAT GOOD
 HIS ELECTRICAL DISCOVERIES WERE, REPLIED 
 "AT PRESENT I DO NOT KNOW, BUT ONE DAY YOU WILL BE
 ABLE TO TAX THEM."
 Job cpu time:       0 days  0 hours  1 minutes  2.6 seconds.
 Elapsed time:       0 days  0 hours  0 minutes 15.7 seconds.
 File lengths (MBytes):  RWF=     10 Int=      0 D2E=      0 Chk=      2 Scr=      1
 Normal termination of Gaussian 16 at Sun Oct  1 00:40:12 2023.
 AtFile(1): ccpvtz-f12.gbs
            -H     0
            S    3   1.00
                 82.6400000              0.0020060
                 12.4100000              0.0153430
                  2.8240000              0.0755790
            S    1   1.00
                  0.7977000              1.0000000
            S    1   1.00
                  0.2581000              1.0000000
            S    1   1.00
                  0.0898900              1.0000000
            P    1   1.00
                  1.5513000              1.0000000
            P    1   1.00
                  0.5580000              1.0000000
            P    1   1.00
                  0.2007000              1.0000000
            D    1   1.00
                  0.4648000              1.0000000
            ****
            -He     0
            S    4   1.00
                528.5000000              0.0009400
                 79.3100000              0.0072140
                 18.0500000              0.0359750
                  5.0850000              0.1277820
            S    1   1.00
                  1.6090000              1.0000000
            S    1   1.00
                  0.5363000              1.0000000
            S    1   1.00
                  0.1833000              1.0000000
            S    1   1.00
                  0.0481900              1.0000000
            P    1   1.00
                  3.7026000              1.0000000
            P    1   1.00
                  1.2284000              1.0000000
            P    1   1.00
                  0.4075000              1.0000000
            D    1   1.00
                  0.6525000              1.0000000
            ****
            -Li     0
            S    9   1.00
               6601.0000000              0.0001170
                989.7000000              0.0009110
                225.7000000              0.0047280
                 64.2900000              0.0191970
                 21.1800000              0.0630470
                  7.7240000              0.1632080
                  3.0030000              0.3148270
                  1.2120000              0.3939360
                  0.4930000              0.1969180
            S    9   1.00
               6601.0000000             -0.0000180
                989.7000000             -0.0001420
                225.7000000             -0.0007410
                 64.2900000             -0.0030200
                 21.1800000             -0.0101230
                  7.7240000             -0.0270940
                  3.0030000             -0.0573590
                  1.2120000             -0.0938950
                  0.4930000             -0.1210910
            S    1   1.00
                  0.0951500              1.0000000
            S    1   1.00
                  0.0479100              1.0000000
            S    1   1.00
                  0.0222000              1.0000000
            S    1   1.00
                  0.0064000              1.0000000
            P    2   1.00
                  6.2500000              0.0033880
                  1.3700000              0.0193160
            P    1   1.00
                  0.3672000              1.0000000
            P    1   1.00
                  0.1192000              1.0000000
            P    1   1.00
                  0.0447400              1.0000000
            P    1   1.00
                  0.0179500              1.0000000
            P    1   1.00
                  0.0075000              1.0000000
            D    1   1.00
                  0.2351180              1.0000000
            D    1   1.00
                  0.1194040              1.0000000
            D    1   1.00
                  0.0606390              1.0000000
            F    1   1.00
                  0.1637750              1.0000000
            F    1   1.00
                  0.0759100              1.0000000
            ****
            -Be     0
            S    9   1.00
              14630.0000000              0.0000920
               2191.0000000              0.0007130
                498.2000000              0.0037350
                140.9000000              0.0154680
                 45.8600000              0.0528740
                 16.4700000              0.1456940
                  6.3190000              0.3026810
                  2.5350000              0.4049360
                  1.0350000              0.2223870
            S    9   1.00
              14630.0000000             -0.0000170
               2191.0000000             -0.0001300
                498.2000000             -0.0006790
                140.9000000             -0.0028570
                 45.8600000             -0.0098130
                 16.4700000             -0.0286090
                  6.3190000             -0.0637600
                  2.5350000             -0.1172310
                  1.0350000             -0.1212020
            S    1   1.00
                  0.2528000              1.0000000
            S    1   1.00
                  0.1052000              1.0000000
            S    1   1.00
                  0.0426100              1.0000000
            S    1   1.00
                  0.0141000              1.0000000
            P    2   1.00
                 14.0300000              0.0040990
                  3.1680000              0.0256260
            P    1   1.00
                  0.9024000              1.0000000
            P    1   1.00
                  0.3036000              1.0000000
            P    1   1.00
                  0.1130000              1.0000000
            P    1   1.00
                  0.0428600              1.0000000
            P    1   1.00
                  0.0084000              1.0000000
            D    1   1.00
                  0.4670460              1.0000000
            D    1   1.00
                  0.2205970              1.0000000
            D    1   1.00
                  0.1041940              1.0000000
            F    1   1.00
                  0.3166400              1.0000000
            F    1   1.00
                  0.1457880              1.0000000
            ****
            -B     0
            S    9   1.00
              23870.0000000              0.0000880
               3575.0000000              0.0006870
                812.8000000              0.0036000
                229.7000000              0.0149490
                 74.6900000              0.0514350
                 26.8100000              0.1433020
                 10.3200000              0.3009350
                  4.1780000              0.4035260
                  1.7270000              0.2253400
            S    9   1.00
              23870.0000000             -0.0000180
               3575.0000000             -0.0001390
                812.8000000             -0.0007250
                229.7000000             -0.0030630
                 74.6900000             -0.0105810
                 26.8100000             -0.0313650
                 10.3200000             -0.0710120
                  4.1780000             -0.1321030
                  1.7270000             -0.1230720
            S    1   1.00
                  0.4704000              1.0000000
            S    1   1.00
                  0.1896000              1.0000000
            S    1   1.00
                  0.0739400              1.0000000
            S    1   1.00
                  0.0272100              1.0000000
            P    2   1.00
                 22.2600000              0.0050950
                  5.0580000              0.0332060
            P    1   1.00
                  1.4870000              1.0000000
            P    1   1.00
                  0.5071000              1.0000000
            P    1   1.00
                  0.1812000              1.0000000
            P    1   1.00
                  0.0646300              1.0000000
            P    1   1.00
                  0.0187800              1.0000000
            D    1   1.00
                  1.4403000              1.0000000
            D    1   1.00
                  0.5333000              1.0000000
            D    1   1.00
                  0.1975000              1.0000000
            F    1   1.00
                  0.8479000              1.0000000
            F    1   1.00
                  0.2484000              1.0000000
            ****
            -C     0
            S    9   1.00
              33980.0000000              0.0000910
               5089.0000000              0.0007040
               1157.0000000              0.0036930
                326.6000000              0.0153600
                106.1000000              0.0529290
                 38.1100000              0.1470430
                 14.7500000              0.3056310
                  6.0350000              0.3993450
                  2.5300000              0.2170510
            S    9   1.00
              33980.0000000             -0.0000190
               5089.0000000             -0.0001510
               1157.0000000             -0.0007850
                326.6000000             -0.0033240
                106.1000000             -0.0115120
                 38.1100000             -0.0341600
                 14.7500000             -0.0771730
                  6.0350000             -0.1414930
                  2.5300000             -0.1180190
            S    1   1.00
                  0.7355000              1.0000000
            S    1   1.00
                  0.2905000              1.0000000
            S    1   1.00
                  0.1111000              1.0000000
            S    1   1.00
                  0.0414500              1.0000000
            P    2   1.00
                 34.5100000              0.0053780
                  7.9150000              0.0361320
            P    1   1.00
                  2.3680000              1.0000000
            P    1   1.00
                  0.8132000              1.0000000
            P    1   1.00
                  0.2890000              1.0000000
            P    1   1.00
                  0.1007000              1.0000000
            P    1   1.00
                  0.0321800              1.0000000
            D    1   1.00
                  2.2805000              1.0000000
            D    1   1.00
                  0.7834000              1.0000000
            D    1   1.00
                  0.2691000              1.0000000
            F    1   1.00
                  1.0371000              1.0000000
            F    1   1.00
                  0.3459000              1.0000000
            ****
            -N     0
            S    9   1.00
              45840.0000000              0.0000920
               6868.0000000              0.0007170
               1563.0000000              0.0037490
                442.4000000              0.0155320
                144.3000000              0.0531460
                 52.1800000              0.1467870
                 20.3400000              0.3046630
                  8.3810000              0.3976840
                  3.5290000              0.2176410
            S    9   1.00
              45840.0000000             -0.0000200
               6868.0000000             -0.0001590
               1563.0000000             -0.0008240
                442.4000000             -0.0034780
                144.3000000             -0.0119660
                 52.1800000             -0.0353880
                 20.3400000             -0.0800770
                  8.3810000             -0.1467220
                  3.5290000             -0.1163600
            S    1   1.00
                  1.0540000              1.0000000
            S    1   1.00
                  0.4118000              1.0000000
            S    1   1.00
                  0.1552000              1.0000000
            S    1   1.00
                  0.0546400              1.0000000
            P    2   1.00
                 49.3300000              0.0055330
                 11.3700000              0.0379620
            P    1   1.00
                  3.4350000              1.0000000
            P    1   1.00
                  1.1820000              1.0000000
            P    1   1.00
                  0.4173000              1.0000000
            P    1   1.00
                  0.1428000              1.0000000
            P    1   1.00
                  0.0440200              1.0000000
            D    1   1.00
                  3.0521000              1.0000000
            D    1   1.00
                  1.0393000              1.0000000
            D    1   1.00
                  0.3539000              1.0000000
            F    1   1.00
                  1.3498000              1.0000000
            F    1   1.00
                  0.4638000              1.0000000
            ****
            -O     0
            S    9   1.00
              61420.0000000              0.0000900
               9199.0000000              0.0006980
               2091.0000000              0.0036640
                590.9000000              0.0152180
                192.3000000              0.0524230
[...]
 the Gaussian(R) 98 system (copyright 1998, Gaussian, Inc.),
 the Gaussian(R) 94 system (copyright 1995, Gaussian, Inc.),
 the Gaussian 92(TM) system (copyright 1992, Gaussian, Inc.),
 the Gaussian 90(TM) system (copyright 1990, Gaussian, Inc.),
 the Gaussian 88(TM) system (copyright 1988, Gaussian, Inc.),
 the Gaussian 86(TM) system (copyright 1986, Carnegie Mellon
 University), and the Gaussian 82(TM) system (copyright 1983,
 Carnegie Mellon University). Gaussian is a federally registered
 trademark of Gaussian, Inc.
  
 This software contains proprietary and confidential information,
 including trade secrets, belonging to Gaussian, Inc.
  
 This software is provided under written license and may be
 used, copied, transmitted, or stored only in accord with that
 written license.
  
 The following legend is applicable only to US Government
 contracts under FAR:
  
                    RESTRICTED RIGHTS LEGEND
  
 Use, reproduction and disclosure by the US Government is
 subject to restrictions as set forth in subparagraphs (a)
 and (c) of the Commercial Computer Software - Restricted
 Rights clause in FAR 52.227-19.
  
 Gaussian, Inc.
 340 Quinnipiac St., Bldg. 40, Wallingford CT 06492
  
  
 ---------------------------------------------------------------
 Warning -- This program may not be used in any manner that
 competes with the business of Gaussian, Inc. or will provide
 assistance to any competitor of Gaussian, Inc.  The licensee
 of this program is prohibited from giving any competitor of
 Gaussian, Inc. access to this program.  By using this program,
 the user acknowledges that Gaussian, Inc. is engaged in the
 business of creating and licensing software in the field of
 computational chemistry and represents and warrants to the
 licensee that it is not a competitor of Gaussian, Inc. and that
 it will not use this program in any manner prohibited above.
 ---------------------------------------------------------------
  

 Cite this work as:
 Gaussian 16, Revision B.01,
 M. J. Frisch, G. W. Trucks, H. B. Schlegel, G. E. Scuseria, 
 M. A. Robb, J. R. Cheeseman, G. Scalmani, V. Barone, 
 G. A. Petersson, H. Nakatsuji, X. Li, M. Caricato, A. V. Marenich, 
 J. Bloino, B. G. Janesko, R. Gomperts, B. Mennucci, H. P. Hratchian, 
 J. V. Ortiz, A. F. Izmaylov, J. L. Sonnenberg, D. Williams-Young, 
 F. Ding, F. Lipparini, F. Egidi, J. Goings, B. Peng, A. Petrone, 
 T. Henderson, D. Ranasinghe, V. G. Zakrzewski, J. Gao, N. Rega, 
 G. Zheng, W. Liang, M. Hada, M. Ehara, K. Toyota, R. Fukuda, 
 J. Hasegawa, M. Ishida, T. Nakajima, Y. Honda, O. Kitao, H. Nakai, 
 T. Vreven, K. Throssell, J. A. Montgomery, Jr., J. E. Peralta, 
 F. Ogliaro, M. J. Bearpark, J. J. Heyd, E. N. Brothers, K. N. Kudin, 
 V. N. Staroverov, T. A. Keith, R. Kobayashi, J. Normand, 
 K. Raghavachari, A. P. Rendell, J. C. Burant, S. S. Iyengar, 
 J. Tomasi, M. Cossi, J. M. Millam, M. Klene, C. Adamo, R. Cammi, 
 J. W. Ochterski, R. L. Martin, K. Morokuma, O. Farkas, 
 J. B. Foresman, and D. J. Fox, Gaussian, Inc., Wallingford CT, 2016.
 
 ******************************************
 Gaussian 16:  ES64L-G16RevB.01 20-Dec-2017
                 1-Oct-2023 
 ******************************************
 %chk=ch2o.chk
 %mem=500mw
 %nprocs=4
 Will use up to    4 processors via shared memory.
 ---------------------------------
 # rohf/gen geom=check guess=check
 ---------------------------------
 1/29=2,38=1,172=1/1;
 2/12=2,40=1/2;
 3/5=7,11=2,14=-4,25=1,30=1,116=101/1,2,3;
 4/5=1/1;
 5/5=2,38=6/2;
 6/7=2,8=2,9=2,10=2,28=1/1;
 99/5=1,9=1/99;
 ----------------------
 CH2O, ROHF/cc-pVTZ-F12
 ----------------------
 Structure from the checkpoint file:  "ch2o.chk"
 Charge =  0 Multiplicity = 1
 Redundant internal coordinates found in file.  (old form).
 C,0,0.,0.,-0.526271
 O,0,0.,0.,0.672821
 H,0,0.,0.937875,-1.112468
 H,0,0.,-0.937875,-1.112468
 Recover connectivity data from disk.
                           ----------------------------
                           !    Current Parameters    !
                           ! (Angstroms and Degrees)  !
 --------------------------                            --------------------------
 ! Name  Definition              Value                                          !
 --------------------------------------------------------------------------------
 ! R1    R(1,2)                  1.1991                                         !
 ! R2    R(1,3)                  1.106                                          !
 ! R3    R(1,4)                  1.106                                          !
 ! A1    A(2,1,3)              122.0065                                         !
 ! A2    A(2,1,4)              122.0065                                         !
 ! A3    A(3,1,4)              115.987                                          !
 ! D1    D(2,1,4,3)            180.0                                            !
 --------------------------------------------------------------------------------
                          Input orientation:                          
 ---------------------------------------------------------------------
 Center     Atomic      Atomic             Coordinates (Angstroms)
 Number     Number       Type             X           Y           Z
 ---------------------------------------------------------------------
      1          6           0        0.000000   -0.000000   -0.526271
      2          8           0       -0.000000    0.000000    0.672821
      3          1           0        0.000000    0.937875   -1.112468
      4          1           0       -0.000000   -0.937875   -1.112468
 ---------------------------------------------------------------------
                    Distance matrix (angstroms):
                    1          2          3          4
     1  C    0.000000
     2  O    1.199092   0.000000
     3  H    1.106000   2.016647   0.000000
     4  H    1.106000   2.016647   1.875750   0.000000
 Stoichiometry    CH2O
 Framework group  C2V[C2(CO),SGV(H2)]
 Deg. of freedom     3
 Full point group                 C2V     NOp   4
 Largest Abelian subgroup         C2V     NOp   4
 Largest concise Abelian subgroup C2      NOp   2
                         Standard orientation:                         
 ---------------------------------------------------------------------
 Center     Atomic      Atomic             Coordinates (Angstroms)
 Number     Number       Type             X           Y           Z
 ---------------------------------------------------------------------
      1          6           0       -0.000000   -0.000000   -0.526271
      2          8           0        0.000000    0.000000    0.672821
      3          1           0       -0.000000    0.937875   -1.112468
      4          1           0       -0.000000   -0.937875   -1.112468
 ---------------------------------------------------------------------
 Rotational constants (GHZ):         285.0441563          39.1860864          34.4501020
 General basis read from cards:  (5D, 7F)
 There are    68 symmetry adapted cartesian basis functions of A1  symmetry.
 There are    15 symmetry adapted cartesian basis functions of A2  symmetry.
 There are    35 symmetry adapted cartesian basis functions of B1  symmetry.
 There are    44 symmetry adapted cartesian basis functions of B2  symmetry.
 There are    57 symmetry adapted basis functions of A1  symmetry.
 There are    15 symmetry adapted basis functions of A2  symmetry.
 There are    31 symmetry adapted basis functions of B1  symmetry.
 There are    39 symmetry adapted basis functions of B2  symmetry.
   142 basis functions,   198 primitive gaussians,   162 cartesian basis functions
     8 alpha electrons        8 beta electrons
       nuclear repulsion energy        31.4052269440 Hartrees.
 NAtoms=    4 NActive=    4 NUniq=    3 SFac= 1.78D+00 NAtFMM=   60 NAOKFM=F Big=F
 Integral buffers will be    131072 words long.
 Raffenetti 2 integral format.
 Two-electron integral symmetry is turned on.
 One-electron integrals computed using PRISM.
 NBasis=   142 RedAO= T EigKep=  2.00D-04  NBF=    57    15    31    39
 NBsUse=   142 1.00D-06 EigRej= -1.00D+00 NBFU=    57    15    31    39
 Initial guess from the checkpoint file:  "ch2o.chk"
 B after Tr=     0.000000   -0.000000    0.000000
         Rot=    1.000000   -0.000000    0.000000   -0.000000 Ang=   0.00 deg.
 Initial guess orbital symmetries:
       Occupied  (A1) (A1) (A1) (A1) (B2) (A1) (B1) (B2)
       Virtual   (B1) (A1) (B2) (A1) (B1) (A1) (B2) (A1) (A1) (B2)
                 (B1) (A1) (B2) (A2) (A1) (B1) (B2) (A1) (A1) (B2)
                 (A1) (B1) (A2) (B2) (B1) (A1) (A1) (B2) (A1) (A2)
                 (B1) (B2) (A1) (A1) (B1) (A1) (B2) (B2) (A1) (A2)
                 (B1) (B2) (B2) (A1) (B1) (A1) (A2) (B2) (A1) (B1)
                 (A2) (B1) (B2) (A1) (A2) (B2) (B1) (A1) (A1) (B1)
                 (B2) (A1) (A2) (A1) (B2) (B1) (A1) (B2) (A1) (A2)
                 (B1) (B2) (A1) (A2) (A1) (A1) (B1) (B2) (B2) (A1)
                 (A1) (A1) (A1) (A1) (A1) (A1) (A1) (A1) (A1) (A1)
                 (A1) (A1) (A1) (A1) (A1) (A1) (A1) (A1) (A1) (A1)
                 (A1) (A2) (A2) (A2) (A2) (A2) (B1) (B1) (B1) (B1)
                 (B1) (B1) (B1) (B1) (B1) (B1) (B1) (B1) (B1) (B2)
                 (B2) (B2) (B2) (B2) (B2) (B2) (B2) (B2) (B2) (B2)
                 (B2) (B2) (B2) (B2)
 Keep R1 and R2 ints in memory in symmetry-blocked form, NReq=64735357.
 Requested convergence on RMS density matrix=1.00D-08 within 128 cycles.
 Requested convergence on MAX density matrix=1.00D-06.
 Requested convergence on             energy=1.00D-06.
 No special actions if energy rises.
 SCF Done:  E(ROHF) =  -113.921179919     A.U. after   11 cycles
            NFock= 11  Conv=0.28D-08     -V/T= 2.0013
 <Sx>= 0.0000 <Sy>= 0.0000 <Sz>= 0.0000 <S**2>=-0.0000 S=-0.0000
 <L.S>=  0.00000000000    
 Annihilation of the first spin contaminant:
 S**2 before annihilation    -0.0000,   after     0.0000

 **********************************************************************

            Population analysis using the SCF Density.

 **********************************************************************

 Orbital symmetries:
       Occupied  (A1) (A1) (A1) (A1) (B2) (A1) (B1) (B2)
       Virtual   (A1) (B1) (B2) (A1) (B1) (A1) (B2) (A1) (B1) (B2)
                 (A1) (A1) (A2) (B2) (B1) (A1) (A1) (B2) (B1) (B2)
                 (A1) (A1) (B2) (B1) (A1) (A1) (A2) (B2) (B1) (A1)
                 (B2) (A1) (A2) (A1) (A1) (B2) (B1) (B1) (B2) (A2)
                 (A1) (B1) (A1) (A1) (B2) (B2) (B1) (A2) (A1) (A1)
                 (B1) (B2) (A1) (B2) (A2) (A2) (B2) (B1) (A1) (A1)
                 (B1) (B2) (A1) (B1) (B2) (B2) (A1) (B1) (A1) (A2)
                 (B1) (B2) (A2) (B2) (A1) (A1) (A1) (A1) (B2) (B1)
                 (A2) (A1) (A1) (B1) (B2) (A1) (B2) (B1) (B2) (A2)
                 (A1) (B1) (A1) (B2) (A1) (B1) (A2) (B1) (B2) (A1)
                 (B2) (A1) (B2) (B1) (B2) (A1) (A2) (A1) (B1) (B2)
                 (A2) (A1) (B1) (A1) (A1) (B2) (B2) (A1) (B1) (B2)
                 (A1) (A2) (A1) (B1) (B2) (A1) (B1) (B2) (A1) (A1)
                 (B1) (B2) (A1) (A1)
 The electronic state is 1-A1.
 Alpha  occ. eigenvalues --  -20.57612 -11.34099  -1.41072  -0.86895  -0.69524
 Alpha  occ. eigenvalues --   -0.65473  -0.54057  -0.44261
 Alpha virt. eigenvalues --    0.05220   0.05793   0.06495   0.07619   0.12925
 Alpha virt. eigenvalues --    0.16852   0.18892   0.19598   0.19927   0.23482
 Alpha virt. eigenvalues --    0.28512   0.30637   0.41139   0.42931   0.43206
 Alpha virt. eigenvalues --    0.43515   0.48819   0.52618   0.59442   0.61777
 Alpha virt. eigenvalues --    0.62038   0.66811   0.70782   0.73603   0.76612
 Alpha virt. eigenvalues --    0.84564   0.87188   0.90957   0.95646   1.00413
 Alpha virt. eigenvalues --    1.08450   1.16350   1.23053   1.24380   1.28340
 Alpha virt. eigenvalues --    1.40618   1.47188   1.51091   1.53463   1.55040
 Alpha virt. eigenvalues --    1.55320   1.56915   1.60706   1.71510   1.73353
 Alpha virt. eigenvalues --    1.77522   1.81210   1.83541   1.85734   1.86892
 Alpha virt. eigenvalues --    1.86896   1.87634   2.00270   2.01320   2.11744
 Alpha virt. eigenvalues --    2.18930   2.20192   2.20468   2.29453   2.30631
 Alpha virt. eigenvalues --    2.33278   2.36229   2.45812   2.45920   2.49798
 Alpha virt. eigenvalues --    2.77377   2.82895   2.85176   2.85734   2.89396
 Alpha virt. eigenvalues --    2.99559   3.00551   3.16885   3.21137   3.25914
 Alpha virt. eigenvalues --    3.36913   3.51163   3.61983   3.71809   3.82773
 Alpha virt. eigenvalues --    3.91069   3.91886   4.02387   4.07127   4.13841
 Alpha virt. eigenvalues --    4.18111   4.19754   4.70479   4.74680   4.75847
 Alpha virt. eigenvalues --    4.91848   4.98130   5.39976   5.46101   5.47202
 Alpha virt. eigenvalues --    5.55840   5.69765   5.78372   5.83486   6.00800
 Alpha virt. eigenvalues --    6.25049   6.59703   6.91153   6.93724   6.97891
 Alpha virt. eigenvalues --    6.97931   7.19028   7.32394   7.41089   7.59088
 Alpha virt. eigenvalues --    8.01234   8.23241   8.29064   8.33391   8.73993
 Alpha virt. eigenvalues --    8.74612   9.28723   9.35692  10.00769  10.42999
 Alpha virt. eigenvalues --   10.90943  11.22107  11.23223  11.60982  11.74695
 Alpha virt. eigenvalues --   12.41391  20.57844  21.47831  21.80399  24.27881
 Alpha virt. eigenvalues --   37.61781  37.96039  38.27976  42.93369
          Condensed to atoms (all electrons):
               1          2          3          4
     1  C    4.427361   0.486344   0.421868   0.421868
     2  O    0.486344   8.078845  -0.065064  -0.065064
     3  H    0.421868  -0.065064   0.637640  -0.090694
     4  H    0.421868  -0.065064  -0.090694   0.637640
          Atomic-Atomic Spin Densities.
               1          2          3          4
     1  C    0.000000   0.000000   0.000000   0.000000
     2  O    0.000000   0.000000   0.000000   0.000000
     3  H    0.000000   0.000000   0.000000   0.000000
     4  H    0.000000   0.000000   0.000000   0.000000
 Mulliken charges and spin densities:
               1          2
     1  C    0.242560   0.000000
     2  O   -0.435061   0.000000
     3  H    0.096251   0.000000
     4  H    0.096251   0.000000
 Sum of Mulliken charges =  -0.00000   0.00000
 Mulliken charges and spin densities with hydrogens summed into heavy atoms:
               1          2
     1  C    0.435061   0.000000
     2  O   -0.435061   0.000000
 Electronic spatial extent (au):  <R**2>=             60.2155
 Charge=             -0.0000 electrons
 Dipole moment (field-independent basis, Debye):
    X=             -0.0000    Y=             -0.0000    Z=             -2.8188  Tot=              2.8188
 Quadrupole moment (field-independent basis, Debye-Ang):
   XX=            -11.7341   YY=            -11.4245   ZZ=            -12.1179
   XY=              0.0000   XZ=              0.0000   YZ=             -0.0000
 Traceless Quadrupole moment (field-independent basis, Debye-Ang):
   XX=              0.0247   YY=              0.3344   ZZ=             -0.3591
   XY=              0.0000   XZ=              0.0000   YZ=             -0.0000
 Octapole moment (field-independent basis, Debye-Ang**2):
  XXX=              0.0000  YYY=             -0.0000  ZZZ=              0.0043  XYY=             -0.0000
  XXY=             -0.0000  XXZ=              0.4109  XZZ=              0.0000  YZZ=             -0.0000
  YYZ=             -0.8192  XYZ=             -0.0000
 Hexadecapole moment (field-independent basis, Debye-Ang**3):
 XXXX=            -10.4808 YYYY=            -17.4552 ZZZZ=            -45.0585 XXXY=             -0.0000
 XXXZ=             -0.0000 YYYX=             -0.0000 YYYZ=             -0.0000 ZZZX=             -0.0000
 ZZZY=              0.0000 XXYY=             -5.0520 XXZZ=             -9.2376 YYZZ=             -9.9343
 XXYZ=             -0.0000 YYXZ=              0.0000 ZZXY=              0.0000
 N-N= 3.140522694396D+01 E-N=-3.313684998563D+02  KE= 1.137755319920D+02
 Symmetry A1   KE= 1.035879868823D+02
 Symmetry A2   KE= 5.189997951848D-31
 Symmetry B1   KE= 3.499186171857D+00
 Symmetry B2   KE= 6.688358937831D+00
 Symmetry A1   SP= 0.000000000000D+00
 Symmetry A2   SP= 0.000000000000D+00
 Symmetry B1   SP= 0.000000000000D+00
 Symmetry B2   SP= 0.000000000000D+00
                          Isotropic Fermi Contact Couplings
        Atom                 a.u.       MegaHertz       Gauss      10(-4) cm-1
     1  C(13)              0.00000       0.00000       0.00000       0.00000
     2  O(17)              0.00000      -0.00000      -0.00000      -0.00000
     3  H(1)               0.00000       0.00000       0.00000       0.00000
     4  H(1)               0.00000       0.00000       0.00000       0.00000
 --------------------------------------------------------
       Center         ----  Spin Dipole Couplings  ----
                      3XX-RR        3YY-RR        3ZZ-RR
 --------------------------------------------------------
     1   Atom        0.000000      0.000000      0.000000
     2   Atom        0.000000      0.000000      0.000000
     3   Atom        0.000000      0.000000      0.000000
     4   Atom        0.000000      0.000000      0.000000
 --------------------------------------------------------
                        XY            XZ            YZ
 --------------------------------------------------------
     1   Atom        0.000000      0.000000      0.000000
     2   Atom        0.000000      0.000000      0.000000
     3   Atom        0.000000      0.000000      0.000000
     4   Atom        0.000000      0.000000      0.000000
 --------------------------------------------------------


 ---------------------------------------------------------------------------------
              Anisotropic Spin Dipole Couplings in Principal Axis System
 ---------------------------------------------------------------------------------

       Atom             a.u.   MegaHertz   Gauss  10(-4) cm-1        Axes

              Baa     0.0000     0.000     0.000     0.000  1.0000  0.0000  0.0000
     1 C(13)  Bbb     0.0000     0.000     0.000     0.000 -0.0000  1.0000  0.0000
              Bcc     0.0000     0.000     0.000     0.000  0.0000  0.0000  1.0000
 
              Baa     0.0000    -0.000    -0.000    -0.000  1.0000  0.0000  0.0000
     2 O(17)  Bbb     0.0000    -0.000    -0.000    -0.000 -0.0000  1.0000  0.0000
              Bcc     0.0000    -0.000    -0.000    -0.000  0.0000  0.0000  1.0000
 
              Baa     0.0000     0.000     0.000     0.000  1.0000  0.0000  0.0000
     3 H(1)   Bbb     0.0000     0.000     0.000     0.000 -0.0000  1.0000  0.0000
              Bcc     0.0000     0.000     0.000     0.000  0.0000  0.0000  1.0000
 
              Baa     0.0000     0.000     0.000     0.000  1.0000  0.0000  0.0000
     4 H(1)   Bbb     0.0000     0.000     0.000     0.000 -0.0000  1.0000  0.0000
              Bcc     0.0000     0.000     0.000     0.000  0.0000  0.0000  1.0000
 

 ---------------------------------------------------------------------------------

 1\1\GINC-GAMBA\SP\ROHF\Gen\C1H2O1\IRIKURA\01-Oct-2023\0\\# rohf/gen ge
 om=check guess=check\\CH2O, ROHF/cc-pVTZ-F12\\0,1\C,0,0.,0.,-0.526271\
 O,0,0.,0.,0.672821\H,0,0.,0.937875,-1.112468\H,0,0.,-0.937875,-1.11246
 8\\Version=ES64L-G16RevB.01\State=1-A1\HF=-113.9211799\RMSD=2.819e-09\
 Dipole=0.,0.,-1.1090085\Quadrupole=0.0183764,0.2485842,-0.2669606,0.,0
 .,0.\PG=C02V [C2(C1O1),SGV(H2)]\\@


 SEE YOU NOW,
 YOUR BAIT OF FALSEHOOD TAKES THIS CARP OF TRUTH.
 AND THUS DO WE OF WISDOM AND OF REACH...
 BY INDIRECTIONS FIND DIRECTIONS OUT.    -- HAMLET, II, 1
 Job cpu time:       0 days  0 hours  0 minutes 14.4 seconds.
 Elapsed time:       0 days  0 hours  0 minutes  3.7 seconds.
 File lengths (MBytes):  RWF=     14 Int=      0 D2E=      0 Chk=      3 Scr=      1
 Normal termination of Gaussian 16 at Sun Oct  1 00:40:16 2023.
