 Entering Gaussian System, Link 0=g16
 AtFile(1): pcseg2.gbs
            -H     0
            S   4   1.00
                  0.754732D+02           0.427821D-02
                  0.113575D+02           0.328672D-01
                  0.260081D+01           0.159578D+00
                  0.735503D+00           0.500000D+00
            S   1   1.00
                  0.231761D+00           1.0000000
            S   1   1.00
                  0.741675D-01           1.0000000
            P   1   1.00
                  0.160000D+01           1.0000000
            P   1   1.00
                  0.450000D+00           1.0000000
            D   1   1.00
                  0.125000D+01           1.0000000
            ****
            -C     0
            S   7   1.00
                  0.731999D+04           0.695369D-03
                  0.109818D+04           0.537138D-02
                  0.250014D+03           0.274734D-01
                  0.707586D+02           0.105078D+00
                  0.228595D+02           0.291262D+00
                  0.803936D+01           0.500000D+00
                  0.289309D+01           0.362224D+00
            S   2   1.00
                  0.521640D+01          -0.957844D-01
                  0.556124D+00           0.500000D+00
            S   1   1.00
                  0.228813D+00           1.0000000
            S   1   1.00
                  0.936338D-01           1.0000000
            P   4   1.00
                  0.339855D+02           0.818395D-02
                  0.772957D+01           0.586921D-01
                  0.224954D+01           0.222514D+00
                  0.767681D+00           0.500000D+00
            P   1   1.00
                  0.263283D+00           1.0000000
            P   1   1.00
                  0.848744D-01           1.0000000
            D   1   1.00
                  0.140000D+01           1.0000000
            D   1   1.00
                  0.450000D+00           1.0000000
            F   1   1.00
                  0.950000D+00           1.0000000
            ****
            -O     0
            S   7   1.00
                  0.135887D+05           0.665492D-03
                  0.203847D+04           0.514222D-02
                  0.464041D+03           0.263472D-01
                  0.131339D+03           0.101500D+00
                  0.425340D+02           0.285877D+00
                  0.150429D+02           0.500000D+00
                  0.546616D+01           0.368211D+00
            S   2   1.00
                  0.100915D+02          -0.100084D+00
                  0.110429D+01           0.500000D+00
            S   1   1.00
                  0.448082D+00           1.0000000
            S   1   1.00
                  0.175325D+00           1.0000000
            P   4   1.00
                  0.608220D+02           0.908253D-02
                  0.140332D+02           0.645878D-01
                  0.418244D+01           0.241502D+00
                  0.142490D+01           0.500000D+00
            P   1   1.00
                  0.478741D+00           1.0000000
            P   1   1.00
                  0.146257D+00           1.0000000
            D   1   1.00
                  0.220000D+01           1.0000000
            D   1   1.00
                  0.650000D+00           1.0000000
            F   1   1.00
                  0.110000D+01           1.0000000
            ****
            -N     0
            S   7   1.00
                  0.101643D+05           0.682757D-03
                  0.152481D+04           0.527488D-02
                  0.347119D+03           0.270037D-01
                  0.982389D+02           0.103673D+00
                  0.317799D+02           0.289575D+00
                  0.112240D+02           0.500000D+00
                  0.406611D+01           0.364621D+00
            S   2   1.00
                  0.747898D+01          -0.975681D-01
                  0.805040D+00           0.500000D+00
            S   1   1.00
                  0.324626D+00           1.0000000
            S   1   1.00
                  0.128132D+00           1.0000000
            P   4   1.00
                  0.482704D+02           0.829547D-02
                  0.110815D+02           0.596223D-01
                  0.326643D+01           0.227889D+00
                  0.111680D+01           0.500000D+00
            P   1   1.00
                  0.382049D+00           1.0000000
            P   1   1.00
                  0.121222D+00           1.0000000
            D   1   1.00
                  0.180000D+01           1.0000000
            D   1   1.00
                  0.550000D+00           1.0000000
            F   1   1.00
                  0.102000D+01           1.0000000
            ****
            -F     0
            S   7   1.00
                  0.174507D+05           0.655972D-03
                  0.261768D+04           0.506944D-02
                  0.595857D+03           0.259899D-01
                  0.168651D+03           0.100353D+00
                  0.546654D+02           0.284095D+00
                  0.193717D+02           0.500000D+00
                  0.706202D+01           0.370721D+00
            S   2   1.00
                  0.131197D+02          -0.101997D+00
                  0.145046D+01           0.500000D+00
            S   1   1.00
                  0.588255D+00           1.0000000
            S   1   1.00
                  0.227960D+00           1.0000000
            P   4   1.00
                  0.779407D+02           0.931135D-02
                  0.180425D+02           0.663964D-01
                  0.542342D+01           0.246386D+00
                  0.184876D+01           0.500000D+00
            P   1   1.00
                  0.617455D+00           1.0000000
            P   1   1.00
                  0.185496D+00           1.0000000
            D   1   1.00
                  0.280000D+01           1.0000000
            D   1   1.00
                  0.800000D+00           1.0000000
            F   1   1.00
                  0.120000D+01           1.0000000
            ****
            -Cl     0
            S   8   1.00
                  0.154272D+06           0.222473D-03
                  0.231232D+05           0.172590D-02
                  0.526257D+04           0.899286D-02
                  0.148995D+04           0.367724D-01
                  0.485417D+03           0.121446D+00
                  0.174634D+03           0.304148D+00
                  0.672393D+02           0.500000D+00
                  0.265780D+02           0.360252D+00
            S   3   1.00
                  0.131826D+03          -0.531330D-01
                  0.400703D+02          -0.233346D+00
                  0.789448D+01           0.500000D+00
            S   2   1.00
                  0.427711D+01           0.500000D+00
                  0.196233D+01           0.370517D+00
            S   1   1.00
                  0.520793D+00           1.0000000
            S   1   1.00
                  0.181633D+00           1.0000000
            P   7   1.00
                  0.124440D+04           0.988206D-03
                  0.295109D+03           0.829674D-02
                  0.947224D+02           0.430906D-01
                  0.352588D+02           0.148443D+00
                  0.144211D+02           0.344744D+00
                  0.610371D+01           0.500000D+00
                  0.258886D+01           0.348278D+00
            P   2   1.00
                  0.109447D+02          -0.196768D-01
                  0.104413D+01           0.500000D+00
            P   1   1.00
                  0.376184D+00           1.0000000
            P   1   1.00
                  0.120613D+00           1.0000000
            D   1   1.00
                  0.231000D+01           1.0000000
            D   1   1.00
                  0.520000D+00           1.0000000
            F   1   1.00
                  0.720000D+00           1.0000000
            ****
            -S     0
            S   8   1.00
                  0.134700D+06           0.226231D-03
                  0.201904D+05           0.175488D-02
                  0.459528D+04           0.914190D-02
                  0.130109D+04           0.373551D-01
                  0.423902D+03           0.123121D+00
                  0.152485D+03           0.306801D+00
                  0.586925D+02           0.500000D+00
                  0.231461D+02           0.354358D+00
            S   3   1.00
                  0.116327D+03          -0.491772D-01
                  0.352841D+02          -0.215962D+00
                  0.677831D+01           0.500000D+00
            S   2   1.00
                  0.360404D+01           0.500000D+00
                  0.164871D+01           0.366278D+00
            S   1   1.00
                  0.421821D+00           1.0000000
            S   1   1.00
                  0.147554D+00           1.0000000
            P   7   1.00
                  0.104863D+04           0.105273D-02
                  0.248717D+03           0.879338D-02
                  0.797887D+02           0.453358D-01
                  0.296023D+02           0.154476D+00
                  0.120627D+02           0.352366D+00
                  0.507628D+01           0.500000D+00
                  0.213375D+01           0.346429D+00
            P   2   1.00
                  0.928958D+01          -0.185932D-01
                  0.837819D+00           0.500000D+00
            P   1   1.00
                  0.301495D+00           1.0000000
            P   1   1.00
                  0.974740D-01           1.0000000
            D   1   1.00
                  0.210000D+01           1.0000000
            D   1   1.00
                  0.480000D+00           1.0000000
            F   1   1.00
                  0.660000D+00           1.0000000
            ****
            -Si     0
            S    8   1.00
                  0.996133D+05           0.235546D-03
                  0.149311D+05           0.182707D-02
                  0.339820D+04           0.951425D-02
                  0.962140D+03           0.388172D-01
                  0.313430D+03           0.127328D+00
                  0.112683D+03           0.313522D+00
                  0.433372D+02           0.500000D+00
                  0.170029D+02           0.340347D+00
            S    3   1.00
                  0.884208D+02          -0.404451D-01
                  0.266756D+02          -0.178059D+00
                  0.479640D+01           0.500000D+00
            S    2   1.00
                  0.239385D+01           0.500000D+00
                  0.108333D+01           0.338016D+00
            S    1   1.00
                  0.252420D+00           1.0000000
            S    1   1.00
                  0.891210D-01           1.0000000
            P    7   1.00
                  0.709901D+03           0.123028D-02
                  0.168426D+03           0.101366D-01
                  0.539946D+02           0.511840D-01
                  0.198646D+02           0.169967D+00
                  0.801369D+01           0.370717D+00
                  0.331870D+01           0.500000D+00
                  0.136112D+01           0.344128D+00
            P    2   1.00
                  0.622158D+01          -0.166609D-01
                  0.503049D+00           0.500000D+00
            P    1   1.00
                  0.179848D+00           1.0000000
            P    1   1.00
                  0.591912D-01           1.0000000
            D    1   1.00
                  0.168000D+01           1.0000000
            D    1   1.00
                  0.380000D+00           1.0000000
            F    1   1.00
                  0.540000D+00           1.0000000
            ****
            -P     0
            S    8   1.00
                  0.116416D+06           0.230715D-03
                  0.174500D+05           0.178960D-02
                  0.397149D+04           0.932116D-02
                  0.112447D+04           0.380591D-01
                  0.366347D+03           0.125148D+00
                  0.131757D+03           0.310022D+00
                  0.506988D+02           0.500000D+00
                  0.199436D+02           0.347528D+00
            S    3   1.00
                  0.101878D+03          -0.446755D-01
                  0.308249D+02          -0.196376D+00
                  0.573688D+01           0.500000D+00
            S    2   1.00
                  0.296868D+01           0.500000D+00
                  0.135315D+01           0.355098D+00
            S    1   1.00
                  0.332196D+00           1.0000000
            S    1   1.00
                  0.116229D+00           1.0000000
            P    7   1.00
                  0.873928D+03           0.112375D-02
                  0.207298D+03           0.933330D-02
                  0.664628D+02           0.477213D-01
                  0.245665D+02           0.160733D+00
                  0.996820D+01           0.359760D+00
                  0.416536D+01           0.500000D+00
                  0.173022D+01           0.346593D+00
            P    2   1.00
                  0.772530D+01          -0.175718D-01
                  0.657252D+00           0.500000D+00
            P    1   1.00
                  0.239903D+00           1.0000000
            P    1   1.00
                  0.800988D-01           1.0000000
            D    1   1.00
                  0.189000D+01           1.0000000
            D    1   1.00
                  0.430000D+00           1.0000000
            F    1   1.00
                  0.600000D+00           1.0000000
            ****
            
 Initial command:
 /usr/local/apps/g16_b01_avx/g16/l1.exe "/wrk/irikura/Gau-15296.inp" -scrdir="/wrk/irikura/"
 Entering Link 1 = /usr/local/apps/g16_b01_avx/g16/l1.exe PID=     15298.
  
 Copyright (c) 1988-2017, Gaussian, Inc.  All Rights Reserved.
  
 This is part of the Gaussian(R) 16 program.  It is based on
 the Gaussian(R) 09 system (copyright 2009, Gaussian, Inc.),
 the Gaussian(R) 03 system (copyright 2003, Gaussian, Inc.),
 the Gaussian(R) 98 system (copyright 1998, Gaussian, Inc.),
 the Gaussian(R) 94 system (copyright 1995, Gaussian, Inc.),
 the Gaussian 92(TM) system (copyright 1992, Gaussian, Inc.),
 the Gaussian 90(TM) system (copyright 1990, Gaussian, Inc.),
 the Gaussian 88(TM) system (copyright 1988, Gaussian, Inc.),
 the Gaussian 86(TM) system (copyright 1986, Carnegie Mellon
 University), and the Gaussian 82(TM) system (copyright 1983,
 Carnegie Mellon University). Gaussian is a federally registered
 trademark of Gaussian, Inc.
  
 This software contains proprietary and confidential information,
 including trade secrets, belonging to Gaussian, Inc.
  
 This software is provided under written license and may be
 used, copied, transmitted, or stored only in accord with that
 written license.
  
 The following legend is applicable only to US Government
 contracts under FAR:
  
                    RESTRICTED RIGHTS LEGEND
  
 Use, reproduction and disclosure by the US Government is
 subject to restrictions as set forth in subparagraphs (a)
 and (c) of the Commercial Computer Software - Restricted
 Rights clause in FAR 52.227-19.
  
 Gaussian, Inc.
 340 Quinnipiac St., Bldg. 40, Wallingford CT 06492
  
  
 ---------------------------------------------------------------
 Warning -- This program may not be used in any manner that
 competes with the business of Gaussian, Inc. or will provide
 assistance to any competitor of Gaussian, Inc.  The licensee
 of this program is prohibited from giving any competitor of
 Gaussian, Inc. access to this program.  By using this program,
 the user acknowledges that Gaussian, Inc. is engaged in the
 business of creating and licensing software in the field of
 computational chemistry and represents and warrants to the
 licensee that it is not a competitor of Gaussian, Inc. and that
 it will not use this program in any manner prohibited above.
 ---------------------------------------------------------------
  

 Cite this work as:
 Gaussian 16, Revision B.01,
 M. J. Frisch, G. W. Trucks, H. B. Schlegel, G. E. Scuseria, 
 M. A. Robb, J. R. Cheeseman, G. Scalmani, V. Barone, 
 G. A. Petersson, H. Nakatsuji, X. Li, M. Caricato, A. V. Marenich, 
 J. Bloino, B. G. Janesko, R. Gomperts, B. Mennucci, H. P. Hratchian, 
 J. V. Ortiz, A. F. Izmaylov, J. L. Sonnenberg, D. Williams-Young, 
 F. Ding, F. Lipparini, F. Egidi, J. Goings, B. Peng, A. Petrone, 
 T. Henderson, D. Ranasinghe, V. G. Zakrzewski, J. Gao, N. Rega, 
 G. Zheng, W. Liang, M. Hada, M. Ehara, K. Toyota, R. Fukuda, 
 J. Hasegawa, M. Ishida, T. Nakajima, Y. Honda, O. Kitao, H. Nakai, 
 T. Vreven, K. Throssell, J. A. Montgomery, Jr., J. E. Peralta, 
 F. Ogliaro, M. J. Bearpark, J. J. Heyd, E. N. Brothers, K. N. Kudin, 
 V. N. Staroverov, T. A. Keith, R. Kobayashi, J. Normand, 
 K. Raghavachari, A. P. Rendell, J. C. Burant, S. S. Iyengar, 
 J. Tomasi, M. Cossi, J. M. Millam, M. Klene, C. Adamo, R. Cammi, 
 J. W. Ochterski, R. L. Martin, K. Morokuma, O. Farkas, 
 J. B. Foresman, and D. J. Fox, Gaussian, Inc., Wallingford CT, 2016.
 
 ******************************************
 Gaussian 16:  ES64L-G16RevB.01 20-Dec-2017
                 2-Feb-2022 
 ******************************************
 %mem=500mw
 --------------------
 # b3lyp/gen opt freq
 --------------------
 1/18=20,19=15,26=3,38=1/1,3;
 2/9=110,12=2,17=6,18=5,40=1/2;
 3/5=7,11=2,25=1,30=1,71=1,74=-5/1,2,3;
 4//1;
 5/5=2,38=5/2;
 6/7=2,8=2,9=2,10=2,28=1/1;
 7//1,2,3,16;
 1/18=20,19=15,26=3/3(2);
 2/9=110/2;
 99//99;
 2/9=110/2;
 3/5=7,6=1,11=2,25=1,30=1,71=1,74=-5,82=7/1,2,3;
 4/5=5,16=3,69=1/1;
 5/5=2,38=5/2;
 7//1,2,3,16;
 1/18=20,19=15,26=3/3(-5);
 2/9=110/2;
 6/7=2,8=2,9=2,10=2,19=2,28=1/1;
 99/9=1/99;
 -------------------
 CH2O, B3LYP/pcseg-2
 -------------------
 Symbolic Z-matrix:
 Charge =  0 Multiplicity = 1
 C
 O                    1     1.3 
 H                    1     1.       2    a
 H                    1     1.       2    a        3     180.     0
       Variables:
  a                   120.                       
 

 GradGradGradGradGradGradGradGradGradGradGradGradGradGradGradGradGradGrad
 Berny optimization.
 Initialization pass.
                           ----------------------------
                           !    Initial Parameters    !
                           ! (Angstroms and Degrees)  !
 --------------------------                            --------------------------
 ! Name  Definition              Value          Derivative Info.                !
 --------------------------------------------------------------------------------
 ! R1    R(1,2)                  1.3            estimate D2E/DX2                !
 ! R2    R(1,3)                  1.0            estimate D2E/DX2                !
 ! R3    R(1,4)                  1.0            estimate D2E/DX2                !
 ! A1    A(2,1,3)              120.0            estimate D2E/DX2                !
 ! A2    A(2,1,4)              120.0            estimate D2E/DX2                !
 ! A3    A(3,1,4)              120.0            estimate D2E/DX2                !
 ! D1    D(2,1,4,3)            180.0            estimate D2E/DX2                !
 --------------------------------------------------------------------------------
 Trust Radius=3.00D-01 FncErr=1.00D-07 GrdErr=1.00D-06 EigMax=2.50D+02 EigMin=1.00D-04
 Number of steps in this run=     20 maximum allowed number of steps=    100.
 GradGradGradGradGradGradGradGradGradGradGradGradGradGradGradGradGradGrad

                          Input orientation:                          
 ---------------------------------------------------------------------
 Center     Atomic      Atomic             Coordinates (Angstroms)
 Number     Number       Type             X           Y           Z
 ---------------------------------------------------------------------
      1          6           0        0.000000    0.000000    0.000000
      2          8           0        0.000000    0.000000    1.300000
      3          1           0        0.866025    0.000000   -0.500000
      4          1           0       -0.866025    0.000000   -0.500000
 ---------------------------------------------------------------------
                    Distance matrix (angstroms):
                    1          2          3          4
     1  C    0.000000
     2  O    1.300000   0.000000
     3  H    1.000000   1.997498   0.000000
     4  H    1.000000   1.997498   1.732051   0.000000
 Stoichiometry    CH2O
 Framework group  C2V[C2(CO),SGV(H2)]
 Deg. of freedom     3
 Full point group                 C2V     NOp   4
 Largest Abelian subgroup         C2V     NOp   4
 Largest concise Abelian subgroup C2      NOp   2
                         Standard orientation:                         
 ---------------------------------------------------------------------
 Center     Atomic      Atomic             Coordinates (Angstroms)
 Number     Number       Type             X           Y           Z
 ---------------------------------------------------------------------
      1          6           0        0.000000    0.000000   -0.587500
      2          8           0        0.000000    0.000000    0.712500
      3          1           0        0.000000    0.866025   -1.087500
      4          1           0       -0.000000   -0.866025   -1.087500
 ---------------------------------------------------------------------
 Rotational constants (GHZ):         334.3034030          34.8754666          31.5808626
 General basis read from cards:  (5D, 7F)
 There are    43 symmetry adapted cartesian basis functions of A1  symmetry.
 There are    10 symmetry adapted cartesian basis functions of A2  symmetry.
 There are    20 symmetry adapted cartesian basis functions of B1  symmetry.
 There are    27 symmetry adapted cartesian basis functions of B2  symmetry.
 There are    36 symmetry adapted basis functions of A1  symmetry.
 There are    10 symmetry adapted basis functions of A2  symmetry.
 There are    18 symmetry adapted basis functions of B1  symmetry.
 There are    24 symmetry adapted basis functions of B2  symmetry.
    88 basis functions,   138 primitive gaussians,   100 cartesian basis functions
     8 alpha electrons        8 beta electrons
       nuclear repulsion energy        30.4332174032 Hartrees.
 NAtoms=    4 NActive=    4 NUniq=    3 SFac= 1.78D+00 NAtFMM=   60 NAOKFM=F Big=F
 Integral buffers will be    131072 words long.
 Raffenetti 2 integral format.
 Two-electron integral symmetry is turned on.
 One-electron integrals computed using PRISM.
 NBasis=    88 RedAO= T EigKep=  1.96D-03  NBF=    36    10    18    24
 NBsUse=    88 1.00D-06 EigRej= -1.00D+00 NBFU=    36    10    18    24
 ExpMin= 7.42D-02 ExpMax= 1.36D+04 ExpMxC= 4.64D+02 IAcc=3 IRadAn=         5 AccDes= 0.00D+00
 Harris functional with IExCor=  402 and IRadAn=       5 diagonalized for initial guess.
 HarFok:  IExCor=  402 AccDes= 0.00D+00 IRadAn=         5 IDoV= 1 UseB2=F ITyADJ=14
 ICtDFT=  3500011 ScaDFX=  1.000000  1.000000  1.000000  1.000000
 FoFCou: FMM=F IPFlag=           0 FMFlag=      100000 FMFlg1=           0
         NFxFlg=           0 DoJE=T BraDBF=F KetDBF=T FulRan=T
         wScrn=  0.000000 ICntrl=       500 IOpCl=  0 I1Cent=   200000004 NGrid=           0
         NMat0=    1 NMatS0=      1 NMatT0=    0 NMatD0=    1 NMtDS0=    0 NMtDT0=    0
 Petite list used in FoFCou.
 Initial guess orbital symmetries:
       Occupied  (A1) (A1) (A1) (A1) (B2) (A1) (B1) (B2)
       Virtual   (B1) (A1) (A1) (B2) (B1) (A1) (B2) (A1) (A1) (A1)
                 (B2) (B1) (B2) (A2) (A1) (B1) (B2) (A1) (A1) (B2)
                 (A1) (B1) (B2) (A2) (B1) (A1) (A1) (A2) (B2) (A1)
                 (B1) (A1) (B2) (A1) (B1) (A1) (B2) (B2) (A1) (A2)
                 (B1) (B2) (A1) (B2) (B1) (A1) (A2) (A1) (B2) (A2)
                 (B1) (A1) (B1) (B2) (A2) (B1) (A1) (A1) (B2) (B2)
                 (B1) (A1) (A2) (A1) (B1) (B2) (A1) (B2) (B1) (A1)
                 (A2) (A1) (A2) (B2) (A1) (A1) (B1) (B2) (A1) (B2)
 The electronic state of the initial guess is 1-A1.
 Keep R1 ints in memory in symmetry-blocked form, NReq=9657629.
 Requested convergence on RMS density matrix=1.00D-08 within 128 cycles.
 Requested convergence on MAX density matrix=1.00D-06.
 Requested convergence on             energy=1.00D-06.
 No special actions if energy rises.
 Integral accuracy reduced to 1.0D-05 until final iterations.
 Initial convergence to 1.0D-05 achieved.  Increase integral accuracy.
 SCF Done:  E(RB3LYP) =  -114.529457086     A.U. after   10 cycles
            NFock= 10  Conv=0.91D-08     -V/T= 2.0030

 **********************************************************************

            Population analysis using the SCF Density.

 **********************************************************************

 Orbital symmetries:
       Occupied  (A1) (A1) (A1) (A1) (B2) (A1) (B1) (B2)
       Virtual   (B1) (A1) (B2) (A1) (B1) (A1) (B2) (A1) (A1) (B2)
                 (A1) (B1) (B2) (A2) (A1) (B1) (B2) (A1) (A1) (B2)
                 (A1) (B1) (A2) (B2) (B1) (A1) (A1) (A2) (B2) (A1)
                 (B1) (A1) (B2) (A1) (B1) (A1) (B2) (B2) (A1) (A2)
                 (B1) (B2) (A1) (B2) (B1) (A1) (A2) (A1) (A2) (B2)
                 (B1) (A1) (B1) (B2) (A2) (B1) (A1) (B2) (A1) (B2)
                 (B1) (A1) (A2) (A1) (B1) (B2) (A1) (B2) (B1) (A1)
                 (A2) (A1) (A2) (B2) (A1) (A1) (B1) (B2) (A1) (B2)
 The electronic state is 1-A1.
 Alpha  occ. eigenvalues --  -19.14918 -10.27142  -1.02070  -0.68359  -0.52376
 Alpha  occ. eigenvalues --   -0.44654  -0.38220  -0.28444
 Alpha virt. eigenvalues --   -0.08618   0.02355   0.06664   0.08615   0.16482
 Alpha virt. eigenvalues --    0.21258   0.24315   0.33101   0.34623   0.36781
 Alpha virt. eigenvalues --    0.37713   0.41475   0.49429   0.64465   0.68526
 Alpha virt. eigenvalues --    0.87530   0.90739   0.91217   0.96709   1.01516
 Alpha virt. eigenvalues --    1.12377   1.18823   1.22864   1.24541   1.25083
 Alpha virt. eigenvalues --    1.44804   1.54175   1.68536   1.70701   1.81983
 Alpha virt. eigenvalues --    1.91593   1.93125   2.02741   2.09814   2.33862
 Alpha virt. eigenvalues --    2.41379   2.44690   2.67386   2.84353   3.14633
 Alpha virt. eigenvalues --    3.23470   3.45653   3.46240   3.48947   3.56094
 Alpha virt. eigenvalues --    3.70806   3.81830   3.91288   3.93928   3.94365
 Alpha virt. eigenvalues --    3.97648   4.02594   4.04303   4.08162   4.21396
 Alpha virt. eigenvalues --    4.33005   4.34436   4.41646   4.42243   4.55454
 Alpha virt. eigenvalues --    4.63703   4.70218   4.75557   4.85725   5.06384
 Alpha virt. eigenvalues --    5.11440   5.27434   5.58704   5.62233   5.72472
 Alpha virt. eigenvalues --    5.86412   5.91750   6.07791   6.08366   6.15156
 Alpha virt. eigenvalues --    6.33531   6.46177   6.71737   6.84910   6.94180
          Condensed to atoms (all electrons):
               1          2          3          4
     1  C    4.330396   0.519934   0.404319   0.404319
     2  O    0.519934   8.010274  -0.065242  -0.065242
     3  H    0.404319  -0.065242   0.746499  -0.114921
     4  H    0.404319  -0.065242  -0.114921   0.746499
 Mulliken charges:
               1
     1  C    0.341033
     2  O   -0.399724
     3  H    0.029346
     4  H    0.029346
 Sum of Mulliken charges =  -0.00000
 Mulliken charges with hydrogens summed into heavy atoms:
               1
     1  C    0.399724
     2  O   -0.399724
 Electronic spatial extent (au):  <R**2>=             61.9466
 Charge=             -0.0000 electrons
 Dipole moment (field-independent basis, Debye):
    X=              0.0000    Y=             -0.0000    Z=             -2.8943  Tot=              2.8943
 Quadrupole moment (field-independent basis, Debye-Ang):
   XX=            -11.7738   YY=            -11.5426   ZZ=            -11.9838
   XY=              0.0000   XZ=              0.0000   YZ=              0.0000
 Traceless Quadrupole moment (field-independent basis, Debye-Ang):
   XX=             -0.0071   YY=              0.2241   ZZ=             -0.2170
   XY=              0.0000   XZ=              0.0000   YZ=              0.0000
 Octapole moment (field-independent basis, Debye-Ang**2):
  XXX=              0.0000  YYY=             -0.0000  ZZZ=             -0.7956  XYY=              0.0000
  XXY=             -0.0000  XXZ=              0.3024  XZZ=              0.0000  YZZ=             -0.0000
  YYZ=             -1.0522  XYZ=             -0.0000
 Hexadecapole moment (field-independent basis, Debye-Ang**3):
 XXXX=            -11.0250 YYYY=            -16.5167 ZZZZ=            -47.7713 XXXY=             -0.0000
 XXXZ=             -0.0000 YYYX=             -0.0000 YYYZ=              0.0000 ZZZX=             -0.0000
 ZZZY=             -0.0000 XXYY=             -4.8633 XXZZ=             -9.7355 YYZZ=            -10.4332
 XXYZ=              0.0000 YYXZ=             -0.0000 ZZXY=             -0.0000
 N-N= 3.043321740321D+01 E-N=-3.300221542374D+02  KE= 1.141831190493D+02
 Symmetry A1   KE= 1.035341533764D+02
 Symmetry A2   KE= 4.391278225516D-33
 Symmetry B1   KE= 3.605906129721D+00
 Symmetry B2   KE= 7.043059543152D+00
 Calling FoFJK, ICntrl=      2127 FMM=F ISym2X=1 I1Cent= 0 IOpClX= 0 NMat=1 NMatS=1 NMatT=0.
 ***** Axes restored to original set *****
 -------------------------------------------------------------------
 Center     Atomic                   Forces (Hartrees/Bohr)
 Number     Number              X              Y              Z
 -------------------------------------------------------------------
      1        6          -0.000000000    0.000000000    0.183121609
      2        8           0.000000000    0.000000000   -0.107533882
      3        1           0.068527915   -0.000000000   -0.037793863
      4        1          -0.068527915   -0.000000000   -0.037793863
 -------------------------------------------------------------------
 Cartesian Forces:  Max     0.183121609 RMS     0.069129083

 GradGradGradGradGradGradGradGradGradGradGradGradGradGradGradGradGradGrad
 Berny optimization.
 FormGI is forming the generalized inverse of G from B-inverse, IUseBI=4.
 Internal  Forces:  Max     0.107533882 RMS     0.058325850
 Search for a local minimum.
 Step number   1 out of a maximum of   20
 All quantities printed in internal units (Hartrees-Bohrs-Radians)
 Mixed Optimization -- RFO/linear search
 Second derivative matrix not updated -- first step.
 The second derivative matrix:
                          R1        R2        R3        A1        A2
           R1           0.67193
           R2           0.00000   0.47688
           R3           0.00000   0.00000   0.47688
           A1           0.00000   0.00000   0.00000   0.16000
           A2           0.00000   0.00000   0.00000   0.00000   0.16000
           A3           0.00000   0.00000   0.00000   0.00000   0.00000
           D1           0.00000   0.00000   0.00000   0.00000   0.00000
                          A3        D1
           A3           0.16000
           D1           0.00000   0.01425
 ITU=  0
     Eigenvalues ---    0.01425   0.16000   0.16000   0.47688   0.47688
     Eigenvalues ---    0.67193
 RFO step:  Lambda=-3.99616322D-02 EMin= 1.42535758D-02
 Linear search not attempted -- first point.
 Iteration  1 RMS(Cart)=  0.08304995 RMS(Int)=  0.00033192
 Iteration  2 RMS(Cart)=  0.00030577 RMS(Int)=  0.00000007
 Iteration  3 RMS(Cart)=  0.00000007 RMS(Int)=  0.00000000
 ClnCor:  largest displacement from symmetrization is 2.79D-12 for atom     1.
 Variable       Old X    -DE/DX   Delta X   Delta X   Delta X     New X
                                 (Linear)    (Quad)   (Total)
    R1        2.45664  -0.10753   0.00000  -0.15105  -0.15105   2.30559
    R2        1.88973   0.07824   0.00000   0.15139   0.15139   2.04111
    R3        1.88973   0.07824   0.00000   0.15139   0.15139   2.04111
    A1        2.09440  -0.00097   0.00000  -0.00483  -0.00483   2.08956
    A2        2.09440  -0.00097   0.00000  -0.00483  -0.00483   2.08956
    A3        2.09440   0.00193   0.00000   0.00966   0.00966   2.10406
    D1        3.14159   0.00000   0.00000   0.00000   0.00000   3.14159
         Item               Value     Threshold  Converged?
 Maximum Force            0.107534     0.000450     NO 
 RMS     Force            0.058326     0.000300     NO 
 Maximum Displacement     0.136015     0.001800     NO 
 RMS     Displacement     0.083220     0.001200     NO 
 Predicted change in Energy=-2.135537D-02
 GradGradGradGradGradGradGradGradGradGradGradGradGradGradGradGradGradGrad

                          Input orientation:                          
 ---------------------------------------------------------------------
 Center     Atomic      Atomic             Coordinates (Angstroms)
 Number     Number       Type             X           Y           Z
 ---------------------------------------------------------------------
      1          6           0        0.000000   -0.000000    0.037749
      2          8           0       -0.000000    0.000000    1.257815
      3          1           0        0.938001   -0.000000   -0.497782
      4          1           0       -0.938001    0.000000   -0.497782
 ---------------------------------------------------------------------
                    Distance matrix (angstroms):
                    1          2          3          4
     1  C    0.000000
     2  O    1.220066   0.000000
     3  H    1.080111   1.990469   0.000000
     4  H    1.080111   1.990469   1.876003   0.000000
 Stoichiometry    CH2O
 Framework group  C2V[C2(CO),SGV(H2)]
 Deg. of freedom     3
 Full point group                 C2V     NOp   4
 Largest Abelian subgroup         C2V     NOp   4
 Largest concise Abelian subgroup C2      NOp   2
                         Standard orientation:                         
 ---------------------------------------------------------------------
 Center     Atomic      Atomic             Coordinates (Angstroms)
 Number     Number       Type             X           Y           Z
 ---------------------------------------------------------------------
      1          6           0       -0.000000    0.000000   -0.543092
      2          8           0        0.000000   -0.000000    0.676974
      3          1           0       -0.000000    0.938001   -1.078622
      4          1           0       -0.000000   -0.938001   -1.078622
 ---------------------------------------------------------------------
 Rotational constants (GHZ):         284.9673640          38.6888367          34.0640957
 Basis read from rwf:  (5D, 7F)
 There are    43 symmetry adapted cartesian basis functions of A1  symmetry.
 There are    10 symmetry adapted cartesian basis functions of A2  symmetry.
 There are    20 symmetry adapted cartesian basis functions of B1  symmetry.
 There are    27 symmetry adapted cartesian basis functions of B2  symmetry.
 There are    36 symmetry adapted basis functions of A1  symmetry.
 There are    10 symmetry adapted basis functions of A2  symmetry.
 There are    18 symmetry adapted basis functions of B1  symmetry.
 There are    24 symmetry adapted basis functions of B2  symmetry.
    88 basis functions,   138 primitive gaussians,   100 cartesian basis functions
     8 alpha electrons        8 beta electrons
       nuclear repulsion energy        31.2338715620 Hartrees.
 NAtoms=    4 NActive=    4 NUniq=    3 SFac= 1.78D+00 NAtFMM=   60 NAOKFM=F Big=F
 Integral buffers will be    131072 words long.
 Raffenetti 2 integral format.
 Two-electron integral symmetry is turned on.
 One-electron integrals computed using PRISM.
 NBasis=    88 RedAO= T EigKep=  1.91D-03  NBF=    36    10    18    24
 NBsUse=    88 1.00D-06 EigRej= -1.00D+00 NBFU=    36    10    18    24
 Initial guess from the checkpoint file:  "/wrk/irikura/Gau-15298.chk"
 B after Tr=    -0.000000    0.000000    0.000000
         Rot=    1.000000    0.000000   -0.000000   -0.000000 Ang=   0.00 deg.
 Initial guess orbital symmetries:
       Occupied  (A1) (A1) (A1) (A1) (B2) (A1) (B1) (B2)
       Virtual   (B1) (A1) (B2) (A1) (B1) (A1) (B2) (A1) (A1) (B2)
                 (A1) (B1) (B2) (A2) (A1) (B1) (B2) (A1) (A1) (B2)
                 (A1) (B1) (A2) (B2) (B1) (A1) (A1) (A2) (B2) (A1)
                 (B1) (A1) (B2) (A1) (B1) (A1) (B2) (B2) (A1) (A2)
                 (B1) (B2) (A1) (B2) (B1) (A1) (A2) (A1) (A2) (B2)
                 (B1) (A1) (B1) (B2) (A2) (B1) (A1) (B2) (A1) (B2)
                 (B1) (A1) (A2) (A1) (B1) (B2) (A1) (B2) (B1) (A1)
                 (A2) (A1) (A2) (B2) (A1) (A1) (B1) (B2) (A1) (B2)
 ExpMin= 7.42D-02 ExpMax= 1.36D+04 ExpMxC= 4.64D+02 IAcc=3 IRadAn=         5 AccDes= 0.00D+00
 Harris functional with IExCor=  402 and IRadAn=       5 diagonalized for initial guess.
 HarFok:  IExCor=  402 AccDes= 0.00D+00 IRadAn=         5 IDoV= 1 UseB2=F ITyADJ=14
 ICtDFT=  3500011 ScaDFX=  1.000000  1.000000  1.000000  1.000000
 FoFCou: FMM=F IPFlag=           0 FMFlag=      100000 FMFlg1=           0
         NFxFlg=           0 DoJE=T BraDBF=F KetDBF=T FulRan=T
         wScrn=  0.000000 ICntrl=       500 IOpCl=  0 I1Cent=   200000004 NGrid=           0
         NMat0=    1 NMatS0=      1 NMatT0=    0 NMatD0=    1 NMtDS0=    0 NMtDT0=    0
 Petite list used in FoFCou.
 Keep R1 ints in memory in symmetry-blocked form, NReq=9657685.
 Requested convergence on RMS density matrix=1.00D-08 within 128 cycles.
 Requested convergence on MAX density matrix=1.00D-06.
 Requested convergence on             energy=1.00D-06.
 No special actions if energy rises.
 Integral accuracy reduced to 1.0D-05 until final iterations.
 Initial convergence to 1.0D-05 achieved.  Increase integral accuracy.
 SCF Done:  E(RB3LYP) =  -114.553004277     A.U. after   10 cycles
            NFock= 10  Conv=0.67D-08     -V/T= 2.0032
 Calling FoFJK, ICntrl=      2127 FMM=F ISym2X=1 I1Cent= 0 IOpClX= 0 NMat=1 NMatS=1 NMatT=0.
 ***** Axes restored to original set *****
 -------------------------------------------------------------------
 Center     Atomic                   Forces (Hartrees/Bohr)
 Number     Number              X              Y              Z
 -------------------------------------------------------------------
      1        6          -0.000000000    0.000000000    0.047769223
      2        8          -0.000000000    0.000000000   -0.024387102
      3        1           0.009148403   -0.000000000   -0.011691060
      4        1          -0.009148403   -0.000000000   -0.011691060
 -------------------------------------------------------------------
 Cartesian Forces:  Max     0.047769223 RMS     0.016626730

 GradGradGradGradGradGradGradGradGradGradGradGradGradGradGradGradGradGrad
 Berny optimization.
 Using GEDIIS/GDIIS optimizer.
 FormGI is forming the generalized inverse of G from B-inverse, IUseBI=4.
 Internal  Forces:  Max     0.024387102 RMS     0.012305676
 Search for a local minimum.
 Step number   2 out of a maximum of   20
 All quantities printed in internal units (Hartrees-Bohrs-Radians)
 Mixed Optimization -- RFO/linear search
 Update second derivatives using D2CorX and points    1    2
 DE= -2.35D-02 DEPred=-2.14D-02 R= 1.10D+00
 TightC=F SS=  1.41D+00  RLast= 2.62D-01 DXNew= 5.0454D-01 7.8686D-01
 Trust test= 1.10D+00 RLast= 2.62D-01 DXMaxT set to 5.05D-01
 The second derivative matrix:
                          R1        R2        R3        A1        A2
           R1           0.60961
           R2           0.03050   0.46592
           R3           0.03050  -0.01096   0.46592
           A1           0.01024  -0.00808  -0.00808   0.16070
           A2           0.01024  -0.00808  -0.00808   0.00070   0.16070
           A3          -0.02049   0.01617   0.01617  -0.00139  -0.00139
           D1          -0.00000   0.00000   0.00000  -0.00000  -0.00000
                          A3        D1
           A3           0.16278
           D1           0.00000   0.01425
 ITU=  1  0
 Use linear search instead of GDIIS.
     Eigenvalues ---    0.01425   0.15960   0.16000   0.44766   0.47688
     Eigenvalues ---    0.62148
 RFO step:  Lambda=-9.75059576D-04 EMin= 1.42535758D-02
 Quartic linear search produced a step of  0.25784.
 Iteration  1 RMS(Cart)=  0.02244193 RMS(Int)=  0.00071211
 Iteration  2 RMS(Cart)=  0.00076681 RMS(Int)=  0.00000029
 Iteration  3 RMS(Cart)=  0.00000023 RMS(Int)=  0.00000000
 ClnCor:  largest displacement from symmetrization is 3.97D-11 for atom     1.
 Variable       Old X    -DE/DX   Delta X   Delta X   Delta X     New X
                                 (Linear)    (Quad)   (Total)
    R1        2.30559  -0.02439  -0.03895  -0.01007  -0.04901   2.25658
    R2        2.04111   0.01374   0.03903   0.00042   0.03945   2.08056
    R3        2.04111   0.01374   0.03903   0.00042   0.03945   2.08056
    A1        2.08956   0.00382  -0.00125   0.03104   0.02979   2.11935
    A2        2.08956   0.00382  -0.00125   0.03104   0.02979   2.11935
    A3        2.10406  -0.00764   0.00249  -0.06207  -0.05958   2.04448
    D1        3.14159   0.00000   0.00000   0.00000   0.00000   3.14159
         Item               Value     Threshold  Converged?
 Maximum Force            0.024387     0.000450     NO 
 RMS     Force            0.012306     0.000300     NO 
 Maximum Displacement     0.048714     0.001800     NO 
 RMS     Displacement     0.022552     0.001200     NO 
 Predicted change in Energy=-1.406857D-03
 GradGradGradGradGradGradGradGradGradGradGradGradGradGradGradGradGradGrad

                          Input orientation:                          
 ---------------------------------------------------------------------
 Center     Atomic      Atomic             Coordinates (Angstroms)
 Number     Number       Type             X           Y           Z
 ---------------------------------------------------------------------
      1          6           0        0.000000   -0.000000    0.063527
      2          8           0        0.000000    0.000000    1.257656
      3          1           0        0.939447   -0.000000   -0.510591
      4          1           0       -0.939447    0.000000   -0.510591
 ---------------------------------------------------------------------
                    Distance matrix (angstroms):
                    1          2          3          4
     1  C    0.000000
     2  O    1.194128   0.000000
     3  H    1.100987   2.002313   0.000000
     4  H    1.100987   2.002313   1.878895   0.000000
 Stoichiometry    CH2O
 Framework group  C2V[C2(CO),SGV(H2)]
 Deg. of freedom     3
 Full point group                 C2V     NOp   4
 Largest Abelian subgroup         C2V     NOp   4
 Largest concise Abelian subgroup C2      NOp   2
                         Standard orientation:                         
 ---------------------------------------------------------------------
 Center     Atomic      Atomic             Coordinates (Angstroms)
 Number     Number       Type             X           Y           Z
 ---------------------------------------------------------------------
      1          6           0       -0.000000    0.000000   -0.525299
      2          8           0        0.000000   -0.000000    0.668829
      3          1           0        0.000000    0.939447   -1.099418
      4          1           0       -0.000000   -0.939447   -1.099418
 ---------------------------------------------------------------------
 Rotational constants (GHZ):         284.0908295          39.6544550          34.7973162
 Basis read from rwf:  (5D, 7F)
 There are    43 symmetry adapted cartesian basis functions of A1  symmetry.
 There are    10 symmetry adapted cartesian basis functions of A2  symmetry.
 There are    20 symmetry adapted cartesian basis functions of B1  symmetry.
 There are    27 symmetry adapted cartesian basis functions of B2  symmetry.
 There are    36 symmetry adapted basis functions of A1  symmetry.
 There are    10 symmetry adapted basis functions of A2  symmetry.
 There are    18 symmetry adapted basis functions of B1  symmetry.
 There are    24 symmetry adapted basis functions of B2  symmetry.
    88 basis functions,   138 primitive gaussians,   100 cartesian basis functions
     8 alpha electrons        8 beta electrons
       nuclear repulsion energy        31.5490022191 Hartrees.
 NAtoms=    4 NActive=    4 NUniq=    3 SFac= 1.78D+00 NAtFMM=   60 NAOKFM=F Big=F
 Integral buffers will be    131072 words long.
 Raffenetti 2 integral format.
 Two-electron integral symmetry is turned on.
 One-electron integrals computed using PRISM.
 NBasis=    88 RedAO= T EigKep=  1.86D-03  NBF=    36    10    18    24
 NBsUse=    88 1.00D-06 EigRej= -1.00D+00 NBFU=    36    10    18    24
 Initial guess from the checkpoint file:  "/wrk/irikura/Gau-15298.chk"
 B after Tr=    -0.000000   -0.000000   -0.000000
         Rot=    1.000000    0.000000   -0.000000    0.000000 Ang=   0.00 deg.
 Initial guess orbital symmetries:
       Occupied  (A1) (A1) (A1) (A1) (B2) (A1) (B1) (B2)
       Virtual   (B1) (A1) (B2) (A1) (B1) (A1) (B2) (A1) (A1) (B2)
                 (B1) (A1) (B2) (A2) (A1) (B1) (B2) (A1) (A1) (B2)
                 (A1) (B1) (A2) (B1) (B2) (A1) (A1) (B2) (A2) (A1)
                 (B1) (A1) (B2) (A1) (B1) (B2) (A1) (B2) (A1) (A2)
                 (B1) (B2) (B2) (A1) (B1) (A1) (A2) (B2) (A1) (A2)
                 (B1) (B1) (A1) (B2) (A2) (B1) (B2) (A1) (A1) (B2)
                 (B1) (A1) (A1) (A2) (B2) (B1) (A1) (B2) (A1) (A2)
                 (B1) (B2) (A1) (A1) (A2) (A1) (B1) (B2) (B2) (A1)
 ExpMin= 7.42D-02 ExpMax= 1.36D+04 ExpMxC= 4.64D+02 IAcc=3 IRadAn=         5 AccDes= 0.00D+00
 Harris functional with IExCor=  402 and IRadAn=       5 diagonalized for initial guess.
 HarFok:  IExCor=  402 AccDes= 0.00D+00 IRadAn=         5 IDoV= 1 UseB2=F ITyADJ=14
 ICtDFT=  3500011 ScaDFX=  1.000000  1.000000  1.000000  1.000000
 FoFCou: FMM=F IPFlag=           0 FMFlag=      100000 FMFlg1=           0
         NFxFlg=           0 DoJE=T BraDBF=F KetDBF=T FulRan=T
         wScrn=  0.000000 ICntrl=       500 IOpCl=  0 I1Cent=   200000004 NGrid=           0
         NMat0=    1 NMatS0=      1 NMatT0=    0 NMatD0=    1 NMtDS0=    0 NMtDT0=    0
 Petite list used in FoFCou.
 Keep R1 ints in memory in symmetry-blocked form, NReq=9657713.
 Requested convergence on RMS density matrix=1.00D-08 within 128 cycles.
 Requested convergence on MAX density matrix=1.00D-06.
 Requested convergence on             energy=1.00D-06.
 No special actions if energy rises.
 Integral accuracy reduced to 1.0D-05 until final iterations.
 Initial convergence to 1.0D-05 achieved.  Increase integral accuracy.
 SCF Done:  E(RB3LYP) =  -114.554495028     A.U. after   10 cycles
            NFock= 10  Conv=0.99D-08     -V/T= 2.0029
 Calling FoFJK, ICntrl=      2127 FMM=F ISym2X=1 I1Cent= 0 IOpClX= 0 NMat=1 NMatS=1 NMatT=0.
 ***** Axes restored to original set *****
 -------------------------------------------------------------------
 Center     Atomic                   Forces (Hartrees/Bohr)
 Number     Number              X              Y              Z
 -------------------------------------------------------------------
      1        6           0.000000000    0.000000000   -0.003676838
      2        8           0.000000000    0.000000000    0.010272370
      3        1           0.001545002   -0.000000000   -0.003297766
      4        1          -0.001545002   -0.000000000   -0.003297766
 -------------------------------------------------------------------
 Cartesian Forces:  Max     0.010272370 RMS     0.003482878

 GradGradGradGradGradGradGradGradGradGradGradGradGradGradGradGradGradGrad
 Berny optimization.
 Using GEDIIS/GDIIS optimizer.
 FormGI is forming the generalized inverse of G from B-inverse, IUseBI=4.
 Internal  Forces:  Max     0.010272370 RMS     0.004401604
 Search for a local minimum.
 Step number   3 out of a maximum of   20
 All quantities printed in internal units (Hartrees-Bohrs-Radians)
 Mixed Optimization -- RFO/linear search
 Update second derivatives using D2CorX and points    1    2    3
 DE= -1.49D-03 DEPred=-1.41D-03 R= 1.06D+00
 TightC=F SS=  1.41D+00  RLast= 1.04D-01 DXNew= 8.4853D-01 3.1235D-01
 Trust test= 1.06D+00 RLast= 1.04D-01 DXMaxT set to 5.05D-01
 The second derivative matrix:
                          R1        R2        R3        A1        A2
           R1           0.80790
           R2           0.02597   0.42858
           R3           0.02597  -0.04830   0.42858
           A1           0.01617  -0.01693  -0.01693   0.15883
           A2           0.01617  -0.01693  -0.01693  -0.00117   0.15883
           A3          -0.03234   0.03386   0.03386   0.00234   0.00234
           D1          -0.00000   0.00000   0.00000   0.00000   0.00000
                          A3        D1
           A3           0.15532
           D1          -0.00000   0.01425
 ITU=  1  1  0
 Use linear search instead of GDIIS.
     Eigenvalues ---    0.01425   0.13542   0.16000   0.39289   0.47688
     Eigenvalues ---    0.81286
 RFO step:  Lambda=-2.56813175D-04 EMin= 1.42535758D-02
 Quartic linear search produced a step of -0.00482.
 Iteration  1 RMS(Cart)=  0.01128759 RMS(Int)=  0.00007271
 Iteration  2 RMS(Cart)=  0.00007804 RMS(Int)=  0.00000000
 Iteration  3 RMS(Cart)=  0.00000000 RMS(Int)=  0.00000000
 ClnCor:  largest displacement from symmetrization is 4.85D-12 for atom     1.
 Variable       Old X    -DE/DX   Delta X   Delta X   Delta X     New X
                                 (Linear)    (Quad)   (Total)
    R1        2.25658   0.01027   0.00024   0.01061   0.01085   2.26742
    R2        2.08056   0.00304  -0.00019   0.01015   0.00996   2.09052
    R3        2.08056   0.00304  -0.00019   0.01015   0.00996   2.09052
    A1        2.11935   0.00139  -0.00014   0.01030   0.01015   2.12951
    A2        2.11935   0.00139  -0.00014   0.01030   0.01015   2.12951
    A3        2.04448  -0.00279   0.00029  -0.02059  -0.02031   2.02417
    D1        3.14159   0.00000   0.00000   0.00000   0.00000   3.14159
         Item               Value     Threshold  Converged?
 Maximum Force            0.010272     0.000450     NO 
 RMS     Force            0.004402     0.000300     NO 
 Maximum Displacement     0.019760     0.001800     NO 
 RMS     Displacement     0.011308     0.001200     NO 
 Predicted change in Energy=-1.284708D-04
 GradGradGradGradGradGradGradGradGradGradGradGradGradGradGradGradGradGrad

                          Input orientation:                          
 ---------------------------------------------------------------------
 Center     Atomic      Atomic             Coordinates (Angstroms)
 Number     Number       Type             X           Y           Z
 ---------------------------------------------------------------------
      1          6           0        0.000000   -0.000000    0.068243
      2          8           0       -0.000000    0.000000    1.268112
      3          1           0        0.938038   -0.000000   -0.518177
      4          1           0       -0.938038    0.000000   -0.518177
 ---------------------------------------------------------------------
                    Distance matrix (angstroms):
                    1          2          3          4
     1  C    0.000000
     2  O    1.199870   0.000000
     3  H    1.106257   2.017609   0.000000
     4  H    1.106257   2.017609   1.876076   0.000000
 Stoichiometry    CH2O
 Framework group  C2V[C2(CO),SGV(H2)]
 Deg. of freedom     3
 Full point group                 C2V     NOp   4
 Largest Abelian subgroup         C2V     NOp   4
 Largest concise Abelian subgroup C2      NOp   2
                         Standard orientation:                         
 ---------------------------------------------------------------------
 Center     Atomic      Atomic             Coordinates (Angstroms)
 Number     Number       Type             X           Y           Z
 ---------------------------------------------------------------------
      1          6           0        0.000000   -0.000000   -0.526632
      2          8           0       -0.000000    0.000000    0.673237
      3          1           0        0.000000    0.938038   -1.113052
      4          1           0       -0.000000   -0.938038   -1.113052
 ---------------------------------------------------------------------
 Rotational constants (GHZ):         284.9450090          39.1375910          34.4111693
 Basis read from rwf:  (5D, 7F)
 There are    43 symmetry adapted cartesian basis functions of A1  symmetry.
 There are    10 symmetry adapted cartesian basis functions of A2  symmetry.
 There are    20 symmetry adapted cartesian basis functions of B1  symmetry.
 There are    27 symmetry adapted cartesian basis functions of B2  symmetry.
 There are    36 symmetry adapted basis functions of A1  symmetry.
 There are    10 symmetry adapted basis functions of A2  symmetry.
 There are    18 symmetry adapted basis functions of B1  symmetry.
 There are    24 symmetry adapted basis functions of B2  symmetry.
    88 basis functions,   138 primitive gaussians,   100 cartesian basis functions
     8 alpha electrons        8 beta electrons
       nuclear repulsion energy        31.3881171740 Hartrees.
 NAtoms=    4 NActive=    4 NUniq=    3 SFac= 1.78D+00 NAtFMM=   60 NAOKFM=F Big=F
 Integral buffers will be    131072 words long.
 Raffenetti 2 integral format.
 Two-electron integral symmetry is turned on.
 One-electron integrals computed using PRISM.
 NBasis=    88 RedAO= T EigKep=  1.89D-03  NBF=    36    10    18    24
 NBsUse=    88 1.00D-06 EigRej= -1.00D+00 NBFU=    36    10    18    24
 Initial guess from the checkpoint file:  "/wrk/irikura/Gau-15298.chk"
 B after Tr=     0.000000   -0.000000    0.000000
         Rot=    1.000000   -0.000000   -0.000000    0.000000 Ang=   0.00 deg.
 Initial guess orbital symmetries:
       Occupied  (A1) (A1) (A1) (A1) (B2) (A1) (B1) (B2)
       Virtual   (B1) (A1) (B2) (A1) (B1) (A1) (B2) (A1) (A1) (B2)
                 (B1) (A1) (B2) (A2) (A1) (B1) (B2) (A1) (A1) (B2)
                 (A1) (B1) (A2) (B1) (B2) (A1) (A1) (B2) (A2) (A1)
                 (B1) (A1) (B2) (A1) (B1) (B2) (A1) (B2) (A1) (A2)
                 (B1) (B2) (B2) (A1) (B1) (A1) (A2) (B2) (A1) (B1)
                 (A2) (B1) (A1) (B2) (A2) (B2) (B1) (A1) (A1) (B1)
                 (B2) (A1) (A1) (A2) (B2) (B1) (A1) (B2) (A1) (A2)
                 (B1) (B2) (A1) (A2) (A1) (A1) (B1) (B2) (B2) (A1)
 Keep R1 ints in memory in symmetry-blocked form, NReq=9657699.
 Requested convergence on RMS density matrix=1.00D-08 within 128 cycles.
 Requested convergence on MAX density matrix=1.00D-06.
 Requested convergence on             energy=1.00D-06.
 No special actions if energy rises.
 SCF Done:  E(RB3LYP) =  -114.554612382     A.U. after    7 cycles
            NFock=  7  Conv=0.68D-08     -V/T= 2.0032
 Calling FoFJK, ICntrl=      2127 FMM=F ISym2X=1 I1Cent= 0 IOpClX= 0 NMat=1 NMatS=1 NMatT=0.
 ***** Axes restored to original set *****
 -------------------------------------------------------------------
 Center     Atomic                   Forces (Hartrees/Bohr)
 Number     Number              X              Y              Z
 -------------------------------------------------------------------
      1        6           0.000000000    0.000000000    0.001022378
      2        8           0.000000000    0.000000000   -0.001337264
      3        1          -0.000191179   -0.000000000    0.000157443
      4        1           0.000191179   -0.000000000    0.000157443
 -------------------------------------------------------------------
 Cartesian Forces:  Max     0.001337264 RMS     0.000496337

 GradGradGradGradGradGradGradGradGradGradGradGradGradGradGradGradGradGrad
 Berny optimization.
 Using GEDIIS/GDIIS optimizer.
 FormGI is forming the generalized inverse of G from B-inverse, IUseBI=4.
 Internal  Forces:  Max     0.001337264 RMS     0.000522616
 Search for a local minimum.
 Step number   4 out of a maximum of   20
 All quantities printed in internal units (Hartrees-Bohrs-Radians)
 Mixed Optimization -- En-DIIS/RFO-DIIS
 Update second derivatives using D2CorX and points    1    2    3    4
 DE= -1.17D-04 DEPred=-1.28D-04 R= 9.13D-01
 TightC=F SS=  1.41D+00  RLast= 3.06D-02 DXNew= 8.4853D-01 9.1709D-02
 Trust test= 9.13D-01 RLast= 3.06D-02 DXMaxT set to 5.05D-01
 The second derivative matrix:
                          R1        R2        R3        A1        A2
           R1           0.87227
           R2           0.04930   0.42971
           R3           0.04930  -0.04717   0.42971
           A1           0.01912  -0.01741  -0.01741   0.15885
           A2           0.01912  -0.01741  -0.01741  -0.00115   0.15885
           A3          -0.03823   0.03482   0.03482   0.00230   0.00230
           D1          -0.00000   0.00000   0.00000   0.00000   0.00000
                          A3        D1
           A3           0.15540
           D1          -0.00000   0.01425
 ITU=  1  1  1  0
 Use linear search instead of GDIIS.
     Eigenvalues ---    0.01425   0.13291   0.16000   0.39100   0.47688
     Eigenvalues ---    0.88400
 RFO step:  Lambda=-6.30570720D-07 EMin= 1.42535758D-02
 Quartic linear search produced a step of -0.07581.
 Iteration  1 RMS(Cart)=  0.00061055 RMS(Int)=  0.00000002
 Iteration  2 RMS(Cart)=  0.00000002 RMS(Int)=  0.00000000
 ClnCor:  largest displacement from symmetrization is 1.03D-11 for atom     1.
 Variable       Old X    -DE/DX   Delta X   Delta X   Delta X     New X
                                 (Linear)    (Quad)   (Total)
    R1        2.26742  -0.00134  -0.00082  -0.00065  -0.00147   2.26596
    R2        2.09052  -0.00025  -0.00075   0.00027  -0.00049   2.09004
    R3        2.09052  -0.00025  -0.00075   0.00027  -0.00049   2.09004
    A1        2.12951  -0.00002  -0.00077   0.00068  -0.00009   2.12941
    A2        2.12951  -0.00002  -0.00077   0.00068  -0.00009   2.12941
    A3        2.02417   0.00004   0.00154  -0.00135   0.00019   2.02436
    D1        3.14159   0.00000   0.00000   0.00000   0.00000   3.14159
         Item               Value     Threshold  Converged?
 Maximum Force            0.001337     0.000450     NO 
 RMS     Force            0.000523     0.000300     NO 
 Maximum Displacement     0.001313     0.001800     YES
 RMS     Displacement     0.000611     0.001200     YES
 Predicted change in Energy=-1.103535D-06
 GradGradGradGradGradGradGradGradGradGradGradGradGradGradGradGradGradGrad

                          Input orientation:                          
 ---------------------------------------------------------------------
 Center     Atomic      Atomic             Coordinates (Angstroms)
 Number     Number       Type             X           Y           Z
 ---------------------------------------------------------------------
      1          6           0       -0.000000   -0.000000    0.068325
      2          8           0        0.000000    0.000000    1.267417
      3          1           0        0.937875   -0.000000   -0.517871
      4          1           0       -0.937875    0.000000   -0.517871
 ---------------------------------------------------------------------
                    Distance matrix (angstroms):
                    1          2          3          4
     1  C    0.000000
     2  O    1.199092   0.000000
     3  H    1.106000   2.016647   0.000000
     4  H    1.106000   2.016647   1.875749   0.000000
 Stoichiometry    CH2O
 Framework group  C2V[C2(CO),SGV(H2)]
 Deg. of freedom     3
 Full point group                 C2V     NOp   4
 Largest Abelian subgroup         C2V     NOp   4
 Largest concise Abelian subgroup C2      NOp   2
                         Standard orientation:                         
 ---------------------------------------------------------------------
 Center     Atomic      Atomic             Coordinates (Angstroms)
 Number     Number       Type             X           Y           Z
 ---------------------------------------------------------------------
      1          6           0       -0.000000   -0.000000   -0.526271
      2          8           0        0.000000    0.000000    0.672821
      3          1           0        0.000000    0.937875   -1.112468
      4          1           0       -0.000000   -0.937875   -1.112468
 ---------------------------------------------------------------------
 Rotational constants (GHZ):         285.0443215          39.1860991          34.4501142
 Basis read from rwf:  (5D, 7F)
 There are    43 symmetry adapted cartesian basis functions of A1  symmetry.
 There are    10 symmetry adapted cartesian basis functions of A2  symmetry.
 There are    20 symmetry adapted cartesian basis functions of B1  symmetry.
 There are    27 symmetry adapted cartesian basis functions of B2  symmetry.
 There are    36 symmetry adapted basis functions of A1  symmetry.
 There are    10 symmetry adapted basis functions of A2  symmetry.
 There are    18 symmetry adapted basis functions of B1  symmetry.
 There are    24 symmetry adapted basis functions of B2  symmetry.
    88 basis functions,   138 primitive gaussians,   100 cartesian basis functions
     8 alpha electrons        8 beta electrons
       nuclear repulsion energy        31.4052326213 Hartrees.
 NAtoms=    4 NActive=    4 NUniq=    3 SFac= 1.78D+00 NAtFMM=   60 NAOKFM=F Big=F
 Integral buffers will be    131072 words long.
 Raffenetti 2 integral format.
 Two-electron integral symmetry is turned on.
 One-electron integrals computed using PRISM.
 NBasis=    88 RedAO= T EigKep=  1.89D-03  NBF=    36    10    18    24
 NBsUse=    88 1.00D-06 EigRej= -1.00D+00 NBFU=    36    10    18    24
 Initial guess from the checkpoint file:  "/wrk/irikura/Gau-15298.chk"
 B after Tr=     0.000000   -0.000000   -0.000000
         Rot=    1.000000    0.000000   -0.000000    0.000000 Ang=   0.00 deg.
 Initial guess orbital symmetries:
       Occupied  (A1) (A1) (A1) (A1) (B2) (A1) (B1) (B2)
       Virtual   (B1) (A1) (B2) (A1) (B1) (A1) (B2) (A1) (A1) (B2)
                 (B1) (A1) (B2) (A2) (A1) (B1) (B2) (A1) (A1) (B2)
                 (A1) (B1) (A2) (B2) (B1) (A1) (A1) (B2) (A1) (A2)
                 (B1) (B2) (A1) (A1) (B1) (A1) (B2) (B2) (A1) (A2)
                 (B1) (B2) (B2) (A1) (B1) (A1) (A2) (B2) (A1) (B1)
                 (A2) (B1) (B2) (A1) (A2) (B2) (B1) (A1) (A1) (B1)
                 (B2) (A1) (A2) (A1) (B2) (B1) (A1) (B2) (A1) (A2)
                 (B1) (B2) (A1) (A2) (A1) (A1) (B1) (B2) (B2) (A1)
 Keep R1 ints in memory in symmetry-blocked form, NReq=9657699.
 Requested convergence on RMS density matrix=1.00D-08 within 128 cycles.
 Requested convergence on MAX density matrix=1.00D-06.
 Requested convergence on             energy=1.00D-06.
 No special actions if energy rises.
 SCF Done:  E(RB3LYP) =  -114.554613510     A.U. after    6 cycles
            NFock=  6  Conv=0.92D-08     -V/T= 2.0032
 Calling FoFJK, ICntrl=      2127 FMM=F ISym2X=1 I1Cent= 0 IOpClX= 0 NMat=1 NMatS=1 NMatT=0.
 ***** Axes restored to original set *****
 -------------------------------------------------------------------
 Center     Atomic                   Forces (Hartrees/Bohr)
 Number     Number              X              Y              Z
 -------------------------------------------------------------------
      1        6          -0.000000000    0.000000000   -0.000009975
      2        8           0.000000000    0.000000000   -0.000002886
      3        1          -0.000044595   -0.000000000    0.000006430
      4        1           0.000044595   -0.000000000    0.000006430
 -------------------------------------------------------------------
 Cartesian Forces:  Max     0.000044595 RMS     0.000018637

 GradGradGradGradGradGradGradGradGradGradGradGradGradGradGradGradGradGrad
 Berny optimization.
 Using GEDIIS/GDIIS optimizer.
 FormGI is forming the generalized inverse of G from B-inverse, IUseBI=4.
 Internal  Forces:  Max     0.000041224 RMS     0.000024986
 Search for a local minimum.
 Step number   5 out of a maximum of   20
 All quantities printed in internal units (Hartrees-Bohrs-Radians)
 Mixed Optimization -- En-DIIS/RFO-DIIS
 Swapping is turned off.
 Update second derivatives using D2CorX and points    1    2    3    4    5
 DE= -1.13D-06 DEPred=-1.10D-06 R= 1.02D+00
 TightC=F SS=  1.41D+00  RLast= 1.64D-03 DXNew= 8.4853D-01 4.9144D-03
 Trust test= 1.02D+00 RLast= 1.64D-03 DXMaxT set to 5.05D-01
 The second derivative matrix:
                          R1        R2        R3        A1        A2
           R1           0.88215
           R2           0.02446   0.42175
           R3           0.02446  -0.05513   0.42175
           A1           0.02539  -0.01731  -0.01731   0.15945
           A2           0.02539  -0.01731  -0.01731  -0.00055   0.15945
           A3          -0.05079   0.03461   0.03461   0.00109   0.00109
           D1          -0.00000   0.00000   0.00000   0.00000   0.00000
                          A3        D1
           A3           0.15781
           D1          -0.00000   0.01425
 ITU=  1  1  1  1  0
     Eigenvalues ---    0.01425   0.13442   0.16000   0.38195   0.47688
     Eigenvalues ---    0.88912
 En-DIIS/RFO-DIIS/Sim-DIIS IScMMF=       -3 using points:     5    4
 RFO step:  Lambda=-1.12088768D-08.
 DidBck=F Rises=F RFO-DIIS coefs:    1.02617   -0.02617
 Iteration  1 RMS(Cart)=  0.00008182 RMS(Int)=  0.00000000
 Iteration  2 RMS(Cart)=  0.00000000 RMS(Int)=  0.00000000
 ClnCor:  largest displacement from symmetrization is 1.03D-11 for atom     1.
 Variable       Old X    -DE/DX   Delta X   Delta X   Delta X     New X
                                 (Linear)    (Quad)   (Total)
    R1        2.26596  -0.00000  -0.00004   0.00003  -0.00001   2.26595
    R2        2.09004  -0.00004  -0.00001  -0.00008  -0.00009   2.08994
    R3        2.09004  -0.00004  -0.00001  -0.00008  -0.00009   2.08994
    A1        2.12941   0.00001  -0.00000   0.00006   0.00006   2.12948
    A2        2.12941   0.00001  -0.00000   0.00006   0.00006   2.12948
    A3        2.02436  -0.00003   0.00000  -0.00013  -0.00012   2.02423
    D1        3.14159   0.00000   0.00000   0.00000   0.00000   3.14159
         Item               Value     Threshold  Converged?
 Maximum Force            0.000041     0.000450     YES
 RMS     Force            0.000025     0.000300     YES
 Maximum Displacement     0.000148     0.001800     YES
 RMS     Displacement     0.000082     0.001200     YES
 Predicted change in Energy=-6.239719D-09
 Optimization completed.
    -- Stationary point found.
                           ----------------------------
                           !   Optimized Parameters   !
                           ! (Angstroms and Degrees)  !
 --------------------------                            --------------------------
 ! Name  Definition              Value          Derivative Info.                !
 --------------------------------------------------------------------------------
 ! R1    R(1,2)                  1.1991         -DE/DX =    0.0                 !
 ! R2    R(1,3)                  1.106          -DE/DX =    0.0                 !
 ! R3    R(1,4)                  1.106          -DE/DX =    0.0                 !
 ! A1    A(2,1,3)              122.0065         -DE/DX =    0.0                 !
 ! A2    A(2,1,4)              122.0065         -DE/DX =    0.0                 !
 ! A3    A(3,1,4)              115.987          -DE/DX =    0.0                 !
 ! D1    D(2,1,4,3)            180.0            -DE/DX =    0.0                 !
 --------------------------------------------------------------------------------
 GradGradGradGradGradGradGradGradGradGradGradGradGradGradGradGradGradGrad

                          Input orientation:                          
 ---------------------------------------------------------------------
 Center     Atomic      Atomic             Coordinates (Angstroms)
 Number     Number       Type             X           Y           Z
 ---------------------------------------------------------------------
      1          6           0        0.000000   -0.000000    0.068325
      2          8           0       -0.000000    0.000000    1.267417
      3          1           0        0.937875   -0.000000   -0.517871
      4          1           0       -0.937875    0.000000   -0.517871
 ---------------------------------------------------------------------
                    Distance matrix (angstroms):
                    1          2          3          4
     1  C    0.000000
     2  O    1.199092   0.000000
     3  H    1.106000   2.016647   0.000000
     4  H    1.106000   2.016647   1.875749   0.000000
 Stoichiometry    CH2O
 Framework group  C2V[C2(CO),SGV(H2)]
 Deg. of freedom     3
 Full point group                 C2V     NOp   4
 Largest Abelian subgroup         C2V     NOp   4
 Largest concise Abelian subgroup C2      NOp   2
                         Standard orientation:                         
 ---------------------------------------------------------------------
 Center     Atomic      Atomic             Coordinates (Angstroms)
 Number     Number       Type             X           Y           Z
 ---------------------------------------------------------------------
      1          6           0       -0.000000    0.000000   -0.526271
      2          8           0        0.000000   -0.000000    0.672821
      3          1           0        0.000000    0.937875   -1.112468
      4          1           0       -0.000000   -0.937875   -1.112468
 ---------------------------------------------------------------------
 Rotational constants (GHZ):         285.0443215          39.1860991          34.4501142

 **********************************************************************

            Population analysis using the SCF Density.

 **********************************************************************

 Orbital symmetries:
       Occupied  (A1) (A1) (A1) (A1) (B2) (A1) (B1) (B2)
       Virtual   (B1) (A1) (B2) (A1) (B1) (A1) (B2) (A1) (A1) (B2)
                 (B1) (A1) (B2) (A2) (A1) (B1) (B2) (A1) (A1) (B2)
                 (A1) (B1) (A2) (B2) (B1) (A1) (A1) (B2) (A1) (A2)
                 (B1) (B2) (A1) (A1) (B1) (A1) (B2) (B2) (A1) (A2)
                 (B1) (B2) (B2) (A1) (B1) (A1) (A2) (B2) (A1) (B1)
                 (A2) (B1) (B2) (A1) (A2) (B2) (B1) (A1) (A1) (B1)
                 (B2) (A1) (A2) (A1) (B2) (B1) (A1) (B2) (A1) (A2)
                 (B1) (B2) (A1) (A2) (A1) (A1) (B1) (B2) (B2) (A1)
 The electronic state is 1-A1.
 Alpha  occ. eigenvalues --  -19.14785 -10.27741  -1.07327  -0.64338  -0.50679
 Alpha  occ. eigenvalues --   -0.46321  -0.41360  -0.28090
 Alpha virt. eigenvalues --   -0.06112   0.01863   0.06679   0.09112   0.16368
 Alpha virt. eigenvalues --    0.20441   0.23224   0.31057   0.33171   0.33464
 Alpha virt. eigenvalues --    0.41492   0.46970   0.50143   0.63592   0.69098
 Alpha virt. eigenvalues --    0.86329   0.90316   0.92588   0.98562   1.00653
 Alpha virt. eigenvalues --    1.14579   1.18440   1.18565   1.25948   1.26763
 Alpha virt. eigenvalues --    1.40307   1.54283   1.59578   1.69288   1.69419
 Alpha virt. eigenvalues --    1.94970   1.97192   1.98223   2.04823   2.38288
 Alpha virt. eigenvalues --    2.41530   2.41780   2.67319   2.90749   3.14466
 Alpha virt. eigenvalues --    3.17656   3.32958   3.52322   3.54146   3.58539
 Alpha virt. eigenvalues --    3.64677   3.78010   3.90717   3.91663   3.97253
 Alpha virt. eigenvalues --    3.98949   4.02941   4.11364   4.11550   4.23363
 Alpha virt. eigenvalues --    4.26543   4.29750   4.32321   4.32923   4.49697
 Alpha virt. eigenvalues --    4.52035   4.56954   4.69583   4.70730   4.94972
 Alpha virt. eigenvalues --    5.08439   5.36616   5.41066   5.49849   5.58477
 Alpha virt. eigenvalues --    5.62154   5.78935   5.84731   6.08317   6.12028
 Alpha virt. eigenvalues --    6.15174   6.42637   6.51541   6.78328   7.13552
          Condensed to atoms (all electrons):
               1          2          3          4
     1  C    4.364903   0.568769   0.385316   0.385316
     2  O    0.568769   7.905830  -0.072345  -0.072345
     3  H    0.385316  -0.072345   0.797101  -0.127179
     4  H    0.385316  -0.072345  -0.127179   0.797101
 Mulliken charges:
               1
     1  C    0.295696
     2  O   -0.329909
     3  H    0.017106
     4  H    0.017106
 Sum of Mulliken charges =   0.00000
 Mulliken charges with hydrogens summed into heavy atoms:
               1
     1  C    0.329909
     2  O   -0.329909
 Electronic spatial extent (au):  <R**2>=             60.6060
 Charge=              0.0000 electrons
 Dipole moment (field-independent basis, Debye):
    X=              0.0000    Y=             -0.0000    Z=             -2.3960  Tot=              2.3960
 Quadrupole moment (field-independent basis, Debye-Ang):
   XX=            -11.7092   YY=            -11.7046   ZZ=            -12.3881
   XY=              0.0000   XZ=              0.0000   YZ=              0.0000
 Traceless Quadrupole moment (field-independent basis, Debye-Ang):
   XX=              0.2248   YY=              0.2294   ZZ=             -0.4542
   XY=              0.0000   XZ=              0.0000   YZ=              0.0000
 Octapole moment (field-independent basis, Debye-Ang**2):
  XXX=              0.0000  YYY=              0.0000  ZZZ=              0.5723  XYY=              0.0000
  XXY=              0.0000  XXZ=              0.6594  XZZ=              0.0000  YZZ=             -0.0000
  YYZ=             -0.3782  XYZ=             -0.0000
 Hexadecapole moment (field-independent basis, Debye-Ang**3):
 XXXX=            -10.6500 YYYY=            -19.2782 ZZZZ=            -46.7506 XXXY=             -0.0000
 XXXZ=             -0.0000 YYYX=             -0.0000 YYYZ=             -0.0000 ZZZX=             -0.0000
 ZZZY=             -0.0000 XXYY=             -5.2841 XXZZ=             -9.5099 YYZZ=            -10.7576
 XXYZ=              0.0000 YYXZ=             -0.0000 ZZXY=             -0.0000
 N-N= 3.140523262132D+01 E-N=-3.319369041210D+02  KE= 1.141889069322D+02
 Symmetry A1   KE= 1.036871079799D+02
 Symmetry A2   KE= 8.979886272867D-33
 Symmetry B1   KE= 3.703864735510D+00
 Symmetry B2   KE= 6.797934216874D+00
 B after Tr=    -0.000000   -0.000000   -0.013411
         Rot=    1.000000    0.000000   -0.000000   -0.000000 Ang=   0.00 deg.
 Atom   2 needs constant  BL=   1.3000000000 but is    1.1990918817
 Input z-matrix variables are not compatible with final structure.
 1\1\GINC-GAMBA\FOpt\RB3LYP\Gen\C1H2O1\IRIKURA\02-Feb-2022\0\\# b3lyp/g
 en opt freq\\CH2O, B3LYP/pcseg-2\\0,1\C,0.,0.,0.0683253306\O,0.,0.,1.2
 674172123\H,0.9378747282,0.,-0.5178712715\H,-0.9378747282,0.,-0.517871
 2715\\Version=ES64L-G16RevB.01\State=1-A1\HF=-114.5546135\RMSD=9.237e-
 09\RMSF=1.864e-05\Dipole=0.,0.,-0.942678\Quadrupole=0.1705507,0.1671,-
 0.3376507,0.,0.,0.\PG=C02V [C2(C1O1),SGV(H2)]\\@


 EXPERIMENTALISTS THINK SILICON IS REALLY FUN TO USE
     ITS PLACE IN NOVEL COMPOUNDS IS CERTAIN TO AMUSE
 THEY SIT ALL DAY IN LABORATORIES MAKING ALL THIS SLUDGE
     "LOADED WITH THE SILICON THEY SAY", TO ME IT LOOKS LIKE FUDGE.
 FOR HAPPY THOUGH THEY BE WITH CRUD, I'D LIKE TO KNOW A LITTLE
      ABOUT THE PI BONDS ON THE EDGE AND SIGMAS IN THE MIDDLE.

 SO LETS DERIVE A WAVEFUNCTION.....6-31G*
     USE AN OPTIMAL GEOMETRY AND SEE WHERE ELECTRONS ARE.
 BUT WHAT OF CORRELATION?  ASKS THE WIRY LITTLE SKEPTIC.
     WE'LL THROW IN PERTURBATION AS AN ELECTRON ANTISEPTIC.
 AND WHEN THE PROGRAM GIVES US ANSWERS IN THEM WE CAN TRUST
     SINCE NOBODY CAN MAKE THE STUFF, WE HAVE NO CHOICE, WE MUST.

 SO THEORY GUYS HAVE GOT IT MADE, IN ROOMS FREE OF POLLUTION.
     INSTEAD OF PROBLEMS WITH THE REFLUX, THEY HAVE ONLY SOLUTIONS.
 AND WHEN THE FEDS ANNOUNCE THE LIST OF CARCINOGENIC TERRORS,
     THE THEORISTS SIT SAFELY AT THEIR TERMINALS FIXING ERRORS.
 IN OTHER WORDS, EXPERIMENTALISTS WILL LIKELY DIE OF CANCER
     FROM WORKING HARD YET FRUITLESSLY...TILL THEORY GIVES THE ANSWER.
          -- THOMAS A. HOLME, 1983
 Job cpu time:       0 days  0 hours  0 minutes 28.2 seconds.
 Elapsed time:       0 days  0 hours  0 minutes 27.8 seconds.
 File lengths (MBytes):  RWF=     10 Int=      0 D2E=      0 Chk=      2 Scr=      1
 Normal termination of Gaussian 16 at Wed Feb  2 17:45:41 2022.
 Link1:  Proceeding to internal job step number  2.
 ------------------------------------------------------------------
 #N Geom=AllCheck Guess=TCheck SCRF=Check GenChk RB3LYP/ChkBas Freq
 ------------------------------------------------------------------
 1/10=4,29=7,30=1,38=1,40=1/1,3;
 2/12=2,40=1/2;
 3/5=7,6=2,11=2,14=-4,25=1,30=1,67=1,70=2,71=2,74=-5,82=7,116=1,140=1/1,2,3;
 4/5=101/1;
 5/5=2,38=6,98=1/2;
 8/6=4,10=90,11=11/1;
 11/6=1,8=1,9=11,15=111,16=1/1,2,10;
 10/6=1/2;
 6/7=2,8=2,9=2,10=2,28=1/1;
 7/8=1,10=1,25=1/1,2,3,16;
 1/10=4,30=1/3;
 99//99;
 Structure from the checkpoint file:  "/wrk/irikura/Gau-15298.chk"
 -------------------
 CH2O, B3LYP/pcseg-2
 -------------------
 Charge =  0 Multiplicity = 1
 Redundant internal coordinates found in file.  (old form).
 C,0,0.,0.,0.0683253306
 O,0,0.,0.,1.2674172123
 H,0,0.9378747282,0.,-0.5178712715
 H,0,-0.9378747282,0.,-0.5178712715
 Recover connectivity data from disk.

 GradGradGradGradGradGradGradGradGradGradGradGradGradGradGradGradGradGrad
 Berny optimization.
 Initialization pass.
                           ----------------------------
                           !    Initial Parameters    !
                           ! (Angstroms and Degrees)  !
 --------------------------                            --------------------------
 ! Name  Definition              Value          Derivative Info.                !
 --------------------------------------------------------------------------------
 ! R1    R(1,2)                  1.1991         calculate D2E/DX2 analytically  !
 ! R2    R(1,3)                  1.106          calculate D2E/DX2 analytically  !
 ! R3    R(1,4)                  1.106          calculate D2E/DX2 analytically  !
 ! A1    A(2,1,3)              122.0065         calculate D2E/DX2 analytically  !
 ! A2    A(2,1,4)              122.0065         calculate D2E/DX2 analytically  !
 ! A3    A(3,1,4)              115.987          calculate D2E/DX2 analytically  !
 ! D1    D(2,1,4,3)            180.0            calculate D2E/DX2 analytically  !
 --------------------------------------------------------------------------------
 Trust Radius=3.00D-01 FncErr=1.00D-07 GrdErr=1.00D-07 EigMax=2.50D+02 EigMin=1.00D-04
 Number of steps in this run=      2 maximum allowed number of steps=      2.
 GradGradGradGradGradGradGradGradGradGradGradGradGradGradGradGradGradGrad

                          Input orientation:                          
 ---------------------------------------------------------------------
 Center     Atomic      Atomic             Coordinates (Angstroms)
 Number     Number       Type             X           Y           Z
 ---------------------------------------------------------------------
      1          6           0        0.000000   -0.000000    0.068325
      2          8           0       -0.000000    0.000000    1.267417
      3          1           0        0.937875   -0.000000   -0.517871
      4          1           0       -0.937875    0.000000   -0.517871
 ---------------------------------------------------------------------
                    Distance matrix (angstroms):
                    1          2          3          4
     1  C    0.000000
     2  O    1.199092   0.000000
     3  H    1.106000   2.016647   0.000000
     4  H    1.106000   2.016647   1.875749   0.000000
 Stoichiometry    CH2O
 Framework group  C2V[C2(CO),SGV(H2)]
 Deg. of freedom     3
 Full point group                 C2V     NOp   4
 Largest Abelian subgroup         C2V     NOp   4
 Largest concise Abelian subgroup C2      NOp   2
                         Standard orientation:                         
 ---------------------------------------------------------------------
 Center     Atomic      Atomic             Coordinates (Angstroms)
[...]
 AX will form    12 AO Fock derivatives at one time.
     12 vectors produced by pass  1 Test12= 5.33D-15 8.33D-09 XBig12= 6.83D+00 9.74D-01.
     12 vectors produced by pass  2 Test12= 5.33D-15 8.33D-09 XBig12= 1.94D-01 1.65D-01.
     12 vectors produced by pass  3 Test12= 5.33D-15 8.33D-09 XBig12= 1.34D-03 1.54D-02.
     12 vectors produced by pass  4 Test12= 5.33D-15 8.33D-09 XBig12= 7.13D-06 8.34D-04.
      8 vectors produced by pass  5 Test12= 5.33D-15 8.33D-09 XBig12= 1.14D-08 4.20D-05.
      2 vectors produced by pass  6 Test12= 5.33D-15 8.33D-09 XBig12= 1.06D-11 1.03D-06.
      1 vectors produced by pass  7 Test12= 5.33D-15 8.33D-09 XBig12= 1.01D-14 2.49D-08.
 InvSVY:  IOpt=1 It=  1 EMax= 2.22D-16
 Solved reduced A of dimension    71 with    12 vectors.
 Isotropic polarizability for W=    0.000000       15.93 Bohr**3.
 End of Minotr F.D. properties file   721 does not exist.
 End of Minotr F.D. properties file   722 does not exist.
 End of Minotr F.D. properties file   788 does not exist.

 **********************************************************************

            Population analysis using the SCF Density.

 **********************************************************************

 Orbital symmetries:
       Occupied  (A1) (A1) (A1) (A1) (B2) (A1) (B1) (B2)
       Virtual   (B1) (A1) (B2) (A1) (B1) (A1) (B2) (A1) (A1) (B2)
                 (B1) (A1) (B2) (A2) (A1) (B1) (B2) (A1) (A1) (B2)
                 (A1) (B1) (A2) (B2) (B1) (A1) (A1) (B2) (A1) (A2)
                 (B1) (B2) (A1) (A1) (B1) (A1) (B2) (B2) (A1) (A2)
                 (B1) (B2) (B2) (A1) (B1) (A1) (A2) (B2) (A1) (B1)
                 (A2) (B1) (B2) (A1) (A2) (B2) (B1) (A1) (A1) (B1)
                 (B2) (A1) (A2) (A1) (B2) (B1) (A1) (B2) (A1) (A2)
                 (B1) (B2) (A1) (A2) (A1) (A1) (B1) (B2) (B2) (A1)
 The electronic state is 1-A1.
 Alpha  occ. eigenvalues --  -19.14785 -10.27741  -1.07327  -0.64338  -0.50679
 Alpha  occ. eigenvalues --   -0.46321  -0.41360  -0.28090
 Alpha virt. eigenvalues --   -0.06112   0.01863   0.06679   0.09112   0.16368
 Alpha virt. eigenvalues --    0.20441   0.23224   0.31057   0.33171   0.33464
 Alpha virt. eigenvalues --    0.41492   0.46970   0.50143   0.63592   0.69098
 Alpha virt. eigenvalues --    0.86329   0.90316   0.92588   0.98562   1.00653
 Alpha virt. eigenvalues --    1.14579   1.18440   1.18565   1.25948   1.26763
 Alpha virt. eigenvalues --    1.40307   1.54283   1.59578   1.69288   1.69419
 Alpha virt. eigenvalues --    1.94970   1.97192   1.98223   2.04823   2.38288
 Alpha virt. eigenvalues --    2.41530   2.41780   2.67319   2.90749   3.14466
 Alpha virt. eigenvalues --    3.17656   3.32958   3.52322   3.54146   3.58539
 Alpha virt. eigenvalues --    3.64677   3.78010   3.90717   3.91663   3.97253
 Alpha virt. eigenvalues --    3.98949   4.02941   4.11364   4.11550   4.23363
 Alpha virt. eigenvalues --    4.26543   4.29750   4.32321   4.32923   4.49697
 Alpha virt. eigenvalues --    4.52035   4.56954   4.69583   4.70730   4.94972
 Alpha virt. eigenvalues --    5.08439   5.36616   5.41066   5.49849   5.58477
 Alpha virt. eigenvalues --    5.62154   5.78935   5.84731   6.08317   6.12028
 Alpha virt. eigenvalues --    6.15174   6.42637   6.51541   6.78328   7.13552
          Condensed to atoms (all electrons):
               1          2          3          4
     1  C    4.364903   0.568769   0.385316   0.385316
     2  O    0.568769   7.905830  -0.072345  -0.072345
     3  H    0.385316  -0.072345   0.797101  -0.127179
     4  H    0.385316  -0.072345  -0.127179   0.797101
 Mulliken charges:
               1
     1  C    0.295697
     2  O   -0.329909
     3  H    0.017106
     4  H    0.017106
 Sum of Mulliken charges =  -0.00000
 Mulliken charges with hydrogens summed into heavy atoms:
               1
     1  C    0.329909
     2  O   -0.329909
 APT charges:
               1
     1  C    0.698835
     2  O   -0.583001
     3  H   -0.057917
     4  H   -0.057917
 Sum of APT charges =   0.00000
 APT charges with hydrogens summed into heavy atoms:
               1
     1  C    0.583001
     2  O   -0.583001
 Electronic spatial extent (au):  <R**2>=             60.6060
 Charge=             -0.0000 electrons
 Dipole moment (field-independent basis, Debye):
    X=              0.0000    Y=             -0.0000    Z=             -2.3960  Tot=              2.3960
 Quadrupole moment (field-independent basis, Debye-Ang):
   XX=            -11.7092   YY=            -11.7046   ZZ=            -12.3881
   XY=              0.0000   XZ=              0.0000   YZ=             -0.0000
 Traceless Quadrupole moment (field-independent basis, Debye-Ang):
   XX=              0.2248   YY=              0.2294   ZZ=             -0.4542
   XY=              0.0000   XZ=              0.0000   YZ=             -0.0000
 Octapole moment (field-independent basis, Debye-Ang**2):
  XXX=              0.0000  YYY=             -0.0000  ZZZ=              0.5723  XYY=              0.0000
  XXY=             -0.0000  XXZ=              0.6594  XZZ=              0.0000  YZZ=              0.0000
  YYZ=             -0.3782  XYZ=             -0.0000
 Hexadecapole moment (field-independent basis, Debye-Ang**3):
 XXXX=            -10.6500 YYYY=            -19.2782 ZZZZ=            -46.7506 XXXY=             -0.0000
 XXXZ=             -0.0000 YYYX=             -0.0000 YYYZ=              0.0000 ZZZX=             -0.0000
 ZZZY=             -0.0000 XXYY=             -5.2841 XXZZ=             -9.5099 YYZZ=            -10.7576
 XXYZ=              0.0000 YYXZ=             -0.0000 ZZXY=             -0.0000
 N-N= 3.140523262132D+01 E-N=-3.319369056655D+02  KE= 1.141889075669D+02
 Symmetry A1   KE= 1.036871082173D+02
 Symmetry A2   KE= 1.061754641831D-32
 Symmetry B1   KE= 3.703865040885D+00
 Symmetry B2   KE= 6.797934308718D+00
  Exact polarizability:  10.225  -0.000  15.959  -0.000  -0.000  21.598
 Approx polarizability:  13.563   0.000  19.080   0.000  -0.000  33.137
 Calling FoFJK, ICntrl=    100127 FMM=F ISym2X=1 I1Cent= 0 IOpClX= 0 NMat=1 NMatS=1 NMatT=0.
 Full mass-weighted force constant matrix:
 Low frequencies ---   -0.0008   -0.0004    0.0010    2.9681    9.8311   28.2437
 Low frequencies --- 1204.5431 1267.6102 1534.4622
 Diagonal vibrational polarizability:
        0.0683649       0.6194898       1.3008607
 Harmonic frequencies (cm**-1), IR intensities (KM/Mole), Raman scattering
 activities (A**4/AMU), depolarization ratios for plane and unpolarized
 incident light, reduced masses (AMU), force constants (mDyne/A),
 and normal coordinates:
                      1                      2                      3
                     B1                     B2                     A1
 Frequencies --   1204.5431              1267.6102              1534.4622
 Red. masses --      1.3681                 1.3439                 1.1088
 Frc consts  --      1.1695                 1.2723                 1.5383
 IR Inten    --      3.6859                12.1060                10.2564
  Atom  AN      X      Y      Z        X      Y      Z        X      Y      Z
     1   6    -0.17   0.00  -0.00    -0.00  -0.15  -0.00    -0.00   0.00   0.01
     2   8     0.04  -0.00   0.00     0.00   0.08   0.00     0.00  -0.00  -0.08
     3   1     0.70  -0.00  -0.00     0.00   0.25   0.65     0.00   0.35   0.61
     4   1     0.70  -0.00   0.00     0.00   0.25  -0.65     0.00  -0.35   0.61
                      4                      5                      6
                     A1                     A1                     B2
 Frequencies --   1816.3046              2885.5422              2942.5406
 Red. masses --      7.3607                 1.0424                 1.1207
 Frc consts  --     14.3070                 5.1136                 5.7172
 IR Inten    --    117.4686                69.7359               134.0838
  Atom  AN      X      Y      Z        X      Y      Z        X      Y      Z
     1   6    -0.00  -0.00   0.59    -0.00   0.00   0.06     0.00  -0.10   0.00
     2   8     0.00   0.00  -0.41     0.00   0.00   0.00    -0.00   0.00  -0.00
     3   1     0.00  -0.44  -0.23     0.00   0.61  -0.35    -0.00   0.60  -0.37
     4   1     0.00   0.44  -0.23     0.00  -0.61  -0.35    -0.00   0.60   0.37

 -------------------
 - Thermochemistry -
 -------------------
 Temperature   298.150 Kelvin.  Pressure   1.00000 Atm.
 Atom     1 has atomic number  6 and mass  12.00000
 Atom     2 has atomic number  8 and mass  15.99491
 Atom     3 has atomic number  1 and mass   1.00783
 Atom     4 has atomic number  1 and mass   1.00783
 Molecular mass:    30.01056 amu.
 Principal axes and moments of inertia in atomic units:
                           1         2         3
     Eigenvalues --     6.33144  46.05565  52.38709
           X            0.00000   0.00000   1.00000
           Y            0.00000   1.00000   0.00000
           Z            1.00000   0.00000   0.00000
 This molecule is an asymmetric top.
 Rotational symmetry number  2.
 Rotational temperatures (Kelvin)     13.67997     1.88064     1.65334
 Rotational constants (GHZ):         285.04432    39.18610    34.45011
 Zero-point vibrational energy      69688.5 (Joules/Mol)
                                   16.65594 (Kcal/Mol)
 Vibrational temperatures:   1733.07  1823.81  2207.75  2613.26  4151.65
          (Kelvin)           4233.66
 
 Zero-point correction=                           0.026543 (Hartree/Particle)
 Thermal correction to Energy=                    0.029410
 Thermal correction to Enthalpy=                  0.030354
 Thermal correction to Gibbs Free Energy=         0.005546
 Sum of electronic and zero-point Energies=           -114.528071
 Sum of electronic and thermal Energies=              -114.525203
 Sum of electronic and thermal Enthalpies=            -114.524259
 Sum of electronic and thermal Free Energies=         -114.549067
 
                     E (Thermal)             CV                S
                      KCal/Mol        Cal/Mol-Kelvin    Cal/Mol-Kelvin
 Total                   18.455              6.419             52.213
 Electronic               0.000              0.000              0.000
 Translational            0.889              2.981             36.130
 Rotational               0.889              2.981             15.998
 Vibrational             16.678              0.457              0.085
                       Q            Log10(Q)             Ln(Q)
 Total Bot       0.281115D-02         -2.551116         -5.874162
 Total V=0       0.454755D+10          9.657777         22.237854
 Vib (Bot)       0.621868D-12        -12.206302        -28.106048
 Vib (V=0)       0.100599D+01          0.002592          0.005967
 Electronic      0.100000D+01          0.000000          0.000000
 Translational   0.646197D+07          6.810365         15.681445
 Rotational      0.699553D+03          2.844820          6.550441
 ***** Axes restored to original set *****
 -------------------------------------------------------------------
 Center     Atomic                   Forces (Hartrees/Bohr)
 Number     Number              X              Y              Z
 -------------------------------------------------------------------
      1        6          -0.000000000    0.000000000   -0.000010052
      2        8          -0.000000000    0.000000000   -0.000002827
      3        1          -0.000044600   -0.000000000    0.000006440
      4        1           0.000044600   -0.000000000    0.000006440
 -------------------------------------------------------------------
 Cartesian Forces:  Max     0.000044600 RMS     0.000018642
 FormGI is forming the generalized inverse of G from B-inverse, IUseBI=4.

 GradGradGradGradGradGradGradGradGradGradGradGradGradGradGradGradGradGrad
 Berny optimization.
 Internal  Forces:  Max     0.000041234 RMS     0.000024988
 Search for a local minimum.
 Step number   1 out of a maximum of    2
 All quantities printed in internal units (Hartrees-Bohrs-Radians)
 Second derivative matrix not updated -- analytic derivatives used.
 The second derivative matrix:
                          R1        R2        R3        A1        A2
           R1           0.87749
           R2           0.03901   0.30172
           R3           0.03901   0.00621   0.30172
           A1           0.01861   0.00243  -0.01085   0.11527
           A2           0.01861  -0.01085   0.00243  -0.07279   0.11527
           A3          -0.03723   0.00843   0.00843  -0.04248  -0.04248
           D1          -0.00000  -0.00000   0.00000  -0.00000   0.00000
                          A3        D1
           A3           0.08496
           D1           0.00000   0.06961
 ITU=  0
     Eigenvalues ---    0.06961   0.12291   0.18645   0.29713   0.30462
     Eigenvalues ---    0.88534
 Angle between quadratic step and forces=  23.60 degrees.
 Linear search not attempted -- first point.
 Iteration  1 RMS(Cart)=  0.00011681 RMS(Int)=  0.00000001
 Iteration  2 RMS(Cart)=  0.00000001 RMS(Int)=  0.00000000
 ClnCor:  largest displacement from symmetrization is 1.51D-12 for atom     1.
 Variable       Old X    -DE/DX   Delta X   Delta X   Delta X     New X
                                 (Linear)    (Quad)   (Total)
    R1        2.26596  -0.00000   0.00000  -0.00000  -0.00000   2.26595
    R2        2.09004  -0.00004   0.00000  -0.00013  -0.00013   2.08991
    R3        2.09004  -0.00004   0.00000  -0.00013  -0.00013   2.08991
    A1        2.12941   0.00001   0.00000   0.00009   0.00009   2.12951
    A2        2.12941   0.00001   0.00000   0.00009   0.00009   2.12951
    A3        2.02436  -0.00003   0.00000  -0.00018  -0.00018   2.02417
    D1        3.14159   0.00000   0.00000   0.00000   0.00000   3.14159
         Item               Value     Threshold  Converged?
 Maximum Force            0.000041     0.000450     YES
 RMS     Force            0.000025     0.000300     YES
 Maximum Displacement     0.000208     0.001800     YES
 RMS     Displacement     0.000117     0.001200     YES
 Predicted change in Energy=-8.676808D-09
 Optimization completed.
    -- Stationary point found.
                           ----------------------------
                           !   Optimized Parameters   !
                           ! (Angstroms and Degrees)  !
 --------------------------                            --------------------------
 ! Name  Definition              Value          Derivative Info.                !
 --------------------------------------------------------------------------------
 ! R1    R(1,2)                  1.1991         -DE/DX =    0.0                 !
 ! R2    R(1,3)                  1.106          -DE/DX =    0.0                 !
 ! R3    R(1,4)                  1.106          -DE/DX =    0.0                 !
 ! A1    A(2,1,3)              122.0065         -DE/DX =    0.0                 !
 ! A2    A(2,1,4)              122.0065         -DE/DX =    0.0                 !
 ! A3    A(3,1,4)              115.987          -DE/DX =    0.0                 !
 ! D1    D(2,1,4,3)            180.0            -DE/DX =    0.0                 !
 --------------------------------------------------------------------------------
 GradGradGradGradGradGradGradGradGradGradGradGradGradGradGradGradGradGrad


 ----------------------------------------------------------------------

 Electric dipole moment (input orientation):
 (Debye = 10**-18 statcoulomb cm , SI units = C m)
                  (au)            (Debye)         (10**-30 SI)
   Tot        0.942678D+00      0.239605D+01      0.799236D+01
   x          0.000000D+00      0.000000D+00      0.000000D+00
   y          0.000000D+00      0.000000D+00      0.000000D+00
   z         -0.942678D+00     -0.239605D+01     -0.799236D+01

 Dipole polarizability, Alpha (input orientation).
 (esu units = cm**3 , SI units = C**2 m**2 J**-1)
 Alpha(0;0):
               (au)            (10**-24 esu)      (10**-40 SI)
   iso        0.159274D+02      0.236020D+01      0.262608D+01
   aniso      0.984944D+01      0.145954D+01      0.162395D+01
   xx         0.159590D+02      0.236488D+01      0.263128D+01
   yx         0.000000D+00      0.000000D+00      0.000000D+00
   yy         0.102252D+02      0.151521D+01      0.168590D+01
   zx         0.000000D+00      0.000000D+00      0.000000D+00
   zy         0.000000D+00      0.000000D+00      0.000000D+00
   zz         0.215982D+02      0.320052D+01      0.356106D+01

 ----------------------------------------------------------------------

 Dipole orientation:
     6          0.00000000          0.00000000         -0.12911616
     8         -0.00000000          0.00000000         -2.39507142
     1          1.77232638          0.00000000          0.97863487
     1         -1.77232638         -0.00000000          0.97863487

 Electric dipole moment (dipole orientation):
 (Debye = 10**-18 statcoulomb cm , SI units = C m)
                  (au)            (Debye)         (10**-30 SI)
   Tot        0.942678D+00      0.239605D+01      0.799236D+01
   x          0.000000D+00      0.000000D+00      0.000000D+00
   y          0.000000D+00      0.000000D+00      0.000000D+00
   z          0.942678D+00      0.239605D+01      0.799236D+01

 Dipole polarizability, Alpha (dipole orientation).
 (esu units = cm**3 , SI units = C**2 m**2 J**-1)
 Alpha(0;0):
               (au)            (10**-24 esu)      (10**-40 SI)
   iso        0.159274D+02      0.236020D+01      0.262608D+01
   aniso      0.984944D+01      0.145954D+01      0.162395D+01
   xx         0.159590D+02      0.236488D+01      0.263128D+01
   yx         0.000000D+00      0.000000D+00      0.000000D+00
   yy         0.102252D+02      0.151521D+01      0.168590D+01
   zx         0.000000D+00      0.000000D+00      0.000000D+00
   zy         0.000000D+00      0.000000D+00      0.000000D+00
   zz         0.215982D+02      0.320052D+01      0.356106D+01

 ----------------------------------------------------------------------
 1\1\GINC-GAMBA\Freq\RB3LYP\Gen\C1H2O1\IRIKURA\02-Feb-2022\0\\#N Geom=A
 llCheck Guess=TCheck SCRF=Check GenChk RB3LYP/ChkBas Freq\\CH2O, B3LYP
 /pcseg-2\\0,1\C,0.,0.,0.0683253306\O,0.,0.,1.2674172123\H,0.9378747282
 ,0.,-0.5178712715\H,-0.9378747282,0.,-0.5178712715\\Version=ES64L-G16R
 evB.01\State=1-A1\HF=-114.5546135\RMSD=1.151e-09\RMSF=1.864e-05\ZeroPo
 int=0.0265429\Thermal=0.0294103\Dipole=0.,0.,-0.9426785\DipoleDeriv=0.
 8416108,0.,0.,0.,0.1686078,0.,0.,0.,1.0862857,-0.4513517,0.,0.,0.,-0.3
 347821,0.,0.,0.,-0.9628704,-0.1951296,0.,0.139637,0.,0.0830872,0.,0.09
 93765,0.,-0.0617077,-0.1951296,0.,-0.139637,0.,0.0830872,0.,-0.0993765
 ,0.,-0.0617077\Polar=15.9589861,0.,10.2251618,0.,0.,21.5981818\Quadrup
 ole=0.1705505,0.1671,-0.3376505,0.,0.,0.\PG=C02V [C2(C1O1),SGV(H2)]\NI
 mag=0\\0.57531889,0.,0.17491664,0.,0.,0.98133666,-0.10540603,0.,0.,0.0
 7325384,0.,-0.05742602,0.,0.,0.01885460,0.,0.,-0.79082082,0.,0.,0.8774
 8946,-0.23495643,0.,0.07483805,0.01607610,0.,0.01892002,0.23788415,0.,
 -0.05874531,0.,0.,0.01928571,0.,0.,0.01974501,0.07946273,0.,-0.0952579
 2,0.03678114,0.,-0.04333432,-0.10500098,0.,0.12914974,-0.23495643,0.,-
 0.07483805,0.01607610,0.,-0.01892002,-0.01900382,0.,-0.01124290,0.2378
 8415,0.,-0.05874531,0.,0.,0.01928571,0.,0.,0.01971459,0.,0.,0.01974501
 ,-0.07946273,0.,-0.09525792,-0.03678114,0.,-0.04333432,0.01124290,0.,0
 .00944250,0.10500098,0.,0.12914974\\0.,0.,0.00001005,0.,0.,0.00000283,
 0.00004460,0.,-0.00000644,-0.00004460,0.,-0.00000644\\\@


 ALL MY ATTEMPTS TO ADAPT THE THEORETICAL FOUNDATIONS OF PHYSICS
 TO THESE NEW NOTIONS FAILED COMPLETELY. IT WAS AS IF THE GROUND HAD
 BEEN PULLED OUT FROM UNDER ONE WITH NO FIRM FOUNDATION TO BE SEEN ANYWHERE,
 UPON WHICH ONE COULD HAVE BUILT.  -- A.EINSTEIN
 Job cpu time:       0 days  0 hours  0 minutes 29.9 seconds.
 Elapsed time:       0 days  0 hours  0 minutes 29.7 seconds.
 File lengths (MBytes):  RWF=     10 Int=      0 D2E=      0 Chk=      2 Scr=      1
 Normal termination of Gaussian 16 at Wed Feb  2 17:46:11 2022.
