 Entering Gaussian System, Link 0=g16
 AtFile(1): pcseg2.gbs
            -H     0
            S   4   1.00
                  0.754732D+02           0.427821D-02
                  0.113575D+02           0.328672D-01
                  0.260081D+01           0.159578D+00
                  0.735503D+00           0.500000D+00
            S   1   1.00
                  0.231761D+00           1.0000000
            S   1   1.00
                  0.741675D-01           1.0000000
            P   1   1.00
                  0.160000D+01           1.0000000
            P   1   1.00
                  0.450000D+00           1.0000000
            D   1   1.00
                  0.125000D+01           1.0000000
            ****
            -C     0
            S   7   1.00
                  0.731999D+04           0.695369D-03
                  0.109818D+04           0.537138D-02
                  0.250014D+03           0.274734D-01
                  0.707586D+02           0.105078D+00
                  0.228595D+02           0.291262D+00
                  0.803936D+01           0.500000D+00
                  0.289309D+01           0.362224D+00
            S   2   1.00
                  0.521640D+01          -0.957844D-01
                  0.556124D+00           0.500000D+00
            S   1   1.00
                  0.228813D+00           1.0000000
            S   1   1.00
                  0.936338D-01           1.0000000
            P   4   1.00
                  0.339855D+02           0.818395D-02
                  0.772957D+01           0.586921D-01
                  0.224954D+01           0.222514D+00
                  0.767681D+00           0.500000D+00
            P   1   1.00
                  0.263283D+00           1.0000000
            P   1   1.00
                  0.848744D-01           1.0000000
            D   1   1.00
                  0.140000D+01           1.0000000
            D   1   1.00
                  0.450000D+00           1.0000000
            F   1   1.00
                  0.950000D+00           1.0000000
            ****
            -O     0
            S   7   1.00
                  0.135887D+05           0.665492D-03
                  0.203847D+04           0.514222D-02
                  0.464041D+03           0.263472D-01
                  0.131339D+03           0.101500D+00
                  0.425340D+02           0.285877D+00
                  0.150429D+02           0.500000D+00
                  0.546616D+01           0.368211D+00
            S   2   1.00
                  0.100915D+02          -0.100084D+00
                  0.110429D+01           0.500000D+00
            S   1   1.00
                  0.448082D+00           1.0000000
            S   1   1.00
                  0.175325D+00           1.0000000
            P   4   1.00
                  0.608220D+02           0.908253D-02
                  0.140332D+02           0.645878D-01
                  0.418244D+01           0.241502D+00
                  0.142490D+01           0.500000D+00
            P   1   1.00
                  0.478741D+00           1.0000000
            P   1   1.00
                  0.146257D+00           1.0000000
            D   1   1.00
                  0.220000D+01           1.0000000
            D   1   1.00
                  0.650000D+00           1.0000000
            F   1   1.00
                  0.110000D+01           1.0000000
            ****
            -N     0
            S   7   1.00
                  0.101643D+05           0.682757D-03
                  0.152481D+04           0.527488D-02
                  0.347119D+03           0.270037D-01
                  0.982389D+02           0.103673D+00
                  0.317799D+02           0.289575D+00
                  0.112240D+02           0.500000D+00
                  0.406611D+01           0.364621D+00
            S   2   1.00
                  0.747898D+01          -0.975681D-01
                  0.805040D+00           0.500000D+00
            S   1   1.00
                  0.324626D+00           1.0000000
            S   1   1.00
                  0.128132D+00           1.0000000
            P   4   1.00
                  0.482704D+02           0.829547D-02
                  0.110815D+02           0.596223D-01
                  0.326643D+01           0.227889D+00
                  0.111680D+01           0.500000D+00
            P   1   1.00
                  0.382049D+00           1.0000000
            P   1   1.00
                  0.121222D+00           1.0000000
            D   1   1.00
                  0.180000D+01           1.0000000
            D   1   1.00
                  0.550000D+00           1.0000000
            F   1   1.00
                  0.102000D+01           1.0000000
            ****
            -F     0
            S   7   1.00
                  0.174507D+05           0.655972D-03
                  0.261768D+04           0.506944D-02
                  0.595857D+03           0.259899D-01
                  0.168651D+03           0.100353D+00
                  0.546654D+02           0.284095D+00
                  0.193717D+02           0.500000D+00
                  0.706202D+01           0.370721D+00
            S   2   1.00
                  0.131197D+02          -0.101997D+00
                  0.145046D+01           0.500000D+00
            S   1   1.00
                  0.588255D+00           1.0000000
            S   1   1.00
                  0.227960D+00           1.0000000
            P   4   1.00
                  0.779407D+02           0.931135D-02
                  0.180425D+02           0.663964D-01
                  0.542342D+01           0.246386D+00
                  0.184876D+01           0.500000D+00
            P   1   1.00
                  0.617455D+00           1.0000000
            P   1   1.00
                  0.185496D+00           1.0000000
            D   1   1.00
                  0.280000D+01           1.0000000
            D   1   1.00
                  0.800000D+00           1.0000000
            F   1   1.00
                  0.120000D+01           1.0000000
            ****
            -Cl     0
            S   8   1.00
                  0.154272D+06           0.222473D-03
                  0.231232D+05           0.172590D-02
                  0.526257D+04           0.899286D-02
                  0.148995D+04           0.367724D-01
                  0.485417D+03           0.121446D+00
                  0.174634D+03           0.304148D+00
                  0.672393D+02           0.500000D+00
                  0.265780D+02           0.360252D+00
            S   3   1.00
                  0.131826D+03          -0.531330D-01
                  0.400703D+02          -0.233346D+00
                  0.789448D+01           0.500000D+00
            S   2   1.00
                  0.427711D+01           0.500000D+00
                  0.196233D+01           0.370517D+00
            S   1   1.00
                  0.520793D+00           1.0000000
            S   1   1.00
                  0.181633D+00           1.0000000
            P   7   1.00
                  0.124440D+04           0.988206D-03
                  0.295109D+03           0.829674D-02
                  0.947224D+02           0.430906D-01
                  0.352588D+02           0.148443D+00
                  0.144211D+02           0.344744D+00
                  0.610371D+01           0.500000D+00
                  0.258886D+01           0.348278D+00
            P   2   1.00
                  0.109447D+02          -0.196768D-01
                  0.104413D+01           0.500000D+00
            P   1   1.00
                  0.376184D+00           1.0000000
            P   1   1.00
                  0.120613D+00           1.0000000
            D   1   1.00
                  0.231000D+01           1.0000000
            D   1   1.00
                  0.520000D+00           1.0000000
            F   1   1.00
                  0.720000D+00           1.0000000
            ****
            -S     0
            S   8   1.00
                  0.134700D+06           0.226231D-03
                  0.201904D+05           0.175488D-02
                  0.459528D+04           0.914190D-02
                  0.130109D+04           0.373551D-01
                  0.423902D+03           0.123121D+00
                  0.152485D+03           0.306801D+00
                  0.586925D+02           0.500000D+00
                  0.231461D+02           0.354358D+00
            S   3   1.00
                  0.116327D+03          -0.491772D-01
                  0.352841D+02          -0.215962D+00
                  0.677831D+01           0.500000D+00
            S   2   1.00
                  0.360404D+01           0.500000D+00
                  0.164871D+01           0.366278D+00
            S   1   1.00
                  0.421821D+00           1.0000000
            S   1   1.00
                  0.147554D+00           1.0000000
            P   7   1.00
                  0.104863D+04           0.105273D-02
                  0.248717D+03           0.879338D-02
                  0.797887D+02           0.453358D-01
                  0.296023D+02           0.154476D+00
                  0.120627D+02           0.352366D+00
                  0.507628D+01           0.500000D+00
                  0.213375D+01           0.346429D+00
            P   2   1.00
                  0.928958D+01          -0.185932D-01
                  0.837819D+00           0.500000D+00
            P   1   1.00
                  0.301495D+00           1.0000000
            P   1   1.00
                  0.974740D-01           1.0000000
            D   1   1.00
                  0.210000D+01           1.0000000
            D   1   1.00
                  0.480000D+00           1.0000000
            F   1   1.00
                  0.660000D+00           1.0000000
            ****
            -Br     0
            S    10   1.00
                  0.233625D+07           0.532336D-04
                  0.349961D+06           0.413715D-03
                  0.796444D+05           0.217123D-02
                  0.225555D+05           0.910109D-02
                  0.735546D+04           0.323789D-01
                  0.265352D+04           0.988755D-01
                  0.103517D+04           0.248138D+00
                  0.422205D+03           0.474328D+00
                  0.180035D+03           0.500000D+00
                  0.793308D+02           0.187769D+00
            S    4   1.00
                  0.620834D+03          -0.226511D-01
                  0.190829D+03          -0.109497D+00
                  0.312505D+02           0.500000D+00
                  0.135270D+02           0.492812D+00
            S    2   1.00
                  0.216097D+02          -0.165418D+00
                  0.372566D+01           0.500000D+00
            S    1   1.00
                  0.169770D+01           1.0000000
            S    1   1.00
                  0.489332D+00           1.0000000
            S    1   1.00
                  0.175712D+00           1.0000000
            P    8   1.00
                  0.960829D+04           0.478974D-03
                  0.227618D+04           0.417853D-02
                  0.736723D+03           0.229315D-01
                  0.281579D+03           0.892653D-01
                  0.118395D+03           0.255288D+00
                  0.527481D+02           0.479074D+00
                  0.245098D+02           0.500000D+00
                  0.112009D+02           0.200944D+00
            P    4   1.00
                  0.587849D+02          -0.189674D-01
                  0.918962D+01           0.264104D+00
                  0.413895D+01           0.500000D+00
                  0.184225D+01           0.319316D+00
            P    1   1.00
                  0.713862D+00           1.0000000
            P    1   1.00
                  0.274232D+00           1.0000000
            P    1   1.00
                  0.944411D-01           1.0000000
            D    7   1.00
                  0.398470D+03           0.204066D-02
                  0.118967D+03           0.175171D-01
                  0.450197D+02           0.829708D-01
                  0.190320D+02           0.236284D+00
                  0.855686D+01           0.428468D+00
                  0.382950D+01           0.500000D+00
                  0.166291D+01           0.349360D+00
            D    1   1.00
                  0.672953D+00           1.0000000
            D    1   1.00
                  0.252000D+00           1.0000000
            F    1   1.00
                  0.530000D+00           1.0000000
            ****
            -Si     0
            S    8   1.00
                  0.996133D+05           0.235546D-03
                  0.149311D+05           0.182707D-02
                  0.339820D+04           0.951425D-02
                  0.962140D+03           0.388172D-01
                  0.313430D+03           0.127328D+00
                  0.112683D+03           0.313522D+00
                  0.433372D+02           0.500000D+00
                  0.170029D+02           0.340347D+00
            S    3   1.00
                  0.884208D+02          -0.404451D-01
                  0.266756D+02          -0.178059D+00
                  0.479640D+01           0.500000D+00
            S    2   1.00
                  0.239385D+01           0.500000D+00
                  0.108333D+01           0.338016D+00
            S    1   1.00
                  0.252420D+00           1.0000000
            S    1   1.00
                  0.891210D-01           1.0000000
            P    7   1.00
                  0.709901D+03           0.123028D-02
                  0.168426D+03           0.101366D-01
                  0.539946D+02           0.511840D-01
                  0.198646D+02           0.169967D+00
                  0.801369D+01           0.370717D+00
                  0.331870D+01           0.500000D+00
                  0.136112D+01           0.344128D+00
            P    2   1.00
                  0.622158D+01          -0.166609D-01
                  0.503049D+00           0.500000D+00
            P    1   1.00
                  0.179848D+00           1.0000000
            P    1   1.00
                  0.591912D-01           1.0000000
            D    1   1.00
                  0.168000D+01           1.0000000
            D    1   1.00
                  0.380000D+00           1.0000000
            F    1   1.00
                  0.540000D+00           1.0000000
            ****
            -P     0
            S    8   1.00
                  0.116416D+06           0.230715D-03
                  0.174500D+05           0.178960D-02
                  0.397149D+04           0.932116D-02
                  0.112447D+04           0.380591D-01
                  0.366347D+03           0.125148D+00
                  0.131757D+03           0.310022D+00
                  0.506988D+02           0.500000D+00
                  0.199436D+02           0.347528D+00
            S    3   1.00
                  0.101878D+03          -0.446755D-01
                  0.308249D+02          -0.196376D+00
                  0.573688D+01           0.500000D+00
            S    2   1.00
                  0.296868D+01           0.500000D+00
                  0.135315D+01           0.355098D+00
            S    1   1.00
                  0.332196D+00           1.0000000
            S    1   1.00
                  0.116229D+00           1.0000000
            P    7   1.00
                  0.873928D+03           0.112375D-02
                  0.207298D+03           0.933330D-02
                  0.664628D+02           0.477213D-01
                  0.245665D+02           0.160733D+00
                  0.996820D+01           0.359760D+00
                  0.416536D+01           0.500000D+00
                  0.173022D+01           0.346593D+00
            P    2   1.00
                  0.772530D+01          -0.175718D-01
                  0.657252D+00           0.500000D+00
            P    1   1.00
                  0.239903D+00           1.0000000
            P    1   1.00
                  0.800988D-01           1.0000000
            D    1   1.00
                  0.189000D+01           1.0000000
            D    1   1.00
                  0.430000D+00           1.0000000
            F    1   1.00
                  0.600000D+00           1.0000000
            ****
            
 Initial command:
 /usr/local/apps/g16_b01_avx/g16/l1.exe "/wrk/irikura/Gau-13126.inp" -scrdir="/wrk/irikura/"
 Entering Link 1 = /usr/local/apps/g16_b01_avx/g16/l1.exe PID=     13128.
  
 Copyright (c) 1988-2017, Gaussian, Inc.  All Rights Reserved.
  
 This is part of the Gaussian(R) 16 program.  It is based on
 the Gaussian(R) 09 system (copyright 2009, Gaussian, Inc.),
 the Gaussian(R) 03 system (copyright 2003, Gaussian, Inc.),
 the Gaussian(R) 98 system (copyright 1998, Gaussian, Inc.),
 the Gaussian(R) 94 system (copyright 1995, Gaussian, Inc.),
 the Gaussian 92(TM) system (copyright 1992, Gaussian, Inc.),
 the Gaussian 90(TM) system (copyright 1990, Gaussian, Inc.),
 the Gaussian 88(TM) system (copyright 1988, Gaussian, Inc.),
 the Gaussian 86(TM) system (copyright 1986, Carnegie Mellon
 University), and the Gaussian 82(TM) system (copyright 1983,
 Carnegie Mellon University). Gaussian is a federally registered
 trademark of Gaussian, Inc.
  
 This software contains proprietary and confidential information,
 including trade secrets, belonging to Gaussian, Inc.
  
 This software is provided under written license and may be
 used, copied, transmitted, or stored only in accord with that
 written license.
  
 The following legend is applicable only to US Government
 contracts under FAR:
  
                    RESTRICTED RIGHTS LEGEND
  
 Use, reproduction and disclosure by the US Government is
 subject to restrictions as set forth in subparagraphs (a)
 and (c) of the Commercial Computer Software - Restricted
 Rights clause in FAR 52.227-19.
  
 Gaussian, Inc.
 340 Quinnipiac St., Bldg. 40, Wallingford CT 06492
  
  
 ---------------------------------------------------------------
 Warning -- This program may not be used in any manner that
 competes with the business of Gaussian, Inc. or will provide
 assistance to any competitor of Gaussian, Inc.  The licensee
 of this program is prohibited from giving any competitor of
 Gaussian, Inc. access to this program.  By using this program,
 the user acknowledges that Gaussian, Inc. is engaged in the
 business of creating and licensing software in the field of
 computational chemistry and represents and warrants to the
 licensee that it is not a competitor of Gaussian, Inc. and that
 it will not use this program in any manner prohibited above.
 ---------------------------------------------------------------
  

 Cite this work as:
 Gaussian 16, Revision B.01,
 M. J. Frisch, G. W. Trucks, H. B. Schlegel, G. E. Scuseria, 
 M. A. Robb, J. R. Cheeseman, G. Scalmani, V. Barone, 
 G. A. Petersson, H. Nakatsuji, X. Li, M. Caricato, A. V. Marenich, 
 J. Bloino, B. G. Janesko, R. Gomperts, B. Mennucci, H. P. Hratchian, 
 J. V. Ortiz, A. F. Izmaylov, J. L. Sonnenberg, D. Williams-Young, 
 F. Ding, F. Lipparini, F. Egidi, J. Goings, B. Peng, A. Petrone, 
 T. Henderson, D. Ranasinghe, V. G. Zakrzewski, J. Gao, N. Rega, 
 G. Zheng, W. Liang, M. Hada, M. Ehara, K. Toyota, R. Fukuda, 
 J. Hasegawa, M. Ishida, T. Nakajima, Y. Honda, O. Kitao, H. Nakai, 
 T. Vreven, K. Throssell, J. A. Montgomery, Jr., J. E. Peralta, 
 F. Ogliaro, M. J. Bearpark, J. J. Heyd, E. N. Brothers, K. N. Kudin, 
 V. N. Staroverov, T. A. Keith, R. Kobayashi, J. Normand, 
 K. Raghavachari, A. P. Rendell, J. C. Burant, S. S. Iyengar, 
 J. Tomasi, M. Cossi, J. M. Millam, M. Klene, C. Adamo, R. Cammi, 
 J. W. Ochterski, R. L. Martin, K. Morokuma, O. Farkas, 
 J. B. Foresman, and D. J. Fox, Gaussian, Inc., Wallingford CT, 2016.
 
 ******************************************
 Gaussian 16:  ES64L-G16RevB.01 20-Dec-2017
                 8-Sep-2023 
 ******************************************
 %mem=500mw
 %nprocs=6
 Will use up to    6 processors via shared memory.
 -------------------------------
 # b3lyp/gen opt freq symm=loose
 -------------------------------
 1/18=20,19=15,26=3,38=1/1,3;
 2/9=110,12=2,17=4,18=3,40=1/2;
 3/5=7,11=2,25=1,30=1,71=1,74=-5/1,2,3;
 4//1;
 5/5=2,38=5/2;
 6/7=2,8=2,9=2,10=2,28=1/1;
 7//1,2,3,16;
 1/18=20,19=15,26=3/3(2);
 2/9=110/2;
 99//99;
 2/9=110/2;
 3/5=7,6=1,11=2,25=1,30=1,71=1,74=-5,82=7/1,2,3;
 4/5=5,16=3,69=1/1;
 5/5=2,38=5/2;
 7//1,2,3,16;
 1/18=20,19=15,26=3/3(-5);
 2/9=110/2;
 6/7=2,8=2,9=2,10=2,19=2,28=1/1;
 99/9=1/99;
 -------------------------
 ethanimine, B3LYP/pcseg-2
 -------------------------
 Symbolic Z-matrix:
 Charge =  0 Multiplicity = 1
 C                    -1.03016  -0.63938   0. 
 C                     0.        0.44953   0. 
 N                     1.24171   0.19172   0. 
 H                    -0.54386  -1.61518   0. 
 H                    -1.67896  -0.55889   0.87909 
 H                    -1.67896  -0.55889  -0.87909 
 H                    -0.39928   1.47578   0. 
 H                     1.79008   1.05425   0. 
 

 GradGradGradGradGradGradGradGradGradGradGradGradGradGradGradGradGradGrad
 Berny optimization.
 Initialization pass.
                           ----------------------------
                           !    Initial Parameters    !
                           ! (Angstroms and Degrees)  !
 --------------------------                            --------------------------
 ! Name  Definition              Value          Derivative Info.                !
 --------------------------------------------------------------------------------
 ! R1    R(1,2)                  1.499          estimate D2E/DX2                !
 ! R2    R(1,4)                  1.0903         estimate D2E/DX2                !
 ! R3    R(1,5)                  1.0955         estimate D2E/DX2                !
 ! R4    R(1,6)                  1.0955         estimate D2E/DX2                !
 ! R5    R(2,3)                  1.2682         estimate D2E/DX2                !
 ! R6    R(2,7)                  1.1012         estimate D2E/DX2                !
 ! R7    R(3,8)                  1.0221         estimate D2E/DX2                !
 ! A1    A(2,1,4)              110.0985         estimate D2E/DX2                !
 ! A2    A(2,1,5)              110.7091         estimate D2E/DX2                !
 ! A3    A(2,1,6)              110.7091         estimate D2E/DX2                !
 ! A4    A(4,1,5)              109.2632         estimate D2E/DX2                !
 ! A5    A(4,1,6)              109.2632         estimate D2E/DX2                !
 ! A6    A(5,1,6)              106.724          estimate D2E/DX2                !
 ! A7    A(1,2,3)              121.6821         estimate D2E/DX2                !
 ! A8    A(1,2,7)              115.3289         estimate D2E/DX2                !
 ! A9    A(3,2,7)              122.989          estimate D2E/DX2                !
 ! A10   A(2,3,8)              110.7171         estimate D2E/DX2                !
 ! D1    D(4,1,2,3)              0.0            estimate D2E/DX2                !
 ! D2    D(4,1,2,7)            180.0            estimate D2E/DX2                !
 ! D3    D(5,1,2,3)            120.9241         estimate D2E/DX2                !
 ! D4    D(5,1,2,7)            -59.0759         estimate D2E/DX2                !
 ! D5    D(6,1,2,3)           -120.9241         estimate D2E/DX2                !
 ! D6    D(6,1,2,7)             59.0759         estimate D2E/DX2                !
 ! D7    D(1,2,3,8)            180.0            estimate D2E/DX2                !
 ! D8    D(7,2,3,8)              0.0            estimate D2E/DX2                !
 --------------------------------------------------------------------------------
 Trust Radius=3.00D-01 FncErr=1.00D-07 GrdErr=1.00D-06 EigMax=2.50D+02 EigMin=1.00D-04
 Number of steps in this run=     35 maximum allowed number of steps=    100.
 GradGradGradGradGradGradGradGradGradGradGradGradGradGradGradGradGradGrad

                          Input orientation:                          
 ---------------------------------------------------------------------
 Center     Atomic      Atomic             Coordinates (Angstroms)
 Number     Number       Type             X           Y           Z
 ---------------------------------------------------------------------
      1          6           0       -1.030159   -0.639379    0.000000
      2          6           0        0.000000    0.449533    0.000000
      3          7           0        1.241705    0.191716    0.000000
      4          1           0       -0.543861   -1.615181    0.000000
      5          1           0       -1.678961   -0.558889    0.879091
      6          1           0       -1.678961   -0.558889   -0.879091
      7          1           0       -0.399275    1.475777    0.000000
      8          1           0        1.790075    1.054249    0.000000
 ---------------------------------------------------------------------
                    Distance matrix (angstroms):
                    1          2          3          4          5
     1  C    0.000000
     2  C    1.498985   0.000000
     3  N    2.419108   1.268188   0.000000
     4  H    1.090264   2.135141   2.540300   0.000000
     5  H    1.095547   2.146771   3.141098   1.782416   0.000000
     6  H    1.095547   2.146771   3.141098   1.782416   1.758182
     7  H    2.207238   1.101180   2.083657   3.094338   2.559348
     8  H    3.289695   1.889458   1.022092   3.545859   3.925459
                    6          7          8
     6  H    0.000000
     7  H    2.559348   0.000000
     8  H    3.925459   2.229560   0.000000
 Stoichiometry    C2H5N
 Framework group  CS[SG(C2H3N),X(H2)]
 Deg. of freedom    12
 Full point group                 CS      NOp   2
 Largest Abelian subgroup         CS      NOp   2
 Largest concise Abelian subgroup CS      NOp   2
                         Standard orientation:                         
 ---------------------------------------------------------------------
 Center     Atomic      Atomic             Coordinates (Angstroms)
 Number     Number       Type             X           Y           Z
 ---------------------------------------------------------------------
      1          6           0       -1.030159   -0.639379    0.000000
      2          6           0        0.000000    0.449533    0.000000
      3          7           0        1.241705    0.191716    0.000000
      4          1           0       -0.543861   -1.615181    0.000000
      5          1           0       -1.678961   -0.558889    0.879091
      6          1           0       -1.678961   -0.558889   -0.879091
      7          1           0       -0.399275    1.475777    0.000000
      8          1           0        1.790075    1.054249    0.000000
 ---------------------------------------------------------------------
 Rotational constants (GHZ):          53.7090274           9.7800054           8.7181064
 General basis read from cards:  (5D, 7F)
 There are   120 symmetry adapted cartesian basis functions of A'  symmetry.
 There are    60 symmetry adapted cartesian basis functions of A"  symmetry.
 There are   104 symmetry adapted basis functions of A'  symmetry.
 There are    56 symmetry adapted basis functions of A"  symmetry.
   160 basis functions,   243 primitive gaussians,   180 cartesian basis functions
    12 alpha electrons       12 beta electrons
       nuclear repulsion energy        70.8967478435 Hartrees.
 NAtoms=    8 NActive=    8 NUniq=    7 SFac= 1.31D+00 NAtFMM=   60 NAOKFM=F Big=F
 Integral buffers will be    131072 words long.
 Raffenetti 2 integral format.
 Two-electron integral symmetry is turned on.
 One-electron integrals computed using PRISM.
 NBasis=   160 RedAO= T EigKep=  5.47D-04  NBF=   104    56
 NBsUse=   160 1.00D-06 EigRej= -1.00D+00 NBFU=   104    56
 ExpMin= 7.42D-02 ExpMax= 1.02D+04 ExpMxC= 3.47D+02 IAcc=3 IRadAn=         5 AccDes= 0.00D+00
 Harris functional with IExCor=  402 and IRadAn=       5 diagonalized for initial guess.
 HarFok:  IExCor=  402 AccDes= 0.00D+00 IRadAn=         5 IDoV= 1 UseB2=F ITyADJ=14
 ICtDFT=  3500011 ScaDFX=  1.000000  1.000000  1.000000  1.000000
 FoFCou: FMM=F IPFlag=           0 FMFlag=      100000 FMFlg1=           0
         NFxFlg=           0 DoJE=T BraDBF=F KetDBF=T FulRan=T
         wScrn=  0.000000 ICntrl=       500 IOpCl=  0 I1Cent=   200000004 NGrid=           0
         NMat0=    1 NMatS0=      1 NMatT0=    0 NMatD0=    1 NMtDS0=    0 NMtDT0=    0
 Petite list used in FoFCou.
 Initial guess orbital symmetries:
       Occupied  (A') (A') (A') (A') (A') (A') (A') (A") (A') (A')
                 (A") (A')
       Virtual   (A") (A') (A') (A') (A") (A') (A') (A') (A") (A')
                 (A") (A') (A') (A') (A") (A') (A') (A') (A') (A")
                 (A') (A') (A') (A') (A') (A") (A") (A') (A") (A')
                 (A") (A') (A') (A") (A') (A') (A") (A') (A") (A')
                 (A") (A') (A') (A") (A') (A') (A') (A") (A') (A')
                 (A") (A') (A') (A") (A') (A') (A") (A') (A") (A')
                 (A') (A") (A') (A') (A') (A') (A') (A") (A') (A')
                 (A') (A") (A') (A") (A") (A') (A') (A") (A") (A')
                 (A") (A') (A') (A") (A') (A') (A") (A') (A") (A")
                 (A') (A") (A') (A') (A") (A') (A") (A') (A') (A")
                 (A') (A') (A") (A") (A') (A") (A') (A') (A") (A')
                 (A") (A") (A') (A') (A") (A') (A') (A') (A") (A')
                 (A') (A") (A") (A') (A") (A') (A") (A') (A') (A")
                 (A') (A') (A') (A") (A') (A') (A") (A") (A') (A")
                 (A') (A') (A") (A') (A') (A') (A') (A')
 The electronic state of the initial guess is 1-A'.
 Keep R1 ints in memory in symmetry-blocked form, NReq=124842279.
 Requested convergence on RMS density matrix=1.00D-08 within 128 cycles.
 Requested convergence on MAX density matrix=1.00D-06.
 Requested convergence on             energy=1.00D-06.
 No special actions if energy rises.
 Integral accuracy reduced to 1.0D-05 until final iterations.
 Initial convergence to 1.0D-05 achieved.  Increase integral accuracy.
 SCF Done:  E(RB3LYP) =  -134.014228826     A.U. after   12 cycles
            NFock= 12  Conv=0.47D-08     -V/T= 2.0043

 **********************************************************************

            Population analysis using the SCF Density.

 **********************************************************************

 Orbital symmetries:
       Occupied  (A') (A') (A') (A') (A') (A') (A') (A") (A') (A')
                 (A") (A')
       Virtual   (A") (A') (A') (A') (A") (A') (A') (A') (A") (A")
                 (A') (A') (A') (A') (A') (A') (A") (A') (A") (A')
                 (A') (A') (A') (A') (A') (A") (A") (A') (A") (A')
                 (A") (A') (A") (A') (A') (A') (A") (A') (A") (A')
                 (A") (A') (A') (A") (A') (A') (A') (A') (A") (A')
                 (A") (A') (A') (A") (A') (A') (A") (A') (A") (A')
                 (A') (A") (A') (A') (A') (A') (A') (A") (A') (A')
                 (A') (A") (A") (A') (A") (A') (A") (A') (A") (A')
                 (A") (A') (A') (A") (A') (A") (A') (A') (A") (A")
                 (A') (A") (A') (A') (A") (A') (A") (A') (A') (A")
                 (A') (A') (A") (A") (A') (A") (A') (A') (A") (A')
                 (A") (A") (A') (A') (A") (A') (A') (A') (A") (A')
                 (A') (A") (A") (A') (A') (A") (A") (A') (A') (A")
                 (A') (A') (A') (A") (A') (A") (A') (A") (A') (A")
                 (A') (A') (A") (A') (A') (A') (A') (A')
 The electronic state is 1-A'.
 Alpha  occ. eigenvalues --  -14.30387 -10.22468 -10.17410  -0.90905  -0.73818
 Alpha  occ. eigenvalues --   -0.57259  -0.51724  -0.43065  -0.40975  -0.39471
 Alpha  occ. eigenvalues --   -0.31891  -0.27227
 Alpha virt. eigenvalues --   -0.01407   0.01274   0.03701   0.06217   0.07058
 Alpha virt. eigenvalues --    0.09156   0.12823   0.16170   0.18121   0.19931
 Alpha virt. eigenvalues --    0.21237   0.21563   0.26771   0.29028   0.33226
 Alpha virt. eigenvalues --    0.34327   0.34359   0.36104   0.37285   0.37814
 Alpha virt. eigenvalues --    0.42847   0.43226   0.50017   0.52761   0.60180
 Alpha virt. eigenvalues --    0.63553   0.75212   0.79461   0.84697   0.86671
 Alpha virt. eigenvalues --    0.93779   0.95309   0.97145   0.97524   0.98510
 Alpha virt. eigenvalues --    1.01893   1.06696   1.08528   1.10379   1.11219
 Alpha virt. eigenvalues --    1.18560   1.18708   1.22445   1.30409   1.30454
 Alpha virt. eigenvalues --    1.38751   1.43395   1.46974   1.47590   1.52831
 Alpha virt. eigenvalues --    1.54790   1.64218   1.66317   1.67907   1.73788
 Alpha virt. eigenvalues --    1.75883   1.77863   1.81554   1.85866   1.89669
 Alpha virt. eigenvalues --    1.97508   2.06880   2.10362   2.14588   2.26384
 Alpha virt. eigenvalues --    2.35577   2.44584   2.53873   2.68710   2.98712
 Alpha virt. eigenvalues --    3.02303   3.03216   3.18202   3.18376   3.26735
 Alpha virt. eigenvalues --    3.30131   3.33767   3.35296   3.40037   3.47732
 Alpha virt. eigenvalues --    3.50547   3.51206   3.65347   3.70992   3.74048
 Alpha virt. eigenvalues --    3.76350   3.78835   3.81918   3.82445   3.84113
 Alpha virt. eigenvalues --    3.90877   4.02702   4.06123   4.09739   4.13900
 Alpha virt. eigenvalues --    4.16993   4.20360   4.22510   4.24666   4.26805
 Alpha virt. eigenvalues --    4.30454   4.34746   4.38364   4.38948   4.44279
 Alpha virt. eigenvalues --    4.45590   4.50951   4.53261   4.56236   4.57968
 Alpha virt. eigenvalues --    4.59388   4.61066   4.69299   4.71402   4.74140
 Alpha virt. eigenvalues --    4.77499   4.82671   4.89299   4.93790   4.96158
 Alpha virt. eigenvalues --    5.06005   5.12121   5.16971   5.20964   5.28750
 Alpha virt. eigenvalues --    5.28829   5.38477   5.39499   5.43776   5.50488
 Alpha virt. eigenvalues --    5.56779   5.63950   5.68673   5.71821   5.80403
 Alpha virt. eigenvalues --    5.82675   5.83074   5.84324   5.87117   5.87883
 Alpha virt. eigenvalues --    5.93401   6.09499   6.12587   6.19823   6.30761
 Alpha virt. eigenvalues --    6.51252   6.56895   6.73842
          Condensed to atoms (all electrons):
               1          2          3          4          5          6
     1  C    4.753153   0.248082  -0.122325   0.396868   0.411341   0.411341
     2  C    0.248082   4.707537   0.685776  -0.025824  -0.028455  -0.028455
     3  N   -0.122325   0.685776   6.419576   0.014737  -0.000569  -0.000569
     4  H    0.396868  -0.025824   0.014737   0.590159  -0.017557  -0.017557
     5  H    0.411341  -0.028455  -0.000569  -0.017557   0.634990  -0.032091
     6  H    0.411341  -0.028455  -0.000569  -0.017557  -0.032091   0.634990
     7  H   -0.123500   0.424251  -0.053888   0.013840  -0.000550  -0.000550
     8  H    0.030127  -0.051605   0.339368  -0.002380  -0.000703  -0.000703
               7          8
     1  C   -0.123500   0.030127
     2  C    0.424251  -0.051605
     3  N   -0.053888   0.339368
     4  H    0.013840  -0.002380
     5  H   -0.000550  -0.000703
     6  H   -0.000550  -0.000703
     7  H    0.788393  -0.043297
     8  H   -0.043297   0.620896
 Mulliken charges:
               1
     1  C   -0.005087
     2  C    0.068693
     3  N   -0.282106
     4  H    0.047714
     5  H    0.033594
     6  H    0.033594
     7  H   -0.004698
     8  H    0.108296
 Sum of Mulliken charges =  -0.00000
 Mulliken charges with hydrogens summed into heavy atoms:
               1
     1  C    0.109815
     2  C    0.063994
     3  N   -0.173810
 Electronic spatial extent (au):  <R**2>=            180.7022
 Charge=             -0.0000 electrons
 Dipole moment (field-independent basis, Debye):
    X=             -1.5526    Y=              1.3925    Z=             -0.0000  Tot=              2.0856
 Quadrupole moment (field-independent basis, Debye-Ang):
   XX=            -20.2356   YY=            -18.0470   ZZ=            -20.0914
   XY=              2.5860   XZ=              0.0000   YZ=              0.0000
 Traceless Quadrupole moment (field-independent basis, Debye-Ang):
   XX=             -0.7776   YY=              1.4110   ZZ=             -0.6334
   XY=              2.5860   XZ=              0.0000   YZ=              0.0000
 Octapole moment (field-independent basis, Debye-Ang**2):
  XXX=              0.4148  YYY=              2.5504  ZZZ=             -0.0000  XYY=              2.1541
  XXY=              5.2242  XXZ=             -0.0000  XZZ=             -1.1965  YZZ=              0.1636
  YYZ=             -0.0000  XYZ=             -0.0000
 Hexadecapole moment (field-independent basis, Debye-Ang**3):
 XXXX=           -147.4360 YYYY=            -66.4717 ZZZZ=            -28.6204 XXXY=            -12.7834
 XXXZ=              0.0000 YYYX=            -20.5613 YYYZ=             -0.0000 ZZZX=             -0.0000
 ZZZY=             -0.0000 XXYY=            -34.2009 XXZZ=            -28.4984 YYZZ=            -17.4794
 XXYZ=              0.0000 YYXZ=             -0.0000 ZZXY=             -7.0893
 N-N= 7.089674784348D+01 E-N=-4.533209101490D+02  KE= 1.334449445862D+02
 Symmetry A'   KE= 1.287190781204D+02
 Symmetry A"   KE= 4.725866465822D+00
 Calling FoFJK, ICntrl=      2127 FMM=F ISym2X=1 I1Cent= 0 IOpClX= 0 NMat=1 NMatS=1 NMatT=0.
 ***** Axes restored to original set *****
 -------------------------------------------------------------------
 Center     Atomic                   Forces (Hartrees/Bohr)
 Number     Number              X              Y              Z
 -------------------------------------------------------------------
      1        6           0.000508056   -0.000777624    0.000000000
      2        6          -0.002194222   -0.001377655    0.000000000
      3        7          -0.001360612    0.004622010    0.000000000
      4        1          -0.000858679    0.001256781   -0.000000000
      5        1           0.001235194    0.000453849   -0.001356628
      6        1           0.001235194    0.000453849    0.001356628
      7        1           0.001842440   -0.002137449    0.000000000
      8        1          -0.000407370   -0.002493761   -0.000000000
 -------------------------------------------------------------------
 Cartesian Forces:  Max     0.004622010 RMS     0.001508293

 GradGradGradGradGradGradGradGradGradGradGradGradGradGradGradGradGradGrad
 Berny optimization.
 FormGI is forming the generalized inverse of G from B-inverse, IUseBI=4.
 Internal  Forces:  Max     0.002660004 RMS     0.001281395
 Search for a local minimum.
 Step number   1 out of a maximum of   35
 All quantities printed in internal units (Hartrees-Bohrs-Radians)
 Mixed Optimization -- RFO/linear search
 Second derivative matrix not updated -- first step.
 ITU=  0
     Eigenvalues ---    0.00779   0.01521   0.03435   0.07310   0.07371
     Eigenvalues ---    0.16000   0.16000   0.16000   0.16000   0.16000
     Eigenvalues ---    0.22000   0.32484   0.33552   0.34179   0.34179
     Eigenvalues ---    0.34782   0.44006   0.76863
 RFO step:  Lambda=-1.42263941D-04 EMin= 7.79370152D-03
 Linear search not attempted -- first point.
 Iteration  1 RMS(Cart)=  0.00503397 RMS(Int)=  0.00001950
 Iteration  2 RMS(Cart)=  0.00002076 RMS(Int)=  0.00001063
 Iteration  3 RMS(Cart)=  0.00000000 RMS(Int)=  0.00001063
 ClnCor:  largest displacement from symmetrization is 1.66D-09 for atom     8.
 Variable       Old X    -DE/DX   Delta X   Delta X   Delta X     New X
                                 (Linear)    (Quad)   (Total)
    R1        2.83267  -0.00246   0.00000  -0.00758  -0.00758   2.82509
    R2        2.06030  -0.00151   0.00000  -0.00433  -0.00433   2.05597
    R3        2.07028  -0.00179   0.00000  -0.00523  -0.00523   2.06506
    R4        2.07028  -0.00179   0.00000  -0.00523  -0.00523   2.06506
    R5        2.39653  -0.00216   0.00000  -0.00281  -0.00281   2.39371
    R6        2.08093  -0.00266   0.00000  -0.00792  -0.00792   2.07300
    R7        1.93147  -0.00232   0.00000  -0.00528  -0.00528   1.92620
    A1        1.92158   0.00071   0.00000   0.00569   0.00570   1.92728
    A2        1.93224  -0.00084   0.00000  -0.00589  -0.00590   1.92634
    A3        1.93224  -0.00084   0.00000  -0.00589  -0.00590   1.92634
    A4        1.90700   0.00027   0.00000   0.00287   0.00287   1.90987
    A5        1.90700   0.00027   0.00000   0.00287   0.00287   1.90987
    A6        1.86269   0.00044   0.00000   0.00034   0.00031   1.86299
    A7        2.12375   0.00082   0.00000   0.00373   0.00373   2.12749
    A8        2.01287   0.00057   0.00000   0.00425   0.00425   2.01712
    A9        2.14656  -0.00139   0.00000  -0.00799  -0.00799   2.13858
   A10        1.93238   0.00192   0.00000   0.01199   0.01199   1.94437
    D1        0.00000  -0.00000   0.00000   0.00000   0.00000   0.00000
    D2        3.14159  -0.00000   0.00000   0.00000   0.00000   3.14159
    D3        2.11052   0.00026   0.00000   0.00350   0.00348   2.11401
    D4       -1.03107   0.00026   0.00000   0.00350   0.00348  -1.02758
    D5       -2.11052  -0.00026   0.00000  -0.00350  -0.00348  -2.11401
    D6        1.03107  -0.00026   0.00000  -0.00350  -0.00348   1.02758
    D7        3.14159  -0.00000   0.00000  -0.00000   0.00000   3.14159
    D8        0.00000  -0.00000   0.00000   0.00000   0.00000   0.00000
         Item               Value     Threshold  Converged?
 Maximum Force            0.002660     0.000450     NO 
 RMS     Force            0.001281     0.000300     NO 
 Maximum Displacement     0.010768     0.001800     NO 
 RMS     Displacement     0.005038     0.001200     NO 
 Predicted change in Energy=-7.114182D-05
 GradGradGradGradGradGradGradGradGradGradGradGradGradGradGradGradGradGrad

                          Input orientation:                          
 ---------------------------------------------------------------------
 Center     Atomic      Atomic             Coordinates (Angstroms)
 Number     Number       Type             X           Y           Z
 ---------------------------------------------------------------------
      1          6           0       -1.028618   -0.641296    0.000000
      2          6           0       -0.003557    0.446910    0.000000
      3          7           0        1.238184    0.196703    0.000000
      4          1           0       -0.546800   -1.616761    0.000000
      5          1           0       -1.674887   -0.555112    0.876973
      6          1           0       -1.674887   -0.555112   -0.876973
      7          1           0       -0.399164    1.470079    0.000000
      8          1           0        1.790293    1.053527    0.000000
 ---------------------------------------------------------------------
                    Distance matrix (angstroms):
                    1          2          3          4          5
     1  C    0.000000
     2  C    1.494973   0.000000
     3  N    2.416741   1.266699   0.000000
     4  H    1.087971   2.133975   2.544566   0.000000
     5  H    1.092782   2.136931   3.133734   1.780101   0.000000
     6  H    1.092782   2.136931   3.133734   1.780101   1.753946
     7  H    2.203206   1.096986   2.074222   3.090368   2.549108
     8  H    3.289178   1.893643   1.019300   3.548583   3.919729
                    6          7          8
     6  H    0.000000
     7  H    2.549108   0.000000
     8  H    3.919729   2.228731   0.000000
 Stoichiometry    C2H5N
 Framework group  CS[SG(C2H3N),X(H2)]
 Deg. of freedom    12
 Full point group                 CS      NOp   2
 Largest Abelian subgroup         CS      NOp   2
 Largest concise Abelian subgroup CS      NOp   2
                         Standard orientation:                         
 ---------------------------------------------------------------------
 Center     Atomic      Atomic             Coordinates (Angstroms)
 Number     Number       Type             X           Y           Z
 ---------------------------------------------------------------------
      1          6           0       -1.030547   -0.636398    0.000000
      2          6           0        0.000000    0.446615    0.000000
      3          7           0        1.240461    0.190136    0.000000
      4          1           0       -0.553663   -1.614285    0.000000
      5          1           0       -1.676372   -0.546950    0.876973
      6          1           0       -1.676372   -0.546950   -0.876973
      7          1           0       -0.390432    1.471770    0.000000
      8          1           0        1.796893    1.044159    0.000000
 ---------------------------------------------------------------------
 Rotational constants (GHZ):          54.1253967           9.8012848           8.7436850
 Basis read from rwf:  (5D, 7F)
 There are   120 symmetry adapted cartesian basis functions of A'  symmetry.
 There are    60 symmetry adapted cartesian basis functions of A"  symmetry.
 There are   104 symmetry adapted basis functions of A'  symmetry.
 There are    56 symmetry adapted basis functions of A"  symmetry.
   160 basis functions,   243 primitive gaussians,   180 cartesian basis functions
    12 alpha electrons       12 beta electrons
       nuclear repulsion energy        71.0306587379 Hartrees.
 NAtoms=    8 NActive=    8 NUniq=    7 SFac= 1.31D+00 NAtFMM=   60 NAOKFM=F Big=F
 Integral buffers will be    131072 words long.
 Raffenetti 2 integral format.
 Two-electron integral symmetry is turned on.
 One-electron integrals computed using PRISM.
 NBasis=   160 RedAO= T EigKep=  5.41D-04  NBF=   104    56
 NBsUse=   160 1.00D-06 EigRej= -1.00D+00 NBFU=   104    56
 Initial guess from the checkpoint file:  "/wrk/irikura/Gau-13128.chk"
 B after Tr=    -0.000000   -0.000000   -0.000000
         Rot=    0.999999   -0.000000   -0.000000    0.001658 Ang=   0.19 deg.
 Initial guess orbital symmetries:
       Occupied  (A') (A') (A') (A') (A') (A') (A') (A") (A') (A')
                 (A") (A')
       Virtual   (A") (A') (A') (A') (A") (A') (A') (A') (A") (A")
                 (A') (A') (A') (A') (A') (A') (A") (A') (A") (A')
                 (A') (A') (A') (A') (A') (A") (A") (A') (A") (A')
                 (A") (A') (A") (A') (A') (A') (A") (A') (A") (A')
                 (A") (A') (A') (A") (A') (A') (A') (A') (A") (A')
                 (A") (A') (A') (A") (A') (A') (A") (A') (A") (A')
                 (A') (A") (A') (A') (A') (A') (A') (A") (A') (A')
                 (A') (A") (A") (A') (A") (A') (A") (A') (A") (A')
                 (A") (A') (A') (A") (A') (A") (A') (A') (A") (A")
                 (A') (A") (A') (A') (A") (A') (A") (A') (A') (A")
                 (A') (A') (A") (A") (A') (A") (A') (A') (A") (A')
                 (A") (A") (A') (A') (A") (A') (A') (A') (A") (A')
                 (A') (A") (A") (A') (A') (A") (A") (A') (A') (A")
                 (A') (A') (A') (A") (A') (A") (A') (A") (A') (A")
                 (A') (A') (A") (A') (A') (A') (A') (A')
 Keep R1 ints in memory in symmetry-blocked form, NReq=124842279.
 Requested convergence on RMS density matrix=1.00D-08 within 128 cycles.
 Requested convergence on MAX density matrix=1.00D-06.
 Requested convergence on             energy=1.00D-06.
 No special actions if energy rises.
 SCF Done:  E(RB3LYP) =  -134.014304377     A.U. after    8 cycles
            NFock=  8  Conv=0.36D-08     -V/T= 2.0040
 Calling FoFJK, ICntrl=      2127 FMM=F ISym2X=1 I1Cent= 0 IOpClX= 0 NMat=1 NMatS=1 NMatT=0.
 ***** Axes restored to original set *****
 -------------------------------------------------------------------
 Center     Atomic                   Forces (Hartrees/Bohr)
 Number     Number              X              Y              Z
 -------------------------------------------------------------------
      1        6           0.000309414   -0.000083500    0.000000000
      2        6           0.000072676   -0.000479175    0.000000000
      3        7           0.000044853    0.000578424    0.000000000
      4        1          -0.000089467    0.000120067   -0.000000000
      5        1          -0.000047507    0.000080739    0.000006903
      6        1          -0.000047507    0.000080739   -0.000006903
      7        1           0.000054243    0.000059189    0.000000000
      8        1          -0.000296704   -0.000356483    0.000000000
 -------------------------------------------------------------------
 Cartesian Forces:  Max     0.000578424 RMS     0.000197464

 GradGradGradGradGradGradGradGradGradGradGradGradGradGradGradGradGradGrad
 Berny optimization.
 Using GEDIIS/GDIIS optimizer.
 FormGI is forming the generalized inverse of G from B-inverse, IUseBI=4.
 Internal  Forces:  Max     0.000460271 RMS     0.000149527
 Search for a local minimum.
 Step number   2 out of a maximum of   35
 All quantities printed in internal units (Hartrees-Bohrs-Radians)
 Mixed Optimization -- En-DIIS/RFO-DIIS
 Update second derivatives using D2CorX and points    1    2
 DE= -7.56D-05 DEPred=-7.11D-05 R= 1.06D+00
 TightC=F SS=  1.41D+00  RLast= 2.52D-02 DXNew= 5.0454D-01 7.5674D-02
 Trust test= 1.06D+00 RLast= 2.52D-02 DXMaxT set to 3.00D-01
 ITU=  1  0
 Use linear search instead of GDIIS.
     Eigenvalues ---    0.00779   0.01513   0.03435   0.07289   0.07297
     Eigenvalues ---    0.15637   0.16000   0.16000   0.16000   0.16443
     Eigenvalues ---    0.21544   0.31878   0.33762   0.34179   0.34583
     Eigenvalues ---    0.34969   0.43011   0.76245
 RFO step:  Lambda=-1.57803153D-06 EMin= 7.79370152D-03
 Quartic linear search produced a step of  0.06312.
 Iteration  1 RMS(Cart)=  0.00113488 RMS(Int)=  0.00000128
 Iteration  2 RMS(Cart)=  0.00000107 RMS(Int)=  0.00000090
 Iteration  3 RMS(Cart)=  0.00000000 RMS(Int)=  0.00000090
 ClnCor:  largest displacement from symmetrization is 5.23D-12 for atom     8.
 Variable       Old X    -DE/DX   Delta X   Delta X   Delta X     New X
                                 (Linear)    (Quad)   (Total)
    R1        2.82509  -0.00023  -0.00048  -0.00036  -0.00083   2.82426
    R2        2.05597  -0.00015  -0.00027  -0.00022  -0.00050   2.05547
    R3        2.06506   0.00004  -0.00033   0.00040   0.00007   2.06513
    R4        2.06506   0.00004  -0.00033   0.00040   0.00007   2.06513
    R5        2.39371  -0.00029  -0.00018  -0.00026  -0.00043   2.39328
    R6        2.07300   0.00004  -0.00050   0.00053   0.00003   2.07303
    R7        1.92620  -0.00046  -0.00033  -0.00084  -0.00117   1.92503
    A1        1.92728   0.00009   0.00036   0.00057   0.00093   1.92821
    A2        1.92634  -0.00008  -0.00037  -0.00032  -0.00070   1.92564
    A3        1.92634  -0.00008  -0.00037  -0.00032  -0.00070   1.92564
    A4        1.90987   0.00003   0.00018   0.00033   0.00051   1.91038
    A5        1.90987   0.00003   0.00018   0.00033   0.00051   1.91038
    A6        1.86299  -0.00001   0.00002  -0.00061  -0.00060   1.86240
    A7        2.12749   0.00029   0.00024   0.00121   0.00145   2.12893
    A8        2.01712  -0.00007   0.00027  -0.00043  -0.00016   2.01696
    A9        2.13858  -0.00022  -0.00050  -0.00078  -0.00128   2.13729
   A10        1.94437  -0.00011   0.00076  -0.00135  -0.00060   1.94377
    D1        0.00000  -0.00000   0.00000   0.00000   0.00000   0.00000
    D2        3.14159  -0.00000   0.00000  -0.00000   0.00000   3.14159
    D3        2.11401   0.00005   0.00022   0.00058   0.00079   2.11480
    D4       -1.02758   0.00005   0.00022   0.00058   0.00079  -1.02679
    D5       -2.11401  -0.00005  -0.00022  -0.00058  -0.00079  -2.11480
    D6        1.02758  -0.00005  -0.00022  -0.00058  -0.00079   1.02679
    D7        3.14159  -0.00000   0.00000  -0.00000   0.00000   3.14159
    D8        0.00000  -0.00000   0.00000   0.00000   0.00000   0.00000
         Item               Value     Threshold  Converged?
 Maximum Force            0.000460     0.000450     NO 
 RMS     Force            0.000150     0.000300     YES
 Maximum Displacement     0.002611     0.001800     NO 
 RMS     Displacement     0.001135     0.001200     YES
 Predicted change in Energy=-1.060258D-06
 GradGradGradGradGradGradGradGradGradGradGradGradGradGradGradGradGradGrad

                          Input orientation:                          
 ---------------------------------------------------------------------
 Center     Atomic      Atomic             Coordinates (Angstroms)
 Number     Number       Type             X           Y           Z
 ---------------------------------------------------------------------
      1          6           0       -1.028232   -0.641700    0.000000
      2          6           0       -0.003162    0.445892    0.000000
      3          7           0        1.238644    0.197170    0.000000
      4          1           0       -0.547719   -1.617515    0.000000
      5          1           0       -1.674614   -0.554237    0.876807
      6          1           0       -1.674614   -0.554237   -0.876807
      7          1           0       -0.398650    1.469122    0.000000
      8          1           0        1.788912    1.054443    0.000000
 ---------------------------------------------------------------------
                    Distance matrix (angstroms):
                    1          2          3          4          5
     1  C    0.000000
     2  C    1.494531   0.000000
     3  N    2.417112   1.266469   0.000000
     4  H    1.087708   2.134055   2.546404   0.000000
     5  H    1.092818   2.136071   3.133764   1.780237   0.000000
     6  H    1.092818   2.136071   3.133764   1.780237   1.753614
     7  H    2.202713   1.097001   2.073305   3.090235   2.547716
     8  H    3.288343   1.892581   1.018681   3.549535   3.918247
                    6          7          8
     6  H    0.000000
     7  H    2.547716   0.000000
     8  H    3.918247   2.226519   0.000000
 Stoichiometry    C2H5N
 Framework group  CS[SG(C2H3N),X(H2)]
 Deg. of freedom    12
 Full point group                 CS      NOp   2
 Largest Abelian subgroup         CS      NOp   2
 Largest concise Abelian subgroup CS      NOp   2
                         Standard orientation:                         
 ---------------------------------------------------------------------
 Center     Atomic      Atomic             Coordinates (Angstroms)
 Number     Number       Type             X           Y           Z
 ---------------------------------------------------------------------
      1          6           0       -1.030278   -0.636884    0.000000
      2          6           0        0.000000    0.445775    0.000000
      3          7           0        1.240598    0.191097    0.000000
      4          1           0       -0.554453   -1.614994    0.000000
      5          1           0       -1.676233   -0.546320    0.876807
      6          1           0       -1.676233   -0.546320   -0.876807
      7          1           0       -0.390573    1.470892    0.000000
      8          1           0        1.794974    1.045719    0.000000
 ---------------------------------------------------------------------
 Rotational constants (GHZ):          54.2011169           9.7997698           8.7442751
 Basis read from rwf:  (5D, 7F)
 There are   120 symmetry adapted cartesian basis functions of A'  symmetry.
 There are    60 symmetry adapted cartesian basis functions of A"  symmetry.
 There are   104 symmetry adapted basis functions of A'  symmetry.
 There are    56 symmetry adapted basis functions of A"  symmetry.
   160 basis functions,   243 primitive gaussians,   180 cartesian basis functions
    12 alpha electrons       12 beta electrons
       nuclear repulsion energy        71.0417815110 Hartrees.
 NAtoms=    8 NActive=    8 NUniq=    7 SFac= 1.31D+00 NAtFMM=   60 NAOKFM=F Big=F
 Integral buffers will be    131072 words long.
 Raffenetti 2 integral format.
 Two-electron integral symmetry is turned on.
 One-electron integrals computed using PRISM.
 NBasis=   160 RedAO= T EigKep=  5.40D-04  NBF=   104    56
 NBsUse=   160 1.00D-06 EigRej= -1.00D+00 NBFU=   104    56
 Initial guess from the checkpoint file:  "/wrk/irikura/Gau-13128.chk"
 B after Tr=    -0.000000   -0.000000   -0.000000
         Rot=    1.000000   -0.000000   -0.000000   -0.000200 Ang=  -0.02 deg.
 Initial guess orbital symmetries:
       Occupied  (A') (A') (A') (A') (A') (A') (A') (A") (A') (A')
                 (A") (A')
       Virtual   (A") (A') (A') (A') (A") (A') (A') (A') (A") (A")
                 (A') (A') (A') (A') (A') (A') (A") (A') (A") (A')
                 (A') (A') (A') (A') (A') (A") (A") (A') (A") (A')
                 (A") (A') (A") (A') (A') (A') (A") (A') (A") (A')
                 (A") (A') (A') (A') (A") (A') (A') (A') (A") (A')
                 (A") (A') (A') (A") (A') (A') (A") (A') (A") (A')
                 (A') (A") (A') (A') (A') (A') (A') (A") (A') (A')
                 (A') (A") (A") (A') (A") (A') (A") (A') (A") (A')
                 (A") (A') (A') (A") (A') (A") (A') (A') (A") (A")
                 (A') (A") (A') (A') (A") (A') (A") (A') (A') (A")
                 (A') (A') (A") (A") (A') (A") (A') (A') (A") (A')
                 (A") (A") (A') (A') (A") (A') (A') (A') (A") (A')
                 (A') (A") (A") (A') (A') (A") (A") (A') (A') (A")
                 (A') (A') (A') (A") (A') (A') (A") (A") (A') (A")
                 (A') (A') (A") (A') (A') (A') (A') (A')
 Keep R1 ints in memory in symmetry-blocked form, NReq=124842279.
 Requested convergence on RMS density matrix=1.00D-08 within 128 cycles.
 Requested convergence on MAX density matrix=1.00D-06.
 Requested convergence on             energy=1.00D-06.
 No special actions if energy rises.
 SCF Done:  E(RB3LYP) =  -134.014305494     A.U. after    7 cycles
            NFock=  7  Conv=0.17D-08     -V/T= 2.0040
 Calling FoFJK, ICntrl=      2127 FMM=F ISym2X=1 I1Cent= 0 IOpClX= 0 NMat=1 NMatS=1 NMatT=0.
 ***** Axes restored to original set *****
 -------------------------------------------------------------------
 Center     Atomic                   Forces (Hartrees/Bohr)
 Number     Number              X              Y              Z
 -------------------------------------------------------------------
      1        6           0.000076158    0.000027048   -0.000000000
      2        6          -0.000036230   -0.000108160    0.000000000
      3        7           0.000049653    0.000023370   -0.000000000
      4        1          -0.000013217   -0.000017596   -0.000000000
      5        1          -0.000030479    0.000011195    0.000013853
      6        1          -0.000030479    0.000011195   -0.000013853
      7        1          -0.000046442    0.000048233   -0.000000000
      8        1           0.000031035    0.000004714   -0.000000000
 -------------------------------------------------------------------
 Cartesian Forces:  Max     0.000108160 RMS     0.000035940

 GradGradGradGradGradGradGradGradGradGradGradGradGradGradGradGradGradGrad
 Berny optimization.
 Using GEDIIS/GDIIS optimizer.
 FormGI is forming the generalized inverse of G from B-inverse, IUseBI=4.
 Internal  Forces:  Max     0.000073429 RMS     0.000030258
 Search for a local minimum.
 Step number   3 out of a maximum of   35
 All quantities printed in internal units (Hartrees-Bohrs-Radians)
 Mixed Optimization -- En-DIIS/RFO-DIIS
 Swapping is turned off.
 Update second derivatives using D2CorX and points    1    2    3
 DE= -1.12D-06 DEPred=-1.06D-06 R= 1.05D+00
 TightC=F SS=  1.41D+00  RLast= 3.45D-03 DXNew= 5.0454D-01 1.0337D-02
 Trust test= 1.05D+00 RLast= 3.45D-03 DXMaxT set to 3.00D-01
 ITU=  1  1  0
     Eigenvalues ---    0.00779   0.01512   0.03435   0.06751   0.07284
     Eigenvalues ---    0.15296   0.16000   0.16000   0.16200   0.16997
     Eigenvalues ---    0.19981   0.31593   0.33831   0.34179   0.34601
     Eigenvalues ---    0.35438   0.44692   0.79088
 En-DIIS/RFO-DIIS/Sim-DIIS IScMMF=       -3 using points:     3    2
 RFO step:  Lambda=-1.04712849D-07.
 DidBck=F Rises=F RFO-DIIS coefs:    1.16141   -0.16141
 Iteration  1 RMS(Cart)=  0.00027281 RMS(Int)=  0.00000007
 Iteration  2 RMS(Cart)=  0.00000005 RMS(Int)=  0.00000005
 ClnCor:  largest displacement from symmetrization is 3.91D-12 for atom     8.
 Variable       Old X    -DE/DX   Delta X   Delta X   Delta X     New X
                                 (Linear)    (Quad)   (Total)
    R1        2.82426  -0.00002  -0.00013   0.00001  -0.00013   2.82413
    R2        2.05547   0.00001  -0.00008   0.00008   0.00000   2.05547
    R3        2.06513   0.00003   0.00001   0.00008   0.00009   2.06521
    R4        2.06513   0.00003   0.00001   0.00008   0.00009   2.06521
    R5        2.39328   0.00007  -0.00007   0.00015   0.00008   2.39336
    R6        2.07303   0.00006   0.00000   0.00018   0.00018   2.07321
    R7        1.92503   0.00002  -0.00019   0.00018  -0.00001   1.92502
    A1        1.92821   0.00003   0.00015   0.00019   0.00034   1.92856
    A2        1.92564  -0.00001  -0.00011   0.00001  -0.00011   1.92553
    A3        1.92564  -0.00001  -0.00011   0.00001  -0.00011   1.92553
    A4        1.91038  -0.00000   0.00008  -0.00003   0.00006   1.91044
    A5        1.91038  -0.00000   0.00008  -0.00003   0.00006   1.91044
    A6        1.86240  -0.00002  -0.00010  -0.00017  -0.00026   1.86214
    A7        2.12893   0.00006   0.00023   0.00011   0.00035   2.12928
    A8        2.01696  -0.00006  -0.00003  -0.00029  -0.00032   2.01664
    A9        2.13729  -0.00000  -0.00021   0.00018  -0.00003   2.13727
   A10        1.94377   0.00005  -0.00010   0.00039   0.00029   1.94406
    D1        0.00000   0.00000   0.00000  -0.00000   0.00000   0.00000
    D2        3.14159   0.00000  -0.00000   0.00000   0.00000   3.14159
    D3        2.11480   0.00001   0.00013   0.00010   0.00023   2.11503
    D4       -1.02679   0.00001   0.00013   0.00010   0.00023  -1.02656
    D5       -2.11480  -0.00001  -0.00013  -0.00010  -0.00023  -2.11503
    D6        1.02679  -0.00001  -0.00013  -0.00010  -0.00023   1.02656
    D7        3.14159   0.00000  -0.00000   0.00000   0.00000   3.14159
    D8        0.00000  -0.00000   0.00000  -0.00000   0.00000   0.00000
         Item               Value     Threshold  Converged?
 Maximum Force            0.000073     0.000450     YES
 RMS     Force            0.000030     0.000300     YES
 Maximum Displacement     0.000538     0.001800     YES
 RMS     Displacement     0.000273     0.001200     YES
 Predicted change in Energy=-5.235544D-08
 Optimization completed.
    -- Stationary point found.
                           ----------------------------
                           !   Optimized Parameters   !
                           ! (Angstroms and Degrees)  !
 --------------------------                            --------------------------
 ! Name  Definition              Value          Derivative Info.                !
 --------------------------------------------------------------------------------
 ! R1    R(1,2)                  1.4945         -DE/DX =    0.0                 !
 ! R2    R(1,4)                  1.0877         -DE/DX =    0.0                 !
 ! R3    R(1,5)                  1.0928         -DE/DX =    0.0                 !
 ! R4    R(1,6)                  1.0928         -DE/DX =    0.0                 !
 ! R5    R(2,3)                  1.2665         -DE/DX =    0.0001              !
 ! R6    R(2,7)                  1.097          -DE/DX =    0.0001              !
 ! R7    R(3,8)                  1.0187         -DE/DX =    0.0                 !
 ! A1    A(2,1,4)              110.4784         -DE/DX =    0.0                 !
 ! A2    A(2,1,5)              110.3311         -DE/DX =    0.0                 !
 ! A3    A(2,1,6)              110.3311         -DE/DX =    0.0                 !
 ! A4    A(4,1,5)              109.4569         -DE/DX =    0.0                 !
 ! A5    A(4,1,6)              109.4569         -DE/DX =    0.0                 !
 ! A6    A(5,1,6)              106.7075         -DE/DX =    0.0                 !
 ! A7    A(1,2,3)              121.979          -DE/DX =    0.0001              !
 ! A8    A(1,2,7)              115.5631         -DE/DX =   -0.0001              !
 ! A9    A(3,2,7)              122.4579         -DE/DX =    0.0                 !
 ! A10   A(2,3,8)              111.3698         -DE/DX =    0.0                 !
 ! D1    D(4,1,2,3)              0.0            -DE/DX =    0.0                 !
 ! D2    D(4,1,2,7)            180.0            -DE/DX =    0.0                 !
 ! D3    D(5,1,2,3)            121.1693         -DE/DX =    0.0                 !
 ! D4    D(5,1,2,7)            -58.8307         -DE/DX =    0.0                 !
 ! D5    D(6,1,2,3)           -121.1693         -DE/DX =    0.0                 !
 ! D6    D(6,1,2,7)             58.8307         -DE/DX =    0.0                 !
 ! D7    D(1,2,3,8)            180.0            -DE/DX =    0.0                 !
 ! D8    D(7,2,3,8)              0.0            -DE/DX =    0.0                 !
 --------------------------------------------------------------------------------
 GradGradGradGradGradGradGradGradGradGradGradGradGradGradGradGradGradGrad

                          Input orientation:                          
 ---------------------------------------------------------------------
 Center     Atomic      Atomic             Coordinates (Angstroms)
 Number     Number       Type             X           Y           Z
 ---------------------------------------------------------------------
      1          6           0       -1.028232   -0.641700    0.000000
      2          6           0       -0.003162    0.445892    0.000000
      3          7           0        1.238644    0.197170    0.000000
      4          1           0       -0.547719   -1.617515    0.000000
      5          1           0       -1.674614   -0.554237    0.876807
      6          1           0       -1.674614   -0.554237   -0.876807
      7          1           0       -0.398650    1.469122    0.000000
      8          1           0        1.788912    1.054443    0.000000
 ---------------------------------------------------------------------
                    Distance matrix (angstroms):
                    1          2          3          4          5
     1  C    0.000000
     2  C    1.494531   0.000000
     3  N    2.417112   1.266469   0.000000
     4  H    1.087708   2.134055   2.546404   0.000000
     5  H    1.092818   2.136071   3.133764   1.780237   0.000000
     6  H    1.092818   2.136071   3.133764   1.780237   1.753614
     7  H    2.202713   1.097001   2.073305   3.090235   2.547716
     8  H    3.288343   1.892581   1.018681   3.549535   3.918247
                    6          7          8
     6  H    0.000000
     7  H    2.547716   0.000000
     8  H    3.918247   2.226519   0.000000
 Stoichiometry    C2H5N
 Framework group  CS[SG(C2H3N),X(H2)]
 Deg. of freedom    12
 Full point group                 CS      NOp   2
 Largest Abelian subgroup         CS      NOp   2
 Largest concise Abelian subgroup CS      NOp   2
                         Standard orientation:                         
 ---------------------------------------------------------------------
 Center     Atomic      Atomic             Coordinates (Angstroms)
 Number     Number       Type             X           Y           Z
 ---------------------------------------------------------------------
      1          6           0       -1.030278   -0.636884    0.000000
      2          6           0        0.000000    0.445775    0.000000
      3          7           0        1.240598    0.191097    0.000000
      4          1           0       -0.554453   -1.614994    0.000000
      5          1           0       -1.676233   -0.546320    0.876807
      6          1           0       -1.676233   -0.546320   -0.876807
      7          1           0       -0.390573    1.470892    0.000000
      8          1           0        1.794974    1.045719    0.000000
 ---------------------------------------------------------------------
 Rotational constants (GHZ):          54.2011169           9.7997698           8.7442751

 **********************************************************************

            Population analysis using the SCF Density.

 **********************************************************************

 Orbital symmetries:
       Occupied  (A') (A') (A') (A') (A') (A') (A') (A") (A') (A')
                 (A") (A')
       Virtual   (A") (A') (A') (A') (A") (A') (A') (A') (A") (A")
                 (A') (A') (A') (A') (A') (A') (A") (A') (A") (A')
                 (A') (A') (A') (A') (A') (A") (A") (A') (A") (A')
                 (A") (A') (A") (A') (A') (A') (A") (A') (A") (A')
                 (A") (A') (A') (A') (A") (A') (A') (A') (A") (A')
                 (A") (A') (A') (A") (A') (A') (A") (A') (A") (A')
                 (A') (A") (A') (A') (A') (A') (A') (A") (A') (A')
                 (A') (A") (A") (A') (A") (A') (A") (A') (A") (A')
                 (A") (A') (A') (A") (A') (A") (A') (A') (A") (A")
                 (A') (A") (A') (A') (A") (A') (A") (A') (A') (A")
                 (A') (A') (A") (A") (A') (A") (A') (A') (A") (A')
                 (A") (A") (A') (A') (A") (A') (A') (A') (A") (A')
                 (A') (A") (A") (A') (A') (A") (A") (A') (A') (A")
                 (A') (A') (A') (A") (A') (A') (A") (A") (A') (A")
                 (A') (A') (A") (A') (A') (A') (A') (A')
 The electronic state is 1-A'.
 Alpha  occ. eigenvalues --  -14.30256 -10.22347 -10.17321  -0.90933  -0.73965
 Alpha  occ. eigenvalues --   -0.57328  -0.51818  -0.43170  -0.41089  -0.39582
 Alpha  occ. eigenvalues --   -0.31874  -0.27084
 Alpha virt. eigenvalues --   -0.01315   0.01294   0.03734   0.06262   0.07064
 Alpha virt. eigenvalues --    0.09187   0.12827   0.16176   0.18047   0.19962
 Alpha virt. eigenvalues --    0.21301   0.21679   0.26832   0.29153   0.33259
 Alpha virt. eigenvalues --    0.34389   0.34416   0.36220   0.37348   0.37973
 Alpha virt. eigenvalues --    0.42967   0.43510   0.50133   0.52928   0.60137
 Alpha virt. eigenvalues --    0.63641   0.75191   0.79457   0.84955   0.86772
 Alpha virt. eigenvalues --    0.93684   0.95236   0.97221   0.97734   0.98556
 Alpha virt. eigenvalues --    1.02054   1.06792   1.08537   1.10554   1.11172
 Alpha virt. eigenvalues --    1.18622   1.18761   1.22460   1.30345   1.30543
 Alpha virt. eigenvalues --    1.38547   1.43725   1.47245   1.47493   1.52897
 Alpha virt. eigenvalues --    1.55001   1.64451   1.66694   1.68061   1.74159
 Alpha virt. eigenvalues --    1.76153   1.78205   1.81706   1.86418   1.90243
 Alpha virt. eigenvalues --    1.97609   2.07021   2.10641   2.15611   2.26417
 Alpha virt. eigenvalues --    2.35883   2.44981   2.54417   2.69039   2.98838
 Alpha virt. eigenvalues --    3.02849   3.03551   3.18519   3.18822   3.26960
 Alpha virt. eigenvalues --    3.30903   3.34116   3.35672   3.40173   3.48188
 Alpha virt. eigenvalues --    3.50725   3.51327   3.65568   3.71318   3.74172
 Alpha virt. eigenvalues --    3.76598   3.79138   3.82300   3.82619   3.84240
 Alpha virt. eigenvalues --    3.91226   4.03028   4.06362   4.10367   4.14012
 Alpha virt. eigenvalues --    4.17132   4.20191   4.22893   4.24696   4.27427
 Alpha virt. eigenvalues --    4.31014   4.35304   4.38604   4.39247   4.44990
 Alpha virt. eigenvalues --    4.46256   4.51087   4.53631   4.56782   4.58175
 Alpha virt. eigenvalues --    4.60036   4.61342   4.69542   4.71774   4.74490
 Alpha virt. eigenvalues --    4.77669   4.83228   4.90042   4.94760   4.97074
 Alpha virt. eigenvalues --    5.07386   5.12114   5.16952   5.21540   5.28824
 Alpha virt. eigenvalues --    5.29634   5.38836   5.40065   5.44832   5.51012
 Alpha virt. eigenvalues --    5.57281   5.64972   5.69336   5.72567   5.81499
 Alpha virt. eigenvalues --    5.83852   5.84251   5.85241   5.87722   5.89362
 Alpha virt. eigenvalues --    5.94292   6.10694   6.13807   6.20222   6.32201
 Alpha virt. eigenvalues --    6.53621   6.57735   6.74812
          Condensed to atoms (all electrons):
               1          2          3          4          5          6
     1  C    4.752200   0.245552  -0.122572   0.395974   0.412089   0.412089
     2  C    0.245552   4.705412   0.689693  -0.024761  -0.029177  -0.029177
     3  N   -0.122572   0.689693   6.414862   0.014815  -0.000597  -0.000597
     4  H    0.395974  -0.024761   0.014815   0.589942  -0.017432  -0.017432
     5  H    0.412089  -0.029177  -0.000597  -0.017432   0.636045  -0.032235
     6  H    0.412089  -0.029177  -0.000597  -0.017432  -0.032235   0.636045
     7  H   -0.125210   0.425991  -0.055352   0.014081  -0.000698  -0.000698
     8  H    0.030255  -0.051301   0.340130  -0.002413  -0.000695  -0.000695
               7          8
     1  C   -0.125210   0.030255
     2  C    0.425991  -0.051301
     3  N   -0.055352   0.340130
     4  H    0.014081  -0.002413
     5  H   -0.000698  -0.000695
     6  H   -0.000698  -0.000695
     7  H    0.791935  -0.043597
     8  H   -0.043597   0.621500
 Mulliken charges:
               1
     1  C   -0.000377
     2  C    0.067768
     3  N   -0.280382
     4  H    0.047227
     5  H    0.032700
     6  H    0.032700
     7  H   -0.006452
     8  H    0.106816
 Sum of Mulliken charges =  -0.00000
 Mulliken charges with hydrogens summed into heavy atoms:
               1
     1  C    0.112250
     2  C    0.061316
     3  N   -0.173566
 Electronic spatial extent (au):  <R**2>=            180.2206
 Charge=             -0.0000 electrons
 Dipole moment (field-independent basis, Debye):
    X=             -1.5523    Y=              1.3906    Z=              0.0000  Tot=              2.0841
 Quadrupole moment (field-independent basis, Debye-Ang):
   XX=            -20.1972   YY=            -18.0539   ZZ=            -20.0678
   XY=              2.5999   XZ=              0.0000   YZ=             -0.0000
 Traceless Quadrupole moment (field-independent basis, Debye-Ang):
   XX=             -0.7576   YY=              1.3857   ZZ=             -0.6282
   XY=              2.5999   XZ=              0.0000   YZ=             -0.0000
 Octapole moment (field-independent basis, Debye-Ang**2):
  XXX=              0.5104  YYY=              2.4766  ZZZ=              0.0000  XYY=              2.1295
  XXY=              5.2805  XXZ=             -0.0000  XZZ=             -1.1979  YZZ=              0.1814
  YYZ=              0.0000  XYZ=             -0.0000
 Hexadecapole moment (field-independent basis, Debye-Ang**3):
 XXXX=           -146.9858 YYYY=            -65.8764 ZZZZ=            -28.5231 XXXY=            -12.6153
 XXXZ=              0.0000 YYYX=            -20.3701 YYYZ=             -0.0000 ZZZX=             -0.0000
 ZZZY=             -0.0000 XXYY=            -34.1418 XXZZ=            -28.4635 YYZZ=            -17.3664
 XXYZ=              0.0000 YYXZ=              0.0000 ZZXY=             -7.0665
 N-N= 7.104178151097D+01 E-N=-4.536364396673D+02  KE= 1.334785501370D+02
 Symmetry A'   KE= 1.287474856832D+02
 Symmetry A"   KE= 4.731064453792D+00
 1\1\GINC-GAMBA\FOpt\RB3LYP\Gen\C2H5N1\IRIKURA\08-Sep-2023\0\\# b3lyp/g
 en opt freq symm=loose\\ethanimine, B3LYP/pcseg-2\\0,1\C,-1.0282321456
 ,-0.6417000999,0.\C,-0.0031622941,0.445891714,0.\N,1.2386436445,0.1971
 704516,0.\H,-0.5477185403,-1.6175152783,0.\H,-1.6746144215,-0.55423735
 46,0.8768072407\H,-1.6746144215,-0.5542373546,-0.8768072407\H,-0.39865
 03679,1.4691218489,0.\H,1.7889115467,1.0544430729,0.\\Version=ES64L-G1
 6RevB.01\State=1-A'\HF=-134.0143055\RMSD=1.685e-09\RMSF=3.594e-05\Dipo
 le=-0.613353,0.5441808,0.\Quadrupole=-0.5817551,1.0487868,-0.4670316,1
 .925235,0.,0.\PG=CS [SG(C2H3N1),X(H2)]\\@


 You don't have to suffer to be a poet.
 Adolescence is enough suffering for anyone.
                             -- John Ciardi
 Job cpu time:       0 days  0 hours  2 minutes 50.6 seconds.
 Elapsed time:       0 days  0 hours  0 minutes 29.4 seconds.
 File lengths (MBytes):  RWF=     14 Int=      0 D2E=      0 Chk=      3 Scr=      1
 Normal termination of Gaussian 16 at Fri Sep  8 17:52:46 2023.
 Link1:  Proceeding to internal job step number  2.
 ------------------------------------------------------------------
 #N Geom=AllCheck Guess=TCheck SCRF=Check GenChk RB3LYP/ChkBas Freq
 ------------------------------------------------------------------
 1/10=4,29=7,30=1,38=1,40=1/1,3;
 2/12=2,17=4,18=3,40=1/2;
 3/5=7,6=2,11=2,14=-4,25=1,30=1,67=1,70=2,71=2,74=-5,82=7,116=1,140=1/1,2,3;
 4/5=101/1;
 5/5=2,38=6,98=1/2;
 8/6=4,10=90,11=11/1;
 11/6=1,8=1,9=11,15=111,16=1/1,2,10;
 10/6=1/2;
 6/7=2,8=2,9=2,10=2,28=1/1;
 7/8=1,10=1,25=1/1,2,3,16;
 1/10=4,30=1/3;
 99//99;
 Structure from the checkpoint file:  "/wrk/irikura/Gau-13128.chk"
 -------------------------
 ethanimine, B3LYP/pcseg-2
 -------------------------
 Charge =  0 Multiplicity = 1
 Redundant internal coordinates found in file.  (old form).
 C,0,-1.0282321456,-0.6417000999,0.
 C,0,-0.0031622941,0.445891714,0.
 N,0,1.2386436445,0.1971704516,0.
 H,0,-0.5477185403,-1.6175152783,0.
 H,0,-1.6746144215,-0.5542373546,0.8768072407
 H,0,-1.6746144215,-0.5542373546,-0.8768072407
 H,0,-0.3986503679,1.4691218489,0.
 H,0,1.7889115467,1.0544430729,0.
 Recover connectivity data from disk.

 GradGradGradGradGradGradGradGradGradGradGradGradGradGradGradGradGradGrad
 Berny optimization.
 Initialization pass.
                           ----------------------------
                           !    Initial Parameters    !
                           ! (Angstroms and Degrees)  !
 --------------------------                            --------------------------
 ! Name  Definition              Value          Derivative Info.                !
 --------------------------------------------------------------------------------
 ! R1    R(1,2)                  1.4945         calculate D2E/DX2 analytically  !
 ! R2    R(1,4)                  1.0877         calculate D2E/DX2 analytically  !
 ! R3    R(1,5)                  1.0928         calculate D2E/DX2 analytically  !
 ! R4    R(1,6)                  1.0928         calculate D2E/DX2 analytically  !
 ! R5    R(2,3)                  1.2665         calculate D2E/DX2 analytically  !
 ! R6    R(2,7)                  1.097          calculate D2E/DX2 analytically  !
 ! R7    R(3,8)                  1.0187         calculate D2E/DX2 analytically  !
 ! A1    A(2,1,4)              110.4784         calculate D2E/DX2 analytically  !
 ! A2    A(2,1,5)              110.3311         calculate D2E/DX2 analytically  !
 ! A3    A(2,1,6)              110.3311         calculate D2E/DX2 analytically  !
 ! A4    A(4,1,5)              109.4569         calculate D2E/DX2 analytically  !
 ! A5    A(4,1,6)              109.4569         calculate D2E/DX2 analytically  !
 ! A6    A(5,1,6)              106.7075         calculate D2E/DX2 analytically  !
 ! A7    A(1,2,3)              121.979          calculate D2E/DX2 analytically  !
 ! A8    A(1,2,7)              115.5631         calculate D2E/DX2 analytically  !
 ! A9    A(3,2,7)              122.4579         calculate D2E/DX2 analytically  !
 ! A10   A(2,3,8)              111.3698         calculate D2E/DX2 analytically  !
 ! D1    D(4,1,2,3)              0.0            calculate D2E/DX2 analytically  !
 ! D2    D(4,1,2,7)            180.0            calculate D2E/DX2 analytically  !
 ! D3    D(5,1,2,3)            121.1693         calculate D2E/DX2 analytically  !
 ! D4    D(5,1,2,7)            -58.8307         calculate D2E/DX2 analytically  !
 ! D5    D(6,1,2,3)           -121.1693         calculate D2E/DX2 analytically  !
 ! D6    D(6,1,2,7)             58.8307         calculate D2E/DX2 analytically  !
 ! D7    D(1,2,3,8)            180.0            calculate D2E/DX2 analytically  !
 ! D8    D(7,2,3,8)              0.0            calculate D2E/DX2 analytically  !
 --------------------------------------------------------------------------------
 Trust Radius=3.00D-01 FncErr=1.00D-07 GrdErr=1.00D-07 EigMax=2.50D+02 EigMin=1.00D-04
[...]
     3   7    -0.36   0.05  -0.00     0.00   0.00   0.00    -0.00   0.00  -0.00
     4   1     0.23   0.11   0.00    -0.00   0.01   0.00     0.18  -0.36   0.00
     5   1    -0.18  -0.04  -0.09     0.07  -0.01  -0.10    -0.37   0.05   0.52
     6   1    -0.18  -0.04   0.09     0.07  -0.01   0.10    -0.37   0.05  -0.52
     7   1    -0.39  -0.36  -0.00    -0.33   0.92   0.00    -0.05   0.14  -0.00
     8   1    -0.37   0.00   0.00    -0.03  -0.03  -0.00    -0.01  -0.01   0.00
                     16                     17                     18
                     A"                     A'                     A'
 Frequencies --   3072.9712              3130.7670              3451.8018
 Red. masses --      1.0984                 1.1010                 1.0755
 Frc consts  --      6.1113                 6.3580                 7.5502
 IR Inten    --     12.7295                11.0794                 0.8246
  Atom  AN      X      Y      Z        X      Y      Z        X      Y      Z
     1   6     0.00  -0.00  -0.09     0.06  -0.07   0.00     0.00   0.00   0.00
     2   6     0.00  -0.00  -0.00     0.00  -0.01   0.00     0.01  -0.01   0.00
     3   7    -0.00   0.00  -0.00    -0.00   0.00   0.00    -0.04  -0.06  -0.00
     4   1    -0.00   0.00  -0.02    -0.40   0.82   0.00    -0.00   0.01  -0.00
     5   1    -0.43   0.06   0.56    -0.15   0.01   0.23    -0.00   0.00   0.00
     6   1     0.43  -0.06   0.56    -0.15   0.01  -0.23    -0.00   0.00  -0.00
     7   1    -0.00   0.00   0.00    -0.02   0.06  -0.00    -0.01   0.04  -0.00
     8   1    -0.00  -0.00   0.00    -0.01  -0.01  -0.00     0.56   0.82   0.00

 -------------------
 - Thermochemistry -
 -------------------
 Temperature   298.150 Kelvin.  Pressure   1.00000 Atm.
 Atom     1 has atomic number  6 and mass  12.00000
 Atom     2 has atomic number  6 and mass  12.00000
 Atom     3 has atomic number  7 and mass  14.00307
 Atom     4 has atomic number  1 and mass   1.00783
 Atom     5 has atomic number  1 and mass   1.00783
 Atom     6 has atomic number  1 and mass   1.00783
 Atom     7 has atomic number  1 and mass   1.00783
 Atom     8 has atomic number  1 and mass   1.00783
 Molecular mass:    43.04220 amu.
 Principal axes and moments of inertia in atomic units:
                           1         2         3
     Eigenvalues --    33.29712 184.16159 206.39117
           X            0.91985  -0.39227   0.00000
           Y            0.39227   0.91985   0.00000
           Z            0.00000   0.00000   1.00000
 This molecule is an asymmetric top.
 Rotational symmetry number  1.
 Rotational temperatures (Kelvin)      2.60124     0.47031     0.41966
 Rotational constants (GHZ):          54.20112     9.79977     8.74428
 Zero-point vibrational energy     179335.6 (Joules/Mol)
                                   42.86224 (Kcal/Mol)
 Warning -- explicit consideration of   2 degrees of freedom as
           vibrations may cause significant error
 Vibrational temperatures:    269.66   708.04   981.30  1325.52  1522.49
          (Kelvin)           1547.01  1626.43  1829.08  2001.47  2059.15
                             2113.56  2124.38  2477.27  4306.41  4354.29
                             4421.32  4504.48  4966.37
 
 Zero-point correction=                           0.068305 (Hartree/Particle)
 Thermal correction to Energy=                    0.072237
 Thermal correction to Enthalpy=                  0.073181
 Thermal correction to Gibbs Free Energy=         0.043414
 Sum of electronic and zero-point Energies=           -133.946000
 Sum of electronic and thermal Energies=              -133.942068
 Sum of electronic and thermal Enthalpies=            -133.941124
 Sum of electronic and thermal Free Energies=         -133.970892
 
                     E (Thermal)             CV                S
                      KCal/Mol        Cal/Mol-Kelvin    Cal/Mol-Kelvin
 Total                   45.330             11.863             62.651
 Electronic               0.000              0.000              0.000
 Translational            0.889              2.981             37.205
 Rotational               0.889              2.981             21.764
 Vibrational             43.552              5.901              3.682
 Vibration     1          0.632              1.857              2.253
 Vibration     2          0.848              1.268              0.678
                       Q            Log10(Q)             Ln(Q)
 Total Bot       0.107403D-19        -19.968984        -45.980286
 Total V=0       0.281358D+12         11.449259         26.362894
 Vib (Bot)       0.759847D-31        -31.119274        -71.654776
 Vib (Bot)    1  0.106886D+01          0.028922          0.066595
 Vib (Bot)    2  0.336306D+00         -0.473266         -1.089734
 Vib (V=0)       0.199053D+01          0.298970          0.688403
 Vib (V=0)    1  0.168003D+01          0.225317          0.518811
 Vib (V=0)    2  0.110258D+01          0.042410          0.097652
 Electronic      0.100000D+01          0.000000          0.000000
 Translational   0.110993D+08          7.045296         16.222393
 Rotational      0.127349D+05          4.104994          9.452098
 ***** Axes restored to original set *****
 -------------------------------------------------------------------
 Center     Atomic                   Forces (Hartrees/Bohr)
 Number     Number              X              Y              Z
 -------------------------------------------------------------------
      1        6           0.000076155    0.000027037    0.000000000
      2        6          -0.000036269   -0.000108158    0.000000000
      3        7           0.000049683    0.000023362   -0.000000000
      4        1          -0.000013221   -0.000017592   -0.000000000
      5        1          -0.000030474    0.000011196    0.000013847
      6        1          -0.000030474    0.000011196   -0.000013847
      7        1          -0.000046441    0.000048241   -0.000000000
      8        1           0.000031040    0.000004717   -0.000000000
 -------------------------------------------------------------------
 Cartesian Forces:  Max     0.000108158 RMS     0.000035942
 FormGI is forming the generalized inverse of G from B-inverse, IUseBI=4.

 GradGradGradGradGradGradGradGradGradGradGradGradGradGradGradGradGradGrad
 Berny optimization.
 Internal  Forces:  Max     0.000073464 RMS     0.000030261
 Search for a local minimum.
 Step number   1 out of a maximum of    2
 All quantities printed in internal units (Hartrees-Bohrs-Radians)
 Second derivative matrix not updated -- analytic derivatives used.
 ITU=  0
     Eigenvalues ---    0.00188   0.03104   0.04585   0.05535   0.05715
     Eigenvalues ---    0.11338   0.12166   0.13881   0.14900   0.17887
     Eigenvalues ---    0.21159   0.30759   0.32105   0.32968   0.33823
     Eigenvalues ---    0.34671   0.42783   0.74033
 Angle between quadratic step and forces=  41.57 degrees.
 Linear search not attempted -- first point.
 Iteration  1 RMS(Cart)=  0.00032851 RMS(Int)=  0.00000008
 Iteration  2 RMS(Cart)=  0.00000008 RMS(Int)=  0.00000002
 ClnCor:  largest displacement from symmetrization is 1.21D-11 for atom     8.
 Variable       Old X    -DE/DX   Delta X   Delta X   Delta X     New X
                                 (Linear)    (Quad)   (Total)
    R1        2.82426  -0.00002   0.00000  -0.00015  -0.00015   2.82411
    R2        2.05547   0.00001   0.00000   0.00002   0.00002   2.05549
    R3        2.06513   0.00003   0.00000   0.00011   0.00011   2.06523
    R4        2.06513   0.00003   0.00000   0.00011   0.00011   2.06523
    R5        2.39328   0.00007   0.00000   0.00005   0.00005   2.39333
    R6        2.07303   0.00006   0.00000   0.00022   0.00022   2.07325
    R7        1.92503   0.00002   0.00000   0.00003   0.00003   1.92506
    A1        1.92821   0.00003   0.00000   0.00047   0.00047   1.92868
    A2        1.92564  -0.00001   0.00000  -0.00012  -0.00012   1.92552
    A3        1.92564  -0.00001   0.00000  -0.00012  -0.00012   1.92552
    A4        1.91038  -0.00000   0.00000   0.00003   0.00003   1.91041
    A5        1.91038  -0.00000   0.00000   0.00003   0.00003   1.91041
    A6        1.86240  -0.00002   0.00000  -0.00032  -0.00032   1.86208
    A7        2.12893   0.00006   0.00000   0.00036   0.00036   2.12929
    A8        2.01696  -0.00006   0.00000  -0.00043  -0.00043   2.01652
    A9        2.13729  -0.00000   0.00000   0.00008   0.00008   2.13737
   A10        1.94377   0.00005   0.00000   0.00021   0.00021   1.94398
    D1        0.00000   0.00000   0.00000   0.00000   0.00000   0.00000
    D2        3.14159  -0.00000   0.00000   0.00000   0.00000   3.14159
    D3        2.11480   0.00001   0.00000   0.00027   0.00027   2.11507
    D4       -1.02679   0.00001   0.00000   0.00027   0.00027  -1.02652
    D5       -2.11480  -0.00001   0.00000  -0.00027  -0.00027  -2.11507
    D6        1.02679  -0.00001   0.00000  -0.00027  -0.00027   1.02652
    D7        3.14159  -0.00000   0.00000  -0.00000   0.00000   3.14159
    D8        0.00000  -0.00000   0.00000  -0.00000   0.00000   0.00000
         Item               Value     Threshold  Converged?
 Maximum Force            0.000073     0.000450     YES
 RMS     Force            0.000030     0.000300     YES
 Maximum Displacement     0.000688     0.001800     YES
 RMS     Displacement     0.000329     0.001200     YES
 Predicted change in Energy=-5.936937D-08
 Optimization completed.
    -- Stationary point found.
                           ----------------------------
                           !   Optimized Parameters   !
                           ! (Angstroms and Degrees)  !
 --------------------------                            --------------------------
 ! Name  Definition              Value          Derivative Info.                !
 --------------------------------------------------------------------------------
 ! R1    R(1,2)                  1.4945         -DE/DX =    0.0                 !
 ! R2    R(1,4)                  1.0877         -DE/DX =    0.0                 !
 ! R3    R(1,5)                  1.0928         -DE/DX =    0.0                 !
 ! R4    R(1,6)                  1.0928         -DE/DX =    0.0                 !
 ! R5    R(2,3)                  1.2665         -DE/DX =    0.0001              !
 ! R6    R(2,7)                  1.097          -DE/DX =    0.0001              !
 ! R7    R(3,8)                  1.0187         -DE/DX =    0.0                 !
 ! A1    A(2,1,4)              110.4784         -DE/DX =    0.0                 !
 ! A2    A(2,1,5)              110.3311         -DE/DX =    0.0                 !
 ! A3    A(2,1,6)              110.3311         -DE/DX =    0.0                 !
 ! A4    A(4,1,5)              109.4569         -DE/DX =    0.0                 !
 ! A5    A(4,1,6)              109.4569         -DE/DX =    0.0                 !
 ! A6    A(5,1,6)              106.7075         -DE/DX =    0.0                 !
 ! A7    A(1,2,3)              121.979          -DE/DX =    0.0001              !
 ! A8    A(1,2,7)              115.5631         -DE/DX =   -0.0001              !
 ! A9    A(3,2,7)              122.4579         -DE/DX =    0.0                 !
 ! A10   A(2,3,8)              111.3698         -DE/DX =    0.0                 !
 ! D1    D(4,1,2,3)              0.0            -DE/DX =    0.0                 !
 ! D2    D(4,1,2,7)            180.0            -DE/DX =    0.0                 !
 ! D3    D(5,1,2,3)            121.1693         -DE/DX =    0.0                 !
 ! D4    D(5,1,2,7)            -58.8307         -DE/DX =    0.0                 !
 ! D5    D(6,1,2,3)           -121.1693         -DE/DX =    0.0                 !
 ! D6    D(6,1,2,7)             58.8307         -DE/DX =    0.0                 !
 ! D7    D(1,2,3,8)            180.0            -DE/DX =    0.0                 !
 ! D8    D(7,2,3,8)              0.0            -DE/DX =    0.0                 !
 --------------------------------------------------------------------------------
 GradGradGradGradGradGradGradGradGradGradGradGradGradGradGradGradGradGrad


 ----------------------------------------------------------------------

 Electric dipole moment (input orientation):
 (Debye = 10**-18 statcoulomb cm , SI units = C m)
                  (au)            (Debye)         (10**-30 SI)
   Tot        0.819960D+00      0.208413D+01      0.695191D+01
   x         -0.613353D+00     -0.155899D+01     -0.520023D+01
   y          0.544181D+00      0.138317D+01      0.461376D+01
   z          0.000000D+00      0.000000D+00      0.000000D+00

 Dipole polarizability, Alpha (input orientation).
 (esu units = cm**3 , SI units = C**2 m**2 J**-1)
 Alpha(0;0):
               (au)            (10**-24 esu)      (10**-40 SI)
   iso        0.339929D+02      0.503723D+01      0.560468D+01
   aniso      0.162832D+02      0.241292D+01      0.268474D+01
   xx         0.436670D+02      0.647078D+01      0.719971D+01
   yx         0.182849D+01      0.270954D+00      0.301477D+00
   yy         0.330091D+02      0.489145D+01      0.544247D+01
   zx         0.000000D+00      0.000000D+00      0.000000D+00
   zy         0.000000D+00      0.000000D+00      0.000000D+00
   zz         0.253027D+02      0.374947D+01      0.417185D+01

 ----------------------------------------------------------------------

 Dipole orientation:
     6         -1.45784045         -1.64315047          0.64868800
     6          0.41567620          0.46851392          0.56368498
     7          1.21594345          1.37050529         -1.50362554
     1         -1.97334074         -2.22417739         -1.25436866
     1         -0.67437034         -3.25671201          1.67208452
     1         -3.15322329         -1.05741732          1.67208452
     1          1.04642828          1.17944259          2.40601773
     1          2.47819303          2.79320280         -1.20631851

 Electric dipole moment (dipole orientation):
 (Debye = 10**-18 statcoulomb cm , SI units = C m)
                  (au)            (Debye)         (10**-30 SI)
   Tot        0.819960D+00      0.208413D+01      0.695191D+01
   x          0.000000D+00      0.000000D+00      0.000000D+00
   y          0.000000D+00      0.000000D+00      0.000000D+00
   z          0.819960D+00      0.208413D+01      0.695191D+01

 Dipole polarizability, Alpha (dipole orientation).
 (esu units = cm**3 , SI units = C**2 m**2 J**-1)
 Alpha(0;0):
               (au)            (10**-24 esu)      (10**-40 SI)
   iso        0.339929D+02      0.503723D+01      0.560468D+01
   aniso      0.162832D+02      0.241292D+01      0.268474D+01
   xx         0.315643D+02      0.467734D+01      0.520425D+01
   yx         0.705751D+01      0.104582D+01      0.116363D+01
   yy         0.332573D+02      0.492822D+01      0.548339D+01
   zx        -0.365598D+01     -0.541761D+00     -0.602790D+00
   zy        -0.412071D+01     -0.610626D+00     -0.679413D+00
   zz         0.371572D+02      0.550613D+01      0.612639D+01

 ----------------------------------------------------------------------
 1\1\GINC-GAMBA\Freq\RB3LYP\Gen\C2H5N1\IRIKURA\08-Sep-2023\0\\#N Geom=A
 llCheck Guess=TCheck SCRF=Check GenChk RB3LYP/ChkBas Freq\\ethanimine,
  B3LYP/pcseg-2\\0,1\C,-1.0282321456,-0.6417000999,0.\C,-0.0031622941,0
 .445891714,0.\N,1.2386436445,0.1971704516,0.\H,-0.5477185403,-1.617515
 2783,0.\H,-1.6746144215,-0.5542373546,0.8768072407\H,-1.6746144215,-0.
 5542373546,-0.8768072407\H,-0.3986503679,1.4691218489,0.\H,1.788911546
 7,1.0544430729,0.\\Version=ES64L-G16RevB.01\State=1-A'\HF=-134.0143055
 \RMSD=8.123e-10\RMSF=3.594e-05\ZeroPoint=0.0683053\Thermal=0.0722373\D
 ipole=-0.6133532,0.5441809,0.\DipoleDeriv=-0.1637346,-0.133338,0.,-0.1
 477071,-0.0805721,0.,0.,0.,0.1080109,0.8378693,0.1013075,0.,0.1258006,
 0.5169858,0.,0.,0.,-0.0414887,-0.8639357,-0.0319693,0.,0.1449296,-0.26
 87347,0.,0.,0.,-0.4501755,0.0272604,0.0841238,0.,0.0045042,-0.0593258,
 0.,0.,0.,0.0750244,0.0118029,-0.0111178,0.070974,-0.0275602,0.0477374,
 -0.0440956,0.1075604,-0.0119306,-0.0386359,0.0118029,-0.0111178,-0.070
 974,-0.0275602,0.0477374,0.0440956,-0.1075604,0.0119306,-0.0386359,-0.
 0614651,0.0616289,0.,0.0946782,-0.204597,0.,0.,0.,0.1418241,0.2003998,
 -0.0595175,0.,-0.167085,0.000769,0.,0.,0.,0.2440766\Polar=43.666963,1.
 8284862,33.0091088,0.,0.,25.3026875\Quadrupole=-0.5817549,1.048787,-0.
 4670321,1.9252354,0.,0.\PG=CS [SG(C2H3N1),X(H2)]\NImag=0\\0.53034208,-
 0.05420316,0.54184863,0.,0.,0.52294484,-0.12694439,-0.06206520,0.,0.87
 153130,-0.05658285,-0.17463334,0.,-0.07276047,0.59782213,0.,0.,-0.0775
 0553,0.,0.,0.18078794,-0.04455132,-0.00620146,0.,-0.60590316,0.1244267
 3,0.,0.80875984,-0.02960233,0.01396438,0.,0.06413452,-0.13512782,0.,0.
 06698747,0.43488483,0.,0.,-0.00324673,0.,0.,-0.05173610,0.,0.,0.061917
 74,-0.10260574,0.11077960,0.,0.01208064,-0.02323566,0.,0.00179114,0.00
 138678,0.,0.10709209,0.10612305,-0.26225103,0.,0.01255702,-0.02640072,
 0.,0.00148217,0.00391064,0.,-0.11654638,0.28648902,0.,0.,-0.04812834,0
 .,0.,-0.00063266,0.,0.,-0.00105884,0.,0.,0.04577783,-0.13082861,0.0139
 9004,0.12510258,-0.01704814,0.00384654,0.01834368,-0.00123851,-0.00374
 231,0.00158478,-0.00781348,-0.00011555,0.01045962,0.14526889,0.0125024
 4,-0.05089357,-0.01659483,-0.01375776,0.00481770,0.02190739,-0.0016400
 0,-0.00237587,0.00029764,0.01526697,-0.00026549,-0.02388405,-0.0116224
 2,0.04872435,0.12400152,-0.01767009,-0.21017554,-0.00165373,-0.0002013
 0,0.00188821,-0.00042107,0.00037489,-0.00021541,-0.00169417,-0.0003514
 4,0.00105064,-0.13605332,0.01944500,0.22987732,-0.13082861,0.01399004,
 -0.12510258,-0.01704814,0.00384654,-0.01834368,-0.00123851,-0.00374231
 ,-0.00158478,-0.00781348,-0.00011555,-0.01045962,0.01187425,-0.0012847
 9,0.01563471,0.14526889,0.01250244,-0.05089357,0.01659483,-0.01375776,
 0.00481770,-0.02190739,-0.00164000,-0.00237587,-0.00029764,0.01526697,
 -0.00026549,0.02388405,-0.00128479,-0.00045672,-0.00215690,-0.01162242
 ,0.04872435,-0.12400152,0.01767009,-0.21017554,0.00165373,0.00020130,0
 .00188821,0.00042107,-0.00037489,-0.00021541,0.00169417,0.00035144,0.0
 0105064,-0.01563471,0.00215690,-0.02232794,0.13605332,-0.01944500,0.22
 987732,0.00902820,-0.02021276,0.,-0.08064373,0.06405149,0.,-0.02465074
 ,0.03840046,0.,-0.00302775,-0.00366823,0.,0.00058082,0.00122423,0.0003
 1162,0.00058082,0.00122423,-0.00031162,0.09513994,0.00963337,-0.018948
 99,0.,0.06512585,-0.26813673,0.,0.01169133,-0.00326788,0.,-0.00343212,
 -0.00227641,0.,-0.00043307,0.00019459,0.00066897,-0.00043307,0.0001945
 9,-0.00066897,-0.08204400,0.28758023,0.,0.,0.00753292,0.,0.,-0.0552943
 4,0.,0.,0.03153967,0.,0.,0.00215700,-0.00101075,-0.00119925,0.00023165
 ,0.00101075,0.00119925,0.00023165,0.,0.,0.02542450,-0.00361160,0.00392
 289,0.,-0.03602438,-0.04359232,0.,-0.13296875,-0.13382228,0.,0.0002965
 7,0.00028347,0.,-0.00079523,-0.00068866,-0.00012555,-0.00079523,-0.000
 68866,0.00012555,0.00299244,-0.00010829,0.,0.17090616,-0.00037296,0.00
 180750,0.,0.02052380,-0.00315892,0.,-0.19510623,-0.30961242,0.,0.00051
 384,0.00105949,0.,-0.00063844,0.00025501,-0.00010912,-0.00063844,0.000
 25501,0.00010912,0.00102457,0.00466061,0.,0.17469387,0.30473373,0.,0.,
 0.01875393,0.,0.,0.00060426,0.,0.,-0.03698492,0.,0.,-0.00021626,-0.002
 79189,-0.00212879,-0.00032892,0.00279189,0.00212879,-0.00032892,0.,0.,
 -0.01182305,0.,0.,0.03032389\\-0.00007616,-0.00002704,0.,0.00003627,0.
 00010816,0.,-0.00004968,-0.00002336,0.,0.00001322,0.00001759,0.,0.0000
 3047,-0.00001120,-0.00001385,0.00003047,-0.00001120,0.00001385,0.00004
 644,-0.00004824,0.,-0.00003104,-0.00000472,0.\\\@


 TIME GOES, YOU SAY?  AH NO!
 ALAS, TIME STAYS, WE GO.
    -- A. DOBSON (1840-1921)
 Job cpu time:       0 days  0 hours  5 minutes 44.8 seconds.
 Elapsed time:       0 days  0 hours  0 minutes 57.6 seconds.
 File lengths (MBytes):  RWF=     21 Int=      0 D2E=      0 Chk=      3 Scr=      1
 Normal termination of Gaussian 16 at Fri Sep  8 17:53:44 2023.
