 Entering Gaussian System, Link 0=g16
 AtFile(1): pcseg2.gbs
            -H     0
            S   4   1.00
                  0.754732D+02           0.427821D-02
                  0.113575D+02           0.328672D-01
                  0.260081D+01           0.159578D+00
                  0.735503D+00           0.500000D+00
            S   1   1.00
                  0.231761D+00           1.0000000
            S   1   1.00
                  0.741675D-01           1.0000000
            P   1   1.00
                  0.160000D+01           1.0000000
            P   1   1.00
                  0.450000D+00           1.0000000
            D   1   1.00
                  0.125000D+01           1.0000000
            ****
            -C     0
            S   7   1.00
                  0.731999D+04           0.695369D-03
                  0.109818D+04           0.537138D-02
                  0.250014D+03           0.274734D-01
                  0.707586D+02           0.105078D+00
                  0.228595D+02           0.291262D+00
                  0.803936D+01           0.500000D+00
                  0.289309D+01           0.362224D+00
            S   2   1.00
                  0.521640D+01          -0.957844D-01
                  0.556124D+00           0.500000D+00
            S   1   1.00
                  0.228813D+00           1.0000000
            S   1   1.00
                  0.936338D-01           1.0000000
            P   4   1.00
                  0.339855D+02           0.818395D-02
                  0.772957D+01           0.586921D-01
                  0.224954D+01           0.222514D+00
                  0.767681D+00           0.500000D+00
            P   1   1.00
                  0.263283D+00           1.0000000
            P   1   1.00
                  0.848744D-01           1.0000000
            D   1   1.00
                  0.140000D+01           1.0000000
            D   1   1.00
                  0.450000D+00           1.0000000
            F   1   1.00
                  0.950000D+00           1.0000000
            ****
            -O     0
            S   7   1.00
                  0.135887D+05           0.665492D-03
                  0.203847D+04           0.514222D-02
                  0.464041D+03           0.263472D-01
                  0.131339D+03           0.101500D+00
                  0.425340D+02           0.285877D+00
                  0.150429D+02           0.500000D+00
                  0.546616D+01           0.368211D+00
            S   2   1.00
                  0.100915D+02          -0.100084D+00
                  0.110429D+01           0.500000D+00
            S   1   1.00
                  0.448082D+00           1.0000000
            S   1   1.00
                  0.175325D+00           1.0000000
            P   4   1.00
                  0.608220D+02           0.908253D-02
                  0.140332D+02           0.645878D-01
                  0.418244D+01           0.241502D+00
                  0.142490D+01           0.500000D+00
            P   1   1.00
                  0.478741D+00           1.0000000
            P   1   1.00
                  0.146257D+00           1.0000000
            D   1   1.00
                  0.220000D+01           1.0000000
            D   1   1.00
                  0.650000D+00           1.0000000
            F   1   1.00
                  0.110000D+01           1.0000000
            ****
            -N     0
            S   7   1.00
                  0.101643D+05           0.682757D-03
                  0.152481D+04           0.527488D-02
                  0.347119D+03           0.270037D-01
                  0.982389D+02           0.103673D+00
                  0.317799D+02           0.289575D+00
                  0.112240D+02           0.500000D+00
                  0.406611D+01           0.364621D+00
            S   2   1.00
                  0.747898D+01          -0.975681D-01
                  0.805040D+00           0.500000D+00
            S   1   1.00
                  0.324626D+00           1.0000000
            S   1   1.00
                  0.128132D+00           1.0000000
            P   4   1.00
                  0.482704D+02           0.829547D-02
                  0.110815D+02           0.596223D-01
                  0.326643D+01           0.227889D+00
                  0.111680D+01           0.500000D+00
            P   1   1.00
                  0.382049D+00           1.0000000
            P   1   1.00
                  0.121222D+00           1.0000000
            D   1   1.00
                  0.180000D+01           1.0000000
            D   1   1.00
                  0.550000D+00           1.0000000
            F   1   1.00
                  0.102000D+01           1.0000000
            ****
            -F     0
            S   7   1.00
                  0.174507D+05           0.655972D-03
                  0.261768D+04           0.506944D-02
                  0.595857D+03           0.259899D-01
                  0.168651D+03           0.100353D+00
                  0.546654D+02           0.284095D+00
                  0.193717D+02           0.500000D+00
                  0.706202D+01           0.370721D+00
            S   2   1.00
                  0.131197D+02          -0.101997D+00
                  0.145046D+01           0.500000D+00
            S   1   1.00
                  0.588255D+00           1.0000000
            S   1   1.00
                  0.227960D+00           1.0000000
            P   4   1.00
                  0.779407D+02           0.931135D-02
                  0.180425D+02           0.663964D-01
                  0.542342D+01           0.246386D+00
                  0.184876D+01           0.500000D+00
            P   1   1.00
                  0.617455D+00           1.0000000
            P   1   1.00
                  0.185496D+00           1.0000000
            D   1   1.00
                  0.280000D+01           1.0000000
            D   1   1.00
                  0.800000D+00           1.0000000
            F   1   1.00
                  0.120000D+01           1.0000000
            ****
            -Cl     0
            S   8   1.00
                  0.154272D+06           0.222473D-03
                  0.231232D+05           0.172590D-02
                  0.526257D+04           0.899286D-02
                  0.148995D+04           0.367724D-01
                  0.485417D+03           0.121446D+00
                  0.174634D+03           0.304148D+00
                  0.672393D+02           0.500000D+00
                  0.265780D+02           0.360252D+00
            S   3   1.00
                  0.131826D+03          -0.531330D-01
                  0.400703D+02          -0.233346D+00
                  0.789448D+01           0.500000D+00
            S   2   1.00
                  0.427711D+01           0.500000D+00
                  0.196233D+01           0.370517D+00
            S   1   1.00
                  0.520793D+00           1.0000000
            S   1   1.00
                  0.181633D+00           1.0000000
            P   7   1.00
                  0.124440D+04           0.988206D-03
                  0.295109D+03           0.829674D-02
                  0.947224D+02           0.430906D-01
                  0.352588D+02           0.148443D+00
                  0.144211D+02           0.344744D+00
                  0.610371D+01           0.500000D+00
                  0.258886D+01           0.348278D+00
            P   2   1.00
                  0.109447D+02          -0.196768D-01
                  0.104413D+01           0.500000D+00
            P   1   1.00
                  0.376184D+00           1.0000000
            P   1   1.00
                  0.120613D+00           1.0000000
            D   1   1.00
                  0.231000D+01           1.0000000
            D   1   1.00
                  0.520000D+00           1.0000000
            F   1   1.00
                  0.720000D+00           1.0000000
            ****
            -S     0
            S   8   1.00
                  0.134700D+06           0.226231D-03
                  0.201904D+05           0.175488D-02
                  0.459528D+04           0.914190D-02
                  0.130109D+04           0.373551D-01
                  0.423902D+03           0.123121D+00
                  0.152485D+03           0.306801D+00
                  0.586925D+02           0.500000D+00
                  0.231461D+02           0.354358D+00
            S   3   1.00
                  0.116327D+03          -0.491772D-01
                  0.352841D+02          -0.215962D+00
                  0.677831D+01           0.500000D+00
            S   2   1.00
                  0.360404D+01           0.500000D+00
                  0.164871D+01           0.366278D+00
            S   1   1.00
                  0.421821D+00           1.0000000
            S   1   1.00
                  0.147554D+00           1.0000000
            P   7   1.00
                  0.104863D+04           0.105273D-02
                  0.248717D+03           0.879338D-02
                  0.797887D+02           0.453358D-01
                  0.296023D+02           0.154476D+00
                  0.120627D+02           0.352366D+00
                  0.507628D+01           0.500000D+00
                  0.213375D+01           0.346429D+00
            P   2   1.00
                  0.928958D+01          -0.185932D-01
                  0.837819D+00           0.500000D+00
            P   1   1.00
                  0.301495D+00           1.0000000
            P   1   1.00
                  0.974740D-01           1.0000000
            D   1   1.00
                  0.210000D+01           1.0000000
            D   1   1.00
                  0.480000D+00           1.0000000
            F   1   1.00
                  0.660000D+00           1.0000000
            ****
            -Br     0
            S    10   1.00
                  0.233625D+07           0.532336D-04
                  0.349961D+06           0.413715D-03
                  0.796444D+05           0.217123D-02
                  0.225555D+05           0.910109D-02
                  0.735546D+04           0.323789D-01
                  0.265352D+04           0.988755D-01
                  0.103517D+04           0.248138D+00
                  0.422205D+03           0.474328D+00
                  0.180035D+03           0.500000D+00
                  0.793308D+02           0.187769D+00
            S    4   1.00
                  0.620834D+03          -0.226511D-01
                  0.190829D+03          -0.109497D+00
                  0.312505D+02           0.500000D+00
                  0.135270D+02           0.492812D+00
            S    2   1.00
                  0.216097D+02          -0.165418D+00
                  0.372566D+01           0.500000D+00
            S    1   1.00
                  0.169770D+01           1.0000000
            S    1   1.00
                  0.489332D+00           1.0000000
            S    1   1.00
                  0.175712D+00           1.0000000
            P    8   1.00
                  0.960829D+04           0.478974D-03
                  0.227618D+04           0.417853D-02
                  0.736723D+03           0.229315D-01
                  0.281579D+03           0.892653D-01
                  0.118395D+03           0.255288D+00
                  0.527481D+02           0.479074D+00
                  0.245098D+02           0.500000D+00
                  0.112009D+02           0.200944D+00
            P    4   1.00
                  0.587849D+02          -0.189674D-01
                  0.918962D+01           0.264104D+00
                  0.413895D+01           0.500000D+00
                  0.184225D+01           0.319316D+00
            P    1   1.00
                  0.713862D+00           1.0000000
            P    1   1.00
                  0.274232D+00           1.0000000
            P    1   1.00
                  0.944411D-01           1.0000000
            D    7   1.00
                  0.398470D+03           0.204066D-02
                  0.118967D+03           0.175171D-01
                  0.450197D+02           0.829708D-01
                  0.190320D+02           0.236284D+00
                  0.855686D+01           0.428468D+00
                  0.382950D+01           0.500000D+00
                  0.166291D+01           0.349360D+00
            D    1   1.00
                  0.672953D+00           1.0000000
            D    1   1.00
                  0.252000D+00           1.0000000
            F    1   1.00
                  0.530000D+00           1.0000000
            ****
            -Si     0
            S    8   1.00
                  0.996133D+05           0.235546D-03
                  0.149311D+05           0.182707D-02
                  0.339820D+04           0.951425D-02
                  0.962140D+03           0.388172D-01
                  0.313430D+03           0.127328D+00
                  0.112683D+03           0.313522D+00
                  0.433372D+02           0.500000D+00
                  0.170029D+02           0.340347D+00
            S    3   1.00
                  0.884208D+02          -0.404451D-01
                  0.266756D+02          -0.178059D+00
                  0.479640D+01           0.500000D+00
            S    2   1.00
                  0.239385D+01           0.500000D+00
                  0.108333D+01           0.338016D+00
            S    1   1.00
                  0.252420D+00           1.0000000
            S    1   1.00
                  0.891210D-01           1.0000000
            P    7   1.00
                  0.709901D+03           0.123028D-02
                  0.168426D+03           0.101366D-01
                  0.539946D+02           0.511840D-01
                  0.198646D+02           0.169967D+00
                  0.801369D+01           0.370717D+00
                  0.331870D+01           0.500000D+00
                  0.136112D+01           0.344128D+00
            P    2   1.00
                  0.622158D+01          -0.166609D-01
                  0.503049D+00           0.500000D+00
            P    1   1.00
                  0.179848D+00           1.0000000
            P    1   1.00
                  0.591912D-01           1.0000000
            D    1   1.00
                  0.168000D+01           1.0000000
            D    1   1.00
                  0.380000D+00           1.0000000
            F    1   1.00
                  0.540000D+00           1.0000000
            ****
            -P     0
            S    8   1.00
                  0.116416D+06           0.230715D-03
                  0.174500D+05           0.178960D-02
                  0.397149D+04           0.932116D-02
                  0.112447D+04           0.380591D-01
                  0.366347D+03           0.125148D+00
                  0.131757D+03           0.310022D+00
                  0.506988D+02           0.500000D+00
                  0.199436D+02           0.347528D+00
            S    3   1.00
                  0.101878D+03          -0.446755D-01
                  0.308249D+02          -0.196376D+00
                  0.573688D+01           0.500000D+00
            S    2   1.00
                  0.296868D+01           0.500000D+00
                  0.135315D+01           0.355098D+00
            S    1   1.00
                  0.332196D+00           1.0000000
            S    1   1.00
                  0.116229D+00           1.0000000
            P    7   1.00
                  0.873928D+03           0.112375D-02
                  0.207298D+03           0.933330D-02
                  0.664628D+02           0.477213D-01
                  0.245665D+02           0.160733D+00
                  0.996820D+01           0.359760D+00
                  0.416536D+01           0.500000D+00
                  0.173022D+01           0.346593D+00
            P    2   1.00
                  0.772530D+01          -0.175718D-01
                  0.657252D+00           0.500000D+00
            P    1   1.00
                  0.239903D+00           1.0000000
            P    1   1.00
                  0.800988D-01           1.0000000
            D    1   1.00
                  0.189000D+01           1.0000000
            D    1   1.00
                  0.430000D+00           1.0000000
            F    1   1.00
                  0.600000D+00           1.0000000
            ****
            
 Initial command:
 /usr/local/apps/g16_b01_avx/g16/l1.exe "/wrk/irikura/Gau-346018.inp" -scrdir="/wrk/irikura/"
 Entering Link 1 = /usr/local/apps/g16_b01_avx/g16/l1.exe PID=    346020.
  
 Copyright (c) 1988-2017, Gaussian, Inc.  All Rights Reserved.
  
 This is part of the Gaussian(R) 16 program.  It is based on
 the Gaussian(R) 09 system (copyright 2009, Gaussian, Inc.),
 the Gaussian(R) 03 system (copyright 2003, Gaussian, Inc.),
 the Gaussian(R) 98 system (copyright 1998, Gaussian, Inc.),
 the Gaussian(R) 94 system (copyright 1995, Gaussian, Inc.),
 the Gaussian 92(TM) system (copyright 1992, Gaussian, Inc.),
 the Gaussian 90(TM) system (copyright 1990, Gaussian, Inc.),
 the Gaussian 88(TM) system (copyright 1988, Gaussian, Inc.),
 the Gaussian 86(TM) system (copyright 1986, Carnegie Mellon
 University), and the Gaussian 82(TM) system (copyright 1983,
 Carnegie Mellon University). Gaussian is a federally registered
 trademark of Gaussian, Inc.
  
 This software contains proprietary and confidential information,
 including trade secrets, belonging to Gaussian, Inc.
  
 This software is provided under written license and may be
 used, copied, transmitted, or stored only in accord with that
 written license.
  
 The following legend is applicable only to US Government
 contracts under FAR:
  
                    RESTRICTED RIGHTS LEGEND
  
 Use, reproduction and disclosure by the US Government is
 subject to restrictions as set forth in subparagraphs (a)
 and (c) of the Commercial Computer Software - Restricted
 Rights clause in FAR 52.227-19.
  
 Gaussian, Inc.
 340 Quinnipiac St., Bldg. 40, Wallingford CT 06492
  
  
 ---------------------------------------------------------------
 Warning -- This program may not be used in any manner that
 competes with the business of Gaussian, Inc. or will provide
 assistance to any competitor of Gaussian, Inc.  The licensee
 of this program is prohibited from giving any competitor of
 Gaussian, Inc. access to this program.  By using this program,
 the user acknowledges that Gaussian, Inc. is engaged in the
 business of creating and licensing software in the field of
 computational chemistry and represents and warrants to the
 licensee that it is not a competitor of Gaussian, Inc. and that
 it will not use this program in any manner prohibited above.
 ---------------------------------------------------------------
  

 Cite this work as:
 Gaussian 16, Revision B.01,
 M. J. Frisch, G. W. Trucks, H. B. Schlegel, G. E. Scuseria, 
 M. A. Robb, J. R. Cheeseman, G. Scalmani, V. Barone, 
 G. A. Petersson, H. Nakatsuji, X. Li, M. Caricato, A. V. Marenich, 
 J. Bloino, B. G. Janesko, R. Gomperts, B. Mennucci, H. P. Hratchian, 
 J. V. Ortiz, A. F. Izmaylov, J. L. Sonnenberg, D. Williams-Young, 
 F. Ding, F. Lipparini, F. Egidi, J. Goings, B. Peng, A. Petrone, 
 T. Henderson, D. Ranasinghe, V. G. Zakrzewski, J. Gao, N. Rega, 
 G. Zheng, W. Liang, M. Hada, M. Ehara, K. Toyota, R. Fukuda, 
 J. Hasegawa, M. Ishida, T. Nakajima, Y. Honda, O. Kitao, H. Nakai, 
 T. Vreven, K. Throssell, J. A. Montgomery, Jr., J. E. Peralta, 
 F. Ogliaro, M. J. Bearpark, J. J. Heyd, E. N. Brothers, K. N. Kudin, 
 V. N. Staroverov, T. A. Keith, R. Kobayashi, J. Normand, 
 K. Raghavachari, A. P. Rendell, J. C. Burant, S. S. Iyengar, 
 J. Tomasi, M. Cossi, J. M. Millam, M. Klene, C. Adamo, R. Cammi, 
 J. W. Ochterski, R. L. Martin, K. Morokuma, O. Farkas, 
 J. B. Foresman, and D. J. Fox, Gaussian, Inc., Wallingford CT, 2016.
 
 ******************************************
 Gaussian 16:  ES64L-G16RevB.01 20-Dec-2017
                29-Sep-2023 
 ******************************************
 %chk=ch3chf2.chk
 %mem=500mw
 %nprocs=4
 Will use up to    4 processors via shared memory.
 ---------------------------------------
 # b3lyp/gen opt freq CPHF(Grid=OneStep)
 ---------------------------------------
 1/18=20,19=15,26=3,38=1/1,3;
 2/9=110,12=2,17=6,18=5,40=1/2;
 3/5=7,11=2,25=1,30=1,71=1,74=-5/1,2,3;
 4//1;
 5/5=2,38=5/2;
 6/7=2,8=2,9=2,10=2,28=1/1;
 7//1,2,3,16;
 1/18=20,19=15,26=3/3(2);
 2/9=110/2;
 99//99;
 2/9=110/2;
 3/5=7,6=1,11=2,25=1,30=1,71=1,74=-5,82=7/1,2,3;
 4/5=5,16=3,69=1/1;
 5/5=2,38=5/2;
 7//1,2,3,16;
 1/18=20,19=15,26=3/3(-5);
 2/9=110/2;
 6/7=2,8=2,9=2,10=2,19=2,28=1/1;
 99/9=1/99;
 ---------------------------------
 1,1-difluoroethane, B3LYP/pcseg-2
 ---------------------------------
 Symbolic Z-matrix:
 Charge =  0 Multiplicity = 1
 C                     0.32121   0.16568   0. 
 C                    -0.89791   1.04372   0. 
 H                     1.26742   0.70884   0. 
 F                     0.32121  -0.65229   1.10219 
 F                     0.32121  -0.65229  -1.10219 
 H                    -1.79347   0.42434   0. 
 H                    -0.89777   1.67584   0.88656 
 H                    -0.89777   1.67584  -0.88656 
 

 GradGradGradGradGradGradGradGradGradGradGradGradGradGradGradGradGradGrad
 Berny optimization.
 Initialization pass.
                           ----------------------------
                           !    Initial Parameters    !
                           ! (Angstroms and Degrees)  !
 --------------------------                            --------------------------
 ! Name  Definition              Value          Derivative Info.                !
 --------------------------------------------------------------------------------
 ! R1    R(1,2)                  1.5024         estimate D2E/DX2                !
 ! R2    R(1,3)                  1.091          estimate D2E/DX2                !
 ! R3    R(1,4)                  1.3726         estimate D2E/DX2                !
 ! R4    R(1,5)                  1.3726         estimate D2E/DX2                !
 ! R5    R(2,6)                  1.0889         estimate D2E/DX2                !
 ! R6    R(2,7)                  1.0888         estimate D2E/DX2                !
 ! R7    R(2,8)                  1.0888         estimate D2E/DX2                !
 ! A1    A(2,1,3)              114.3804         estimate D2E/DX2                !
 ! A2    A(2,1,4)              110.3826         estimate D2E/DX2                !
 ! A3    A(2,1,5)              110.3826         estimate D2E/DX2                !
 ! A4    A(3,1,4)              107.2589         estimate D2E/DX2                !
 ! A5    A(3,1,5)              107.2589         estimate D2E/DX2                !
 ! A6    A(4,1,5)              106.839          estimate D2E/DX2                !
 ! A7    A(1,2,6)              109.5695         estimate D2E/DX2                !
 ! A8    A(1,2,7)              109.8271         estimate D2E/DX2                !
 ! A9    A(1,2,8)              109.8271         estimate D2E/DX2                !
 ! A10   A(6,2,7)              109.2892         estimate D2E/DX2                !
 ! A11   A(6,2,8)              109.2892         estimate D2E/DX2                !
 ! A12   A(7,2,8)              109.0215         estimate D2E/DX2                !
 ! D1    D(3,1,2,6)            180.0            estimate D2E/DX2                !
 ! D2    D(3,1,2,7)            -59.9436         estimate D2E/DX2                !
 ! D3    D(3,1,2,8)             59.9436         estimate D2E/DX2                !
 ! D4    D(4,1,2,6)            -58.9433         estimate D2E/DX2                !
 ! D5    D(4,1,2,7)             61.1131         estimate D2E/DX2                !
 ! D6    D(4,1,2,8)           -178.9997         estimate D2E/DX2                !
 ! D7    D(5,1,2,6)             58.9433         estimate D2E/DX2                !
 ! D8    D(5,1,2,7)            178.9997         estimate D2E/DX2                !
 ! D9    D(5,1,2,8)            -61.1131         estimate D2E/DX2                !
 --------------------------------------------------------------------------------
 Trust Radius=3.00D-01 FncErr=1.00D-07 GrdErr=1.00D-06 EigMax=2.50D+02 EigMin=1.00D-04
 Number of steps in this run=     38 maximum allowed number of steps=    100.
 GradGradGradGradGradGradGradGradGradGradGradGradGradGradGradGradGradGrad

                          Input orientation:                          
 ---------------------------------------------------------------------
 Center     Atomic      Atomic             Coordinates (Angstroms)
 Number     Number       Type             X           Y           Z
 ---------------------------------------------------------------------
      1          6           0        0.321211    0.165682    0.000000
      2          6           0       -0.897912    1.043719    0.000000
      3          1           0        1.267424    0.708843    0.000000
      4          9           0        0.321211   -0.652293    1.102187
      5          9           0        0.321211   -0.652293   -1.102187
      6          1           0       -1.793473    0.424335    0.000000
      7          1           0       -0.897773    1.675844    0.886558
      8          1           0       -0.897773    1.675844   -0.886558
 ---------------------------------------------------------------------
                    Distance matrix (angstroms):
                    1          2          3          4          5
     1  C    0.000000
     2  C    1.502401   0.000000
     3  H    1.091028   2.191078   0.000000
     4  F    1.372552   2.361680   1.990685   0.000000
     5  F    1.372552   2.361680   1.990685   2.204374   0.000000
     6  H    2.130444   1.088883   3.074091   2.616454   2.616454
     7  H    2.133658   1.088838   2.531631   2.636786   3.295641
     8  H    2.133658   1.088838   2.531631   3.295641   2.636786
                    6          7          8
     6  H    0.000000
     7  H    1.776102   0.000000
     8  H    1.776102   1.773116   0.000000
 Stoichiometry    C2H4F2
 Framework group  CS[SG(C2H2),X(H2F2)]
 Deg. of freedom    11
 Full point group                 CS      NOp   2
 Largest Abelian subgroup         CS      NOp   2
 Largest concise Abelian subgroup CS      NOp   2
                         Standard orientation:                         
 ---------------------------------------------------------------------
 Center     Atomic      Atomic             Coordinates (Angstroms)
 Number     Number       Type             X           Y           Z
 ---------------------------------------------------------------------
      1          6           0        0.321211    0.165682    0.000000
      2          6           0       -0.897912    1.043719   -0.000000
      3          1           0        1.267424    0.708843    0.000000
      4          9           0        0.321211   -0.652293    1.102187
      5          9           0        0.321211   -0.652293   -1.102187
      6          1           0       -1.793473    0.424335   -0.000000
      7          1           0       -0.897773    1.675844    0.886558
      8          1           0       -0.897773    1.675844   -0.886558
 ---------------------------------------------------------------------
 Rotational constants (GHZ):           9.4151147           8.9283794           5.1352837
 General basis read from cards:  (5D, 7F)
 There are   120 symmetry adapted cartesian basis functions of A'  symmetry.
 There are    80 symmetry adapted cartesian basis functions of A"  symmetry.
 There are   104 symmetry adapted basis functions of A'  symmetry.
 There are    72 symmetry adapted basis functions of A"  symmetry.
   176 basis functions,   276 primitive gaussians,   200 cartesian basis functions
    17 alpha electrons       17 beta electrons
       nuclear repulsion energy       131.9488052761 Hartrees.
 NAtoms=    8 NActive=    8 NUniq=    6 SFac= 1.78D+00 NAtFMM=   60 NAOKFM=F Big=F
 Integral buffers will be    131072 words long.
 Raffenetti 2 integral format.
 Two-electron integral symmetry is turned on.
 One-electron integrals computed using PRISM.
 NBasis=   176 RedAO= T EigKep=  7.14D-04  NBF=   104    72
 NBsUse=   176 1.00D-06 EigRej= -1.00D+00 NBFU=   104    72
 ExpMin= 7.42D-02 ExpMax= 1.75D+04 ExpMxC= 5.96D+02 IAcc=3 IRadAn=         5 AccDes= 0.00D+00
 Harris functional with IExCor=  402 and IRadAn=       5 diagonalized for initial guess.
 HarFok:  IExCor=  402 AccDes= 0.00D+00 IRadAn=         5 IDoV= 1 UseB2=F ITyADJ=14
 ICtDFT=  3500011 ScaDFX=  1.000000  1.000000  1.000000  1.000000
 FoFCou: FMM=F IPFlag=           0 FMFlag=      100000 FMFlg1=           0
         NFxFlg=           0 DoJE=T BraDBF=F KetDBF=T FulRan=T
         wScrn=  0.000000 ICntrl=       500 IOpCl=  0 I1Cent=   200000004 NGrid=           0
         NMat0=    1 NMatS0=      1 NMatT0=    0 NMatD0=    1 NMtDS0=    0 NMtDT0=    0
 Petite list used in FoFCou.
 Initial guess orbital symmetries:
       Occupied  (A') (A") (A') (A') (A') (A") (A') (A') (A') (A")
                 (A') (A") (A') (A") (A') (A") (A')
       Virtual   (A') (A') (A") (A") (A') (A') (A') (A') (A") (A')
                 (A') (A") (A') (A') (A") (A') (A') (A') (A") (A')
                 (A') (A") (A') (A") (A") (A') (A') (A") (A') (A')
                 (A") (A') (A") (A") (A') (A') (A") (A') (A') (A')
                 (A") (A') (A") (A') (A') (A') (A") (A") (A') (A')
                 (A') (A") (A') (A") (A') (A") (A") (A') (A') (A')
                 (A") (A') (A') (A") (A") (A') (A') (A') (A") (A')
                 (A") (A") (A') (A') (A') (A") (A') (A") (A') (A")
                 (A') (A') (A") (A') (A") (A') (A") (A') (A") (A")
                 (A') (A") (A") (A') (A') (A") (A') (A") (A') (A')
                 (A") (A") (A') (A') (A') (A") (A") (A') (A") (A')
                 (A") (A') (A') (A") (A") (A') (A") (A') (A') (A")
                 (A') (A') (A") (A') (A') (A') (A") (A') (A') (A")
                 (A') (A') (A") (A') (A") (A') (A") (A") (A') (A')
                 (A") (A') (A") (A') (A') (A") (A') (A") (A') (A")
                 (A") (A') (A') (A") (A') (A") (A') (A") (A')
 The electronic state of the initial guess is 1-A'.
 Keep R1 ints in memory in symmetry-blocked form, NReq=182098907.
 Requested convergence on RMS density matrix=1.00D-08 within 128 cycles.
 Requested convergence on MAX density matrix=1.00D-06.
 Requested convergence on             energy=1.00D-06.
 No special actions if energy rises.
 Integral accuracy reduced to 1.0D-05 until final iterations.
 Initial convergence to 1.0D-05 achieved.  Increase integral accuracy.
 SCF Done:  E(RB3LYP) =  -278.435779677     A.U. after   11 cycles
            NFock= 11  Conv=0.44D-08     -V/T= 2.0030

 **********************************************************************

            Population analysis using the SCF Density.

 **********************************************************************

 Orbital symmetries:
       Occupied  (A") (A') (A') (A') (A') (A") (A') (A') (A') (A")
                 (A') (A") (A') (A") (A') (A") (A')
       Virtual   (A') (A') (A") (A') (A") (A') (A') (A') (A") (A')
                 (A") (A') (A') (A') (A') (A") (A') (A') (A") (A')
                 (A') (A") (A') (A") (A') (A") (A') (A") (A') (A")
                 (A') (A') (A") (A') (A") (A') (A") (A') (A') (A')
                 (A") (A') (A") (A') (A') (A') (A") (A") (A') (A')
                 (A') (A") (A') (A") (A') (A") (A") (A') (A') (A')
                 (A") (A') (A') (A") (A") (A') (A') (A') (A") (A')
                 (A") (A") (A') (A') (A') (A") (A') (A") (A') (A')
                 (A") (A') (A") (A") (A') (A') (A") (A') (A") (A")
                 (A') (A") (A") (A') (A') (A") (A') (A") (A') (A")
                 (A') (A") (A') (A') (A') (A") (A") (A') (A") (A')
                 (A') (A") (A') (A") (A") (A') (A") (A') (A') (A")
                 (A') (A') (A") (A') (A') (A') (A") (A') (A') (A")
                 (A') (A') (A") (A') (A") (A') (A") (A') (A") (A')
                 (A") (A') (A") (A') (A') (A") (A') (A") (A') (A")
                 (A") (A') (A') (A") (A') (A") (A') (A") (A')
 The electronic state is 1-A'.
 Alpha  occ. eigenvalues --  -24.68488 -24.68488 -10.34014 -10.18789  -1.25161
 Alpha  occ. eigenvalues --   -1.19521  -0.78416  -0.65770  -0.55964  -0.55114
 Alpha  occ. eigenvalues --   -0.51097  -0.44355  -0.43012  -0.41861  -0.40622
 Alpha  occ. eigenvalues --   -0.39814  -0.35093
 Alpha virt. eigenvalues --    0.01427   0.03999   0.06660   0.07813   0.08573
 Alpha virt. eigenvalues --    0.09828   0.12726   0.17717   0.18567   0.22105
 Alpha virt. eigenvalues --    0.25417   0.26125   0.29726   0.31310   0.33393
 Alpha virt. eigenvalues --    0.33688   0.34266   0.36454   0.41643   0.46680
 Alpha virt. eigenvalues --    0.48379   0.52877   0.53777   0.60758   0.68425
 Alpha virt. eigenvalues --    0.69923   0.76793   0.82492   0.84883   0.89208
 Alpha virt. eigenvalues --    0.91030   0.94504   0.95958   0.96052   0.96249
 Alpha virt. eigenvalues --    1.02573   1.06088   1.07121   1.11302   1.16831
 Alpha virt. eigenvalues --    1.17469   1.22065   1.25321   1.33361   1.37563
 Alpha virt. eigenvalues --    1.47493   1.54267   1.60877   1.63011   1.68405
 Alpha virt. eigenvalues --    1.70731   1.72242   1.79688   1.81632   1.86503
 Alpha virt. eigenvalues --    1.89569   1.95415   1.98440   2.02282   2.11972
 Alpha virt. eigenvalues --    2.14594   2.22494   2.27427   2.31559   2.35622
 Alpha virt. eigenvalues --    2.36857   2.42139   2.49689   2.55393   2.64630
 Alpha virt. eigenvalues --    2.88087   2.91063   2.92844   3.05982   3.10789
 Alpha virt. eigenvalues --    3.12502   3.19673   3.26243   3.28363   3.32078
 Alpha virt. eigenvalues --    3.32441   3.49151   3.54067   3.58534   3.58763
 Alpha virt. eigenvalues --    3.67315   3.72180   3.75378   3.77324   3.81246
 Alpha virt. eigenvalues --    3.81615   3.82321   3.93582   3.95685   4.01604
 Alpha virt. eigenvalues --    4.05060   4.12192   4.19372   4.21979   4.25013
 Alpha virt. eigenvalues --    4.26447   4.30996   4.34780   4.35481   4.36819
 Alpha virt. eigenvalues --    4.38010   4.38449   4.42809   4.44614   4.49534
 Alpha virt. eigenvalues --    4.53422   4.53803   4.54976   4.59158   4.62817
 Alpha virt. eigenvalues --    4.67540   4.68204   4.70993   4.74930   4.78623
 Alpha virt. eigenvalues --    4.82777   4.93586   4.99117   5.02579   5.05213
 Alpha virt. eigenvalues --    5.13551   5.14342   5.24741   5.27681   5.35215
 Alpha virt. eigenvalues --    5.37289   5.49920   5.51316   5.61046   5.62475
 Alpha virt. eigenvalues --    5.66279   5.68946   5.75595   5.78546   5.86793
 Alpha virt. eigenvalues --    5.90566   5.92499   5.94818   5.96863   6.03603
 Alpha virt. eigenvalues --    6.15541   6.20135   6.44799   6.54320   7.54922
 Alpha virt. eigenvalues --    7.60843   7.62483   7.64168   7.94818   8.10966
 Alpha virt. eigenvalues --    8.14106   8.14137   8.17482   8.25258
          Condensed to atoms (all electrons):
               1          2          3          4          5          6
     1  C    4.232005   0.365481   0.436148   0.252593   0.252593  -0.017520
     2  C    0.365481   4.625262  -0.076460  -0.046616  -0.046616   0.408969
     3  H    0.436148  -0.076460   0.742338  -0.053226  -0.053226   0.010632
     4  F    0.252593  -0.046616  -0.053226   9.193191  -0.054604  -0.000759
     5  F    0.252593  -0.046616  -0.053226  -0.054604   9.193191  -0.000759
     6  H   -0.017520   0.408969   0.010632  -0.000759  -0.000759   0.598857
     7  H   -0.020351   0.406706  -0.003983  -0.000852   0.004564  -0.019851
     8  H   -0.020351   0.406706  -0.003983   0.004564  -0.000852  -0.019851
               7          8
     1  C   -0.020351  -0.020351
     2  C    0.406706   0.406706
     3  H   -0.003983  -0.003983
     4  F   -0.000852   0.004564
     5  F    0.004564  -0.000852
     6  H   -0.019851  -0.019851
     7  H    0.626429  -0.027946
     8  H   -0.027946   0.626429
 Mulliken charges:
               1
     1  C    0.519403
     2  C   -0.043431
     3  H    0.001761
     4  F   -0.294292
     5  F   -0.294292
     6  H    0.040283
     7  H    0.035284
     8  H    0.035284
 Sum of Mulliken charges =  -0.00000
 Mulliken charges with hydrogens summed into heavy atoms:
               1
     1  C    0.521163
     2  C    0.067420
     4  F   -0.294292
     5  F   -0.294292
 Electronic spatial extent (au):  <R**2>=            259.0565
 Charge=              0.0000 electrons
 Dipole moment (field-independent basis, Debye):
    X=             -0.3662    Y=              2.3255    Z=             -0.0000  Tot=              2.3541
 Quadrupole moment (field-independent basis, Debye-Ang):
   XX=            -21.6719   YY=            -23.1544   ZZ=            -25.7662
   XY=              0.5029   XZ=              0.0000   YZ=             -0.0000
 Traceless Quadrupole moment (field-independent basis, Debye-Ang):
   XX=              1.8589   YY=              0.3764   ZZ=             -2.2353
   XY=              0.5029   XZ=              0.0000   YZ=             -0.0000
 Octapole moment (field-independent basis, Debye-Ang**2):
  XXX=              4.8321  YYY=             -7.1840  ZZZ=             -0.0000  XYY=              0.9814
  XXY=             -2.3024  XXZ=             -0.0000  XZZ=              0.4079  YZZ=             -0.0970
  YYZ=             -0.0000  XYZ=              0.0000
 Hexadecapole moment (field-independent basis, Debye-Ang**3):
 XXXX=            -79.7063 YYYY=           -108.4251 ZZZZ=           -103.3334 XXXY=             28.6861
 XXXZ=              0.0000 YYYX=             26.1039 YYYZ=             -0.0000 ZZZX=              0.0000
 ZZZY=             -0.0000 XXYY=            -32.0902 XXZZ=            -31.5908 YYZZ=            -33.0778
 XXYZ=             -0.0000 YYXZ=              0.0000 ZZXY=              8.5791
 N-N= 1.319488052761D+02 E-N=-9.233403700602D+02  KE= 2.776093170758D+02
 Symmetry A'   KE= 1.740467123048D+02
 Symmetry A"   KE= 1.035626047710D+02
 Calling FoFJK, ICntrl=      2127 FMM=F ISym2X=1 I1Cent= 0 IOpClX= 0 NMat=1 NMatS=1 NMatT=0.
 ***** Axes restored to original set *****
 -------------------------------------------------------------------
 Center     Atomic                   Forces (Hartrees/Bohr)
 Number     Number              X              Y              Z
 -------------------------------------------------------------------
      1        6           0.000130262   -0.000040100   -0.000000000
      2        6           0.000065852   -0.000072275    0.000000000
      3        1           0.000035027    0.000038817   -0.000000000
      4        9          -0.000080216    0.000045211   -0.000111774
      5        9          -0.000080216    0.000045211    0.000111774
      6        1          -0.000047729   -0.000014224    0.000000000
      7        1          -0.000011490   -0.000001320   -0.000010337
      8        1          -0.000011490   -0.000001320    0.000010337
 -------------------------------------------------------------------
 Cartesian Forces:  Max     0.000130262 RMS     0.000056190

 GradGradGradGradGradGradGradGradGradGradGradGradGradGradGradGradGradGrad
 Berny optimization.
 FormGI is forming the generalized inverse of G from B-inverse, IUseBI=4.
 Internal  Forces:  Max     0.000116782 RMS     0.000051352
 Search for a local minimum.
 Step number   1 out of a maximum of   38
 All quantities printed in internal units (Hartrees-Bohrs-Radians)
 Mixed Optimization -- En-DIIS/RFO-DIIS
 Second derivative matrix not updated -- first step.
 ITU=  0
     Eigenvalues ---    0.00734   0.05813   0.05988   0.06003   0.07695
     Eigenvalues ---    0.16000   0.16000   0.16000   0.16000   0.23028
     Eigenvalues ---    0.23974   0.32127   0.34694   0.34942   0.34947
     Eigenvalues ---    0.34947   0.50489   0.50489
 RFO step:  Lambda=-4.12361596D-07 EMin= 7.34182066D-03
 Linear search not attempted -- first point.
 Iteration  1 RMS(Cart)=  0.00039999 RMS(Int)=  0.00000020
 Iteration  2 RMS(Cart)=  0.00000015 RMS(Int)=  0.00000014
 ClnCor:  largest displacement from symmetrization is 2.31D-11 for atom     5.
 Variable       Old X    -DE/DX   Delta X   Delta X   Delta X     New X
                                 (Linear)    (Quad)   (Total)
    R1        2.83913  -0.00005   0.00000  -0.00015  -0.00015   2.83898
    R2        2.06174   0.00005   0.00000   0.00014   0.00014   2.06189
    R3        2.59375  -0.00012   0.00000  -0.00023  -0.00023   2.59352
    R4        2.59375  -0.00012   0.00000  -0.00023  -0.00023   2.59352
    R5        2.05769   0.00005   0.00000   0.00014   0.00014   2.05783
    R6        2.05760  -0.00001   0.00000  -0.00003  -0.00003   2.05758
    R7        2.05760  -0.00001   0.00000  -0.00003  -0.00003   2.05758
    A1        1.99631   0.00004   0.00000   0.00039   0.00039   1.99670
    A2        1.92654  -0.00009   0.00000  -0.00055  -0.00055   1.92599
    A3        1.92654  -0.00009   0.00000  -0.00055  -0.00055   1.92599
    A4        1.87202   0.00007   0.00000   0.00056   0.00056   1.87258
    A5        1.87202   0.00007   0.00000   0.00056   0.00056   1.87258
    A6        1.86469   0.00002   0.00000  -0.00039  -0.00039   1.86430
    A7        1.91235   0.00002   0.00000   0.00010   0.00010   1.91245
    A8        1.91684   0.00001   0.00000   0.00008   0.00008   1.91692
    A9        1.91684   0.00001   0.00000   0.00008   0.00008   1.91692
   A10        1.90746  -0.00001   0.00000  -0.00009  -0.00009   1.90736
   A11        1.90746  -0.00001   0.00000  -0.00009  -0.00009   1.90736
   A12        1.90278  -0.00001   0.00000  -0.00007  -0.00007   1.90271
    D1        3.14159  -0.00000   0.00000   0.00000   0.00000   3.14159
    D2       -1.04621  -0.00000   0.00000  -0.00001  -0.00001  -1.04622
    D3        1.04621   0.00000   0.00000   0.00001   0.00001   1.04622
    D4       -1.02876   0.00004   0.00000   0.00058   0.00058  -1.02817
    D5        1.06662   0.00004   0.00000   0.00058   0.00058   1.06720
    D6       -3.12413   0.00004   0.00000   0.00059   0.00059  -3.12354
    D7        1.02876  -0.00004   0.00000  -0.00058  -0.00058   1.02817
    D8        3.12413  -0.00004   0.00000  -0.00059  -0.00059   3.12354
    D9       -1.06662  -0.00004   0.00000  -0.00058  -0.00058  -1.06720
         Item               Value     Threshold  Converged?
 Maximum Force            0.000117     0.000450     YES
 RMS     Force            0.000051     0.000300     YES
 Maximum Displacement     0.000964     0.001800     YES
 RMS     Displacement     0.000400     0.001200     YES
 Predicted change in Energy=-2.060545D-07
 Optimization completed.
    -- Stationary point found.
                           ----------------------------
                           !   Optimized Parameters   !
                           ! (Angstroms and Degrees)  !
 --------------------------                            --------------------------
 ! Name  Definition              Value          Derivative Info.                !
 --------------------------------------------------------------------------------
 ! R1    R(1,2)                  1.5024         -DE/DX =    0.0                 !
 ! R2    R(1,3)                  1.091          -DE/DX =    0.0                 !
 ! R3    R(1,4)                  1.3726         -DE/DX =   -0.0001              !
 ! R4    R(1,5)                  1.3726         -DE/DX =   -0.0001              !
 ! R5    R(2,6)                  1.0889         -DE/DX =    0.0                 !
 ! R6    R(2,7)                  1.0888         -DE/DX =    0.0                 !
 ! R7    R(2,8)                  1.0888         -DE/DX =    0.0                 !
 ! A1    A(2,1,3)              114.3804         -DE/DX =    0.0                 !
 ! A2    A(2,1,4)              110.3826         -DE/DX =   -0.0001              !
 ! A3    A(2,1,5)              110.3826         -DE/DX =   -0.0001              !
 ! A4    A(3,1,4)              107.2589         -DE/DX =    0.0001              !
 ! A5    A(3,1,5)              107.2589         -DE/DX =    0.0001              !
 ! A6    A(4,1,5)              106.839          -DE/DX =    0.0                 !
 ! A7    A(1,2,6)              109.5695         -DE/DX =    0.0                 !
 ! A8    A(1,2,7)              109.8271         -DE/DX =    0.0                 !
 ! A9    A(1,2,8)              109.8271         -DE/DX =    0.0                 !
 ! A10   A(6,2,7)              109.2892         -DE/DX =    0.0                 !
 ! A11   A(6,2,8)              109.2892         -DE/DX =    0.0                 !
 ! A12   A(7,2,8)              109.0215         -DE/DX =    0.0                 !
 ! D1    D(3,1,2,6)            180.0            -DE/DX =    0.0                 !
 ! D2    D(3,1,2,7)            -59.9436         -DE/DX =    0.0                 !
 ! D3    D(3,1,2,8)             59.9436         -DE/DX =    0.0                 !
 ! D4    D(4,1,2,6)            -58.9433         -DE/DX =    0.0                 !
 ! D5    D(4,1,2,7)             61.1131         -DE/DX =    0.0                 !
 ! D6    D(4,1,2,8)           -178.9997         -DE/DX =    0.0                 !
 ! D7    D(5,1,2,6)             58.9433         -DE/DX =    0.0                 !
 ! D8    D(5,1,2,7)            178.9997         -DE/DX =    0.0                 !
 ! D9    D(5,1,2,8)            -61.1131         -DE/DX =    0.0                 !
 --------------------------------------------------------------------------------
 GradGradGradGradGradGradGradGradGradGradGradGradGradGradGradGradGradGrad

                          Input orientation:                          
 ---------------------------------------------------------------------
 Center     Atomic      Atomic             Coordinates (Angstroms)
 Number     Number       Type             X           Y           Z
 ---------------------------------------------------------------------
      1          6           0        0.321211    0.165682   -0.000000
      2          6           0       -0.897912    1.043719    0.000000
      3          1           0        1.267424    0.708843   -0.000000
      4          9           0        0.321211   -0.652293    1.102187
      5          9           0        0.321211   -0.652293   -1.102187
      6          1           0       -1.793473    0.424335    0.000000
      7          1           0       -0.897773    1.675844    0.886558
      8          1           0       -0.897773    1.675844   -0.886558
 ---------------------------------------------------------------------
                    Distance matrix (angstroms):
                    1          2          3          4          5
     1  C    0.000000
     2  C    1.502401   0.000000
     3  H    1.091028   2.191078   0.000000
     4  F    1.372552   2.361680   1.990685   0.000000
     5  F    1.372552   2.361680   1.990685   2.204374   0.000000
     6  H    2.130444   1.088883   3.074091   2.616454   2.616454
     7  H    2.133658   1.088838   2.531631   2.636786   3.295641
     8  H    2.133658   1.088838   2.531631   3.295641   2.636786
                    6          7          8
     6  H    0.000000
     7  H    1.776102   0.000000
     8  H    1.776102   1.773116   0.000000
 Stoichiometry    C2H4F2
 Framework group  CS[SG(C2H2),X(H2F2)]
 Deg. of freedom    11
 Full point group                 CS      NOp   2
 Largest Abelian subgroup         CS      NOp   2
 Largest concise Abelian subgroup CS      NOp   2
                         Standard orientation:                         
 ---------------------------------------------------------------------
 Center     Atomic      Atomic             Coordinates (Angstroms)
 Number     Number       Type             X           Y           Z
 ---------------------------------------------------------------------
      1          6           0        0.321211    0.165682    0.000000
      2          6           0       -0.897912    1.043719   -0.000000
      3          1           0        1.267424    0.708843    0.000000
      4          9           0        0.321211   -0.652293    1.102187
      5          9           0        0.321211   -0.652293   -1.102187
      6          1           0       -1.793473    0.424335   -0.000000
      7          1           0       -0.897773    1.675844    0.886558
      8          1           0       -0.897773    1.675844   -0.886558
 ---------------------------------------------------------------------
 Rotational constants (GHZ):           9.4151147           8.9283794           5.1352837
 1\1\GINC-GAMBA\FOpt\RB3LYP\Gen\C2H4F2\IRIKURA\29-Sep-2023\0\\# b3lyp/g
 en opt freq CPHF(Grid=OneStep)\\1,1-difluoroethane, B3LYP/pcseg-2\\0,1
 \C,0.321211,0.165682,0.\C,-0.897912,1.043719,0.\H,1.267424,0.708843,0.
 \F,0.321211,-0.652293,1.102187\F,0.321211,-0.652293,-1.102187\H,-1.793
 473,0.424335,0.\H,-0.897773,1.675844,0.886558\H,-0.897773,1.675844,-0.
 886558\\Version=ES64L-G16RevB.01\State=1-A'\HF=-278.4357797\RMSD=4.401
 e-09\RMSF=5.619e-05\Dipole=-0.1440636,0.9149179,0.\Quadrupole=1.382054
 ,0.2798695,-1.6619235,0.3739126,0.,0.\PG=CS [SG(C2H2),X(H2F2)]\\@


 Sometimes the fool who rushes in gets the job done.
                                    -- Al Bernstein
 Job cpu time:       0 days  0 hours  0 minutes 59.9 seconds.
 Elapsed time:       0 days  0 hours  0 minutes 15.4 seconds.
 File lengths (MBytes):  RWF=     19 Int=      0 D2E=      0 Chk=      3 Scr=      1
 Normal termination of Gaussian 16 at Fri Sep 29 04:08:25 2023.
 Link1:  Proceeding to internal job step number  2.
 ------------------------------------------------------------------
 #N Geom=AllCheck Guess=TCheck SCRF=Check GenChk RB3LYP/ChkBas Freq
 ------------------------------------------------------------------
 1/10=4,29=7,30=1,38=1,40=1/1,3;
 2/12=2,40=1/2;
 3/5=7,6=2,11=2,14=-4,25=1,30=1,67=1,70=2,71=2,74=-5,82=7,116=1,140=1/1,2,3;
 4/5=101/1;
 5/5=2,38=6,98=1/2;
 8/6=4,10=90,11=11/1;
 11/6=1,8=1,9=11,15=111,16=1/1,2,10;
 10/6=1,60=-420/2;
 6/7=2,8=2,9=2,10=2,28=1/1;
 7/8=1,10=1,25=1/1,2,3,16;
 1/10=4,30=1/3;
 99//99;
 Structure from the checkpoint file:  "ch3chf2.chk"
 ---------------------------------
 1,1-difluoroethane, B3LYP/pcseg-2
 ---------------------------------
 Charge =  0 Multiplicity = 1
 Redundant internal coordinates found in file.  (old form).
 C,0,0.321211,0.165682,0.
 C,0,-0.897912,1.043719,0.
 H,0,1.267424,0.708843,0.
 F,0,0.321211,-0.652293,1.102187
 F,0,0.321211,-0.652293,-1.102187
 H,0,-1.793473,0.424335,0.
 H,0,-0.897773,1.675844,0.886558
 H,0,-0.897773,1.675844,-0.886558
 Recover connectivity data from disk.

 GradGradGradGradGradGradGradGradGradGradGradGradGradGradGradGradGradGrad
 Berny optimization.
 Initialization pass.
                           ----------------------------
                           !    Initial Parameters    !
                           ! (Angstroms and Degrees)  !
 --------------------------                            --------------------------
 ! Name  Definition              Value          Derivative Info.                !
 --------------------------------------------------------------------------------
 ! R1    R(1,2)                  1.5024         calculate D2E/DX2 analytically  !
 ! R2    R(1,3)                  1.091          calculate D2E/DX2 analytically  !
 ! R3    R(1,4)                  1.3726         calculate D2E/DX2 analytically  !
 ! R4    R(1,5)                  1.3726         calculate D2E/DX2 analytically  !
 ! R5    R(2,6)                  1.0889         calculate D2E/DX2 analytically  !
 ! R6    R(2,7)                  1.0888         calculate D2E/DX2 analytically  !
 ! R7    R(2,8)                  1.0888         calculate D2E/DX2 analytically  !
 ! A1    A(2,1,3)              114.3804         calculate D2E/DX2 analytically  !
 ! A2    A(2,1,4)              110.3826         calculate D2E/DX2 analytically  !
 ! A3    A(2,1,5)              110.3826         calculate D2E/DX2 analytically  !
 ! A4    A(3,1,4)              107.2589         calculate D2E/DX2 analytically  !
 ! A5    A(3,1,5)              107.2589         calculate D2E/DX2 analytically  !
 ! A6    A(4,1,5)              106.839          calculate D2E/DX2 analytically  !
 ! A7    A(1,2,6)              109.5695         calculate D2E/DX2 analytically  !
 ! A8    A(1,2,7)              109.8271         calculate D2E/DX2 analytically  !
 ! A9    A(1,2,8)              109.8271         calculate D2E/DX2 analytically  !
 ! A10   A(6,2,7)              109.2892         calculate D2E/DX2 analytically  !
 ! A11   A(6,2,8)              109.2892         calculate D2E/DX2 analytically  !
 ! A12   A(7,2,8)              109.0215         calculate D2E/DX2 analytically  !
 ! D1    D(3,1,2,6)            180.0            calculate D2E/DX2 analytically  !
 ! D2    D(3,1,2,7)            -59.9436         calculate D2E/DX2 analytically  !
 ! D3    D(3,1,2,8)             59.9436         calculate D2E/DX2 analytically  !
 ! D4    D(4,1,2,6)            -58.9433         calculate D2E/DX2 analytically  !
 ! D5    D(4,1,2,7)             61.1131         calculate D2E/DX2 analytically  !
 ! D6    D(4,1,2,8)           -178.9997         calculate D2E/DX2 analytically  !
 ! D7    D(5,1,2,6)             58.9433         calculate D2E/DX2 analytically  !
 ! D8    D(5,1,2,7)            178.9997         calculate D2E/DX2 analytically  !
 ! D9    D(5,1,2,8)            -61.1131         calculate D2E/DX2 analytically  !
 --------------------------------------------------------------------------------
 Trust Radius=3.00D-01 FncErr=1.00D-07 GrdErr=1.00D-07 EigMax=2.50D+02 EigMin=1.00D-04
 Number of steps in this run=      2 maximum allowed number of steps=      2.
 GradGradGradGradGradGradGradGradGradGradGradGradGradGradGradGradGradGrad

                          Input orientation:                          
 ---------------------------------------------------------------------
 Center     Atomic      Atomic             Coordinates (Angstroms)
 Number     Number       Type             X           Y           Z
 ---------------------------------------------------------------------
      1          6           0        0.321211    0.165682   -0.000000
      2          6           0       -0.897912    1.043719    0.000000
      3          1           0        1.267424    0.708843   -0.000000
      4          9           0        0.321211   -0.652293    1.102187
      5          9           0        0.321211   -0.652293   -1.102187
      6          1           0       -1.793473    0.424335    0.000000
      7          1           0       -0.897773    1.675844    0.886558
      8          1           0       -0.897773    1.675844   -0.886558
 ---------------------------------------------------------------------
                    Distance matrix (angstroms):
                    1          2          3          4          5
     1  C    0.000000
     2  C    1.502401   0.000000
     3  H    1.091028   2.191078   0.000000
     4  F    1.372552   2.361680   1.990685   0.000000
     5  F    1.372552   2.361680   1.990685   2.204374   0.000000
     6  H    2.130444   1.088883   3.074091   2.616454   2.616454
     7  H    2.133658   1.088838   2.531631   2.636786   3.295641
     8  H    2.133658   1.088838   2.531631   3.295641   2.636786
                    6          7          8
     6  H    0.000000
     7  H    1.776102   0.000000
     8  H    1.776102   1.773116   0.000000
 Stoichiometry    C2H4F2
 Framework group  CS[SG(C2H2),X(H2F2)]
 Deg. of freedom    11
 Full point group                 CS      NOp   2
 Largest Abelian subgroup         CS      NOp   2
 Largest concise Abelian subgroup CS      NOp   2
                         Standard orientation:                         
 ---------------------------------------------------------------------
 Center     Atomic      Atomic             Coordinates (Angstroms)
 Number     Number       Type             X           Y           Z
 ---------------------------------------------------------------------
      1          6           0        0.321211    0.165682   -0.000000
      2          6           0       -0.897912    1.043719    0.000000
      3          1           0        1.267424    0.708843   -0.000000
      4          9           0        0.321211   -0.652293    1.102187
      5          9           0        0.321211   -0.652293   -1.102187
      6          1           0       -1.793473    0.424335    0.000000
      7          1           0       -0.897773    1.675844    0.886558
      8          1           0       -0.897773    1.675844   -0.886558
 ---------------------------------------------------------------------
 Rotational constants (GHZ):           9.4151147           8.9283794           5.1352837
 Basis read from chk: "ch3chf2.chk" (5D, 7F)
 There are   120 symmetry adapted cartesian basis functions of A'  symmetry.
 There are    80 symmetry adapted cartesian basis functions of A"  symmetry.
 There are   104 symmetry adapted basis functions of A'  symmetry.
 There are    72 symmetry adapted basis functions of A"  symmetry.
   176 basis functions,   276 primitive gaussians,   200 cartesian basis functions
    17 alpha electrons       17 beta electrons
       nuclear repulsion energy       131.9488052761 Hartrees.
 NAtoms=    8 NActive=    8 NUniq=    6 SFac= 1.78D+00 NAtFMM=   60 NAOKFM=F Big=F
 Integral buffers will be    131072 words long.
 Raffenetti 2 integral format.
 Two-electron integral symmetry is turned on.
 One-electron integrals computed using PRISM.
 NBasis=   176 RedAO= T EigKep=  7.14D-04  NBF=   104    72
 NBsUse=   176 1.00D-06 EigRej= -1.00D+00 NBFU=   104    72
 Initial guess from the checkpoint file:  "ch3chf2.chk"
 B after Tr=     0.000000   -0.000000    0.000000
         Rot=    1.000000    0.000000   -0.000000   -0.000000 Ang=   0.00 deg.
 Initial guess orbital symmetries:
       Occupied  (A") (A') (A') (A') (A') (A") (A') (A') (A') (A")
                 (A') (A") (A') (A") (A') (A") (A')
       Virtual   (A') (A') (A") (A') (A") (A') (A') (A') (A") (A')
                 (A") (A') (A') (A') (A') (A") (A') (A') (A") (A')
                 (A') (A") (A') (A") (A') (A") (A') (A") (A') (A")
                 (A') (A') (A") (A') (A") (A') (A") (A') (A') (A')
                 (A") (A') (A") (A') (A') (A') (A") (A") (A') (A')
                 (A') (A") (A') (A") (A') (A") (A") (A') (A') (A')
                 (A") (A') (A') (A") (A") (A') (A') (A') (A") (A')
                 (A") (A") (A') (A') (A') (A") (A') (A") (A') (A')
                 (A") (A') (A") (A") (A') (A') (A") (A') (A") (A")
                 (A') (A") (A") (A') (A') (A") (A') (A") (A') (A")
                 (A') (A") (A') (A') (A') (A") (A") (A') (A") (A')
                 (A') (A") (A') (A") (A") (A') (A") (A') (A') (A")
                 (A') (A') (A") (A') (A') (A') (A") (A') (A') (A")
                 (A') (A') (A") (A') (A") (A') (A") (A') (A") (A')
                 (A") (A') (A") (A') (A') (A") (A') (A") (A') (A")
                 (A") (A') (A') (A") (A') (A") (A') (A") (A')
 Keep R1 ints in memory in symmetry-blocked form, NReq=182098907.
 Requested convergence on RMS density matrix=1.00D-08 within 128 cycles.
 Requested convergence on MAX density matrix=1.00D-06.
 Requested convergence on             energy=1.00D-06.
 No special actions if energy rises.
 SCF Done:  E(RB3LYP) =  -278.435779677     A.U. after    1 cycles
            NFock=  1  Conv=0.22D-08     -V/T= 2.0030
 DoSCS=F DFT=T ScalE2(SS,OS)=  1.000000  1.000000
 Range of M.O.s used for correlation:     1   176
 NBasis=   176 NAE=    17 NBE=    17 NFC=     0 NFV=     0
 NROrb=    176 NOA=    17 NOB=    17 NVA=   159 NVB=   159

 **** Warning!!: The largest alpha MO coefficient is  0.12648948D+02

 Symmetrizing basis deriv contribution to polar:
 IMax=3 JMax=2 DiffMx= 0.00D+00
 G2DrvN: will do     9 centers at a time, making    1 passes.
 Calling FoFCou, ICntrl=  3107 FMM=F I1Cent=   0 AccDes= 0.00D+00.
 End of G2Drv F.D. properties file   721 does not exist.
 End of G2Drv F.D. properties file   722 does not exist.
 End of G2Drv F.D. properties file   788 does not exist.
          IDoAtm=11111111
          Differentiating once with respect to electric field.
                with respect to dipole field.
          Differentiating once with respect to nuclear coordinates.
 Keep R1 ints in memory in symmetry-blocked form, NReq=182103908.
          There are    21 degrees of freedom in the 1st order CPHF.  IDoFFX=4 NUNeed=    21.
     21 vectors produced by pass  0 Test12= 1.29D-14 4.76D-09 XBig12= 1.50D+01 1.63D+00.
 AX will form    21 AO Fock derivatives at one time.
     21 vectors produced by pass  1 Test12= 1.29D-14 4.76D-09 XBig12= 2.29D+00 3.94D-01.
     21 vectors produced by pass  2 Test12= 1.29D-14 4.76D-09 XBig12= 2.25D-02 3.67D-02.
     21 vectors produced by pass  3 Test12= 1.29D-14 4.76D-09 XBig12= 1.59D-04 2.31D-03.
     21 vectors produced by pass  4 Test12= 1.29D-14 4.76D-09 XBig12= 5.08D-07 1.46D-04.
     14 vectors produced by pass  5 Test12= 1.29D-14 4.76D-09 XBig12= 5.32D-10 3.66D-06.
      5 vectors produced by pass  6 Test12= 1.29D-14 4.76D-09 XBig12= 4.60D-13 9.28D-08.
 InvSVY:  IOpt=1 It=  1 EMax= 1.78D-15
 Solved reduced A of dimension   124 with    21 vectors.
 Isotropic polarizability for W=    0.000000       27.68 Bohr**3.
 End of Minotr F.D. properties file   721 does not exist.
 End of Minotr F.D. properties file   722 does not exist.
 End of Minotr F.D. properties file   788 does not exist.

 **********************************************************************

            Population analysis using the SCF Density.

 **********************************************************************

 Orbital symmetries:
       Occupied  (A") (A') (A') (A') (A') (A") (A') (A') (A') (A")
                 (A') (A") (A') (A") (A') (A") (A')
       Virtual   (A') (A') (A") (A') (A") (A') (A') (A') (A") (A')
                 (A") (A') (A') (A') (A') (A") (A') (A') (A") (A')
                 (A') (A") (A') (A") (A') (A") (A') (A") (A') (A")
                 (A') (A') (A") (A') (A") (A') (A") (A') (A') (A')
                 (A") (A') (A") (A') (A') (A') (A") (A") (A') (A')
                 (A') (A") (A') (A") (A') (A") (A") (A') (A') (A')
                 (A") (A') (A') (A") (A") (A') (A') (A') (A") (A')
                 (A") (A") (A') (A') (A') (A") (A') (A") (A') (A')
                 (A") (A') (A") (A") (A') (A') (A") (A') (A") (A")
                 (A') (A") (A") (A') (A') (A") (A') (A") (A') (A")
                 (A') (A") (A') (A') (A') (A") (A") (A') (A") (A')
                 (A') (A") (A') (A") (A") (A') (A") (A') (A') (A")
                 (A') (A') (A") (A') (A') (A') (A") (A') (A') (A")
                 (A') (A') (A") (A') (A") (A') (A") (A') (A") (A')
                 (A") (A') (A") (A') (A') (A") (A') (A") (A') (A")
                 (A") (A') (A') (A") (A') (A") (A') (A") (A')
 The electronic state is 1-A'.
 Alpha  occ. eigenvalues --  -24.68488 -24.68488 -10.34014 -10.18789  -1.25161
 Alpha  occ. eigenvalues --   -1.19521  -0.78416  -0.65770  -0.55964  -0.55114
 Alpha  occ. eigenvalues --   -0.51097  -0.44355  -0.43012  -0.41861  -0.40622
 Alpha  occ. eigenvalues --   -0.39814  -0.35093
 Alpha virt. eigenvalues --    0.01427   0.03999   0.06660   0.07813   0.08573
 Alpha virt. eigenvalues --    0.09828   0.12726   0.17717   0.18567   0.22105
 Alpha virt. eigenvalues --    0.25417   0.26125   0.29726   0.31310   0.33393
 Alpha virt. eigenvalues --    0.33688   0.34266   0.36454   0.41643   0.46680
 Alpha virt. eigenvalues --    0.48379   0.52877   0.53777   0.60758   0.68425
 Alpha virt. eigenvalues --    0.69923   0.76793   0.82492   0.84883   0.89208
 Alpha virt. eigenvalues --    0.91030   0.94504   0.95958   0.96052   0.96249
 Alpha virt. eigenvalues --    1.02573   1.06088   1.07121   1.11302   1.16831
 Alpha virt. eigenvalues --    1.17469   1.22065   1.25321   1.33361   1.37563
 Alpha virt. eigenvalues --    1.47493   1.54267   1.60877   1.63011   1.68405
 Alpha virt. eigenvalues --    1.70731   1.72242   1.79688   1.81632   1.86503
 Alpha virt. eigenvalues --    1.89569   1.95415   1.98440   2.02282   2.11972
 Alpha virt. eigenvalues --    2.14594   2.22494   2.27427   2.31559   2.35622
 Alpha virt. eigenvalues --    2.36857   2.42139   2.49689   2.55393   2.64630
 Alpha virt. eigenvalues --    2.88087   2.91063   2.92844   3.05982   3.10789
 Alpha virt. eigenvalues --    3.12502   3.19672   3.26243   3.28363   3.32078
 Alpha virt. eigenvalues --    3.32441   3.49151   3.54067   3.58534   3.58763
 Alpha virt. eigenvalues --    3.67315   3.72180   3.75378   3.77324   3.81246
 Alpha virt. eigenvalues --    3.81615   3.82321   3.93582   3.95685   4.01604
 Alpha virt. eigenvalues --    4.05060   4.12192   4.19372   4.21979   4.25013
 Alpha virt. eigenvalues --    4.26447   4.30996   4.34779   4.35481   4.36819
 Alpha virt. eigenvalues --    4.38010   4.38449   4.42809   4.44614   4.49534
 Alpha virt. eigenvalues --    4.53422   4.53803   4.54976   4.59158   4.62817
 Alpha virt. eigenvalues --    4.67540   4.68204   4.70993   4.74930   4.78623
 Alpha virt. eigenvalues --    4.82777   4.93586   4.99117   5.02579   5.05213
 Alpha virt. eigenvalues --    5.13551   5.14342   5.24741   5.27681   5.35215
 Alpha virt. eigenvalues --    5.37289   5.49920   5.51316   5.61046   5.62475
 Alpha virt. eigenvalues --    5.66279   5.68946   5.75595   5.78546   5.86793
 Alpha virt. eigenvalues --    5.90566   5.92499   5.94818   5.96863   6.03603
 Alpha virt. eigenvalues --    6.15541   6.20135   6.44799   6.54320   7.54922
 Alpha virt. eigenvalues --    7.60843   7.62483   7.64168   7.94818   8.10966
 Alpha virt. eigenvalues --    8.14106   8.14137   8.17482   8.25258
          Condensed to atoms (all electrons):
               1          2          3          4          5          6
     1  C    4.232006   0.365481   0.436148   0.252593   0.252593  -0.017520
     2  C    0.365481   4.625263  -0.076460  -0.046616  -0.046616   0.408969
     3  H    0.436148  -0.076460   0.742338  -0.053226  -0.053226   0.010632
     4  F    0.252593  -0.046616  -0.053226   9.193191  -0.054604  -0.000759
     5  F    0.252593  -0.046616  -0.053226  -0.054604   9.193191  -0.000759
     6  H   -0.017520   0.408969   0.010632  -0.000759  -0.000759   0.598857
     7  H   -0.020351   0.406706  -0.003983  -0.000852   0.004564  -0.019851
     8  H   -0.020351   0.406706  -0.003983   0.004564  -0.000852  -0.019851
               7          8
     1  C   -0.020351  -0.020351
     2  C    0.406706   0.406706
     3  H   -0.003983  -0.003983
     4  F   -0.000852   0.004564
     5  F    0.004564  -0.000852
     6  H   -0.019851  -0.019851
     7  H    0.626428  -0.027945
     8  H   -0.027945   0.626428
 Mulliken charges:
               1
     1  C    0.519402
     2  C   -0.043432
     3  H    0.001761
     4  F   -0.294291
     5  F   -0.294291
     6  H    0.040283
     7  H    0.035284
     8  H    0.035284
 Sum of Mulliken charges =  -0.00000
 Mulliken charges with hydrogens summed into heavy atoms:
               1
     1  C    0.521163
     2  C    0.067420
     4  F   -0.294291
     5  F   -0.294291
 APT charges:
               1
     1  C    1.165363
     2  C   -0.058340
     3  H   -0.056359
     4  F   -0.554385
     5  F   -0.554385
     6  H    0.019521
     7  H    0.019293
     8  H    0.019293
 Sum of APT charges =  -0.00000
 APT charges with hydrogens summed into heavy atoms:
               1
     1  C    1.109005
     2  C   -0.000234
     4  F   -0.554385
     5  F   -0.554385
 Electronic spatial extent (au):  <R**2>=            259.0564
 Charge=             -0.0000 electrons
 Dipole moment (field-independent basis, Debye):
    X=             -0.3662    Y=              2.3255    Z=              0.0000  Tot=              2.3541
 Quadrupole moment (field-independent basis, Debye-Ang):
   XX=            -21.6719   YY=            -23.1544   ZZ=            -25.7662
   XY=              0.5029   XZ=             -0.0000   YZ=             -0.0000
 Traceless Quadrupole moment (field-independent basis, Debye-Ang):
   XX=              1.8589   YY=              0.3764   ZZ=             -2.2353
   XY=              0.5029   XZ=             -0.0000   YZ=             -0.0000
 Octapole moment (field-independent basis, Debye-Ang**2):
  XXX=              4.8321  YYY=             -7.1840  ZZZ=              0.0000  XYY=              0.9814
  XXY=             -2.3024  XXZ=             -0.0000  XZZ=              0.4079  YZZ=             -0.0970
  YYZ=             -0.0000  XYZ=              0.0000
 Hexadecapole moment (field-independent basis, Debye-Ang**3):
 XXXX=            -79.7063 YYYY=           -108.4251 ZZZZ=           -103.3334 XXXY=             28.6861
 XXXZ=              0.0000 YYYX=             26.1039 YYYZ=              0.0000 ZZZX=              0.0000
 ZZZY=             -0.0000 XXYY=            -32.0902 XXZZ=            -31.5908 YYZZ=            -33.0778
 XXYZ=             -0.0000 YYXZ=              0.0000 ZZXY=              8.5791
 N-N= 1.319488052761D+02 E-N=-9.233403708263D+02  KE= 2.776093160967D+02
 Symmetry A'   KE= 1.740467122579D+02
 Symmetry A"   KE= 1.035626038388D+02
  Exact polarizability:  27.467  -1.048  27.799  -0.000  -0.000  27.759
 Approx polarizability:  34.044   0.458  35.560   0.000  -0.000  37.696
 Calling FoFJK, ICntrl=    100127 FMM=F ISym2X=1 I1Cent= 0 IOpClX= 0 NMat=1 NMatS=1 NMatT=0.
 Full mass-weighted force constant matrix:
 Low frequencies ---   -0.0010    0.0010    0.0015    5.1493    6.2444    9.3210
 Low frequencies ---  228.0375  382.1001  462.7447
 Diagonal vibrational polarizability:
        2.3151348       4.1160569       6.1489893
 Harmonic frequencies (cm**-1), IR intensities (KM/Mole), Raman scattering
 activities (A**4/AMU), depolarization ratios for plane and unpolarized
 incident light, reduced masses (AMU), force constants (mDyne/A),
 and normal coordinates:
                      1                      2                      3
                     A"                     A"                     A'
 Frequencies --    228.0374               382.1001               462.7447
 Red. masses --      1.0639                 3.0772                 4.5587
 Frc consts  --      0.0326                 0.2647                 0.5751
 IR Inten    --      0.0535                 0.2255                12.1559
  Atom  AN      X      Y      Z        X      Y      Z        X      Y      Z
     1   6    -0.00  -0.00   0.01     0.00  -0.00  -0.14    -0.17   0.07  -0.00
     2   6    -0.00   0.00   0.01     0.00  -0.00   0.21    -0.15   0.24   0.00
     3   1     0.00  -0.00   0.04    -0.00   0.00  -0.16    -0.28   0.27   0.00
     4   9    -0.03  -0.02  -0.01    -0.13   0.13  -0.05     0.11  -0.13  -0.18
     5   9     0.03   0.02  -0.01     0.13  -0.13  -0.05     0.11  -0.13   0.18
     6   1    -0.00   0.00   0.59    -0.00   0.00   0.39    -0.37   0.56   0.00
     7   1     0.28   0.41  -0.28     0.31  -0.27   0.41     0.07   0.27  -0.02
     8   1    -0.28  -0.41  -0.28    -0.31   0.27   0.41     0.07   0.27   0.02
                      4                      5                      6
                     A'                     A'                     A"
 Frequencies --    565.2758               868.9798               936.6309
 Red. masses --      4.1340                 2.2693                 2.3900
 Frc consts  --      0.7783                 1.0096                 1.2353
 IR Inten    --      5.7995                 8.8921                95.0628
  Atom  AN      X      Y      Z        X      Y      Z        X      Y      Z
     1   6    -0.20  -0.18   0.00     0.13   0.06   0.00    -0.00  -0.00   0.21
     2   6    -0.07   0.08  -0.00    -0.11   0.20   0.00     0.00  -0.00   0.16
     3   1    -0.28  -0.05  -0.00     0.29  -0.24  -0.00    -0.00  -0.00   0.01
     4   9     0.09   0.01   0.23     0.01  -0.08   0.09    -0.01   0.09  -0.10
     5   9     0.09   0.01  -0.23     0.01  -0.08  -0.09     0.01  -0.09  -0.10
     6   1    -0.41   0.59  -0.00     0.21  -0.28  -0.00    -0.00   0.00  -0.24
     7   1     0.29   0.11  -0.02    -0.54   0.15   0.03    -0.49   0.40  -0.14
     8   1     0.29   0.11   0.02    -0.54   0.15  -0.03     0.49  -0.40  -0.14
                      7                      8                      9
                     A'                     A"                     A'
 Frequencies --   1131.0260              1132.5961              1157.4659
 Red. masses --      3.3279                 2.3052                 2.2892
 Frc consts  --      2.5082                 1.7422                 1.8070
 IR Inten    --    113.4889               136.5025                30.7931
  Atom  AN      X      Y      Z        X      Y      Z        X      Y      Z
     1   6    -0.16   0.33  -0.00    -0.00   0.00   0.27     0.23   0.14  -0.00
     2   6     0.15  -0.04   0.00     0.00  -0.00  -0.15    -0.14  -0.10   0.00
     3   1    -0.35   0.63  -0.00    -0.00   0.00   0.45     0.16   0.28   0.00
     4   9    -0.01  -0.10   0.09     0.02   0.04  -0.06    -0.03  -0.04   0.03
     5   9    -0.01  -0.10  -0.09    -0.02  -0.04  -0.06    -0.03  -0.04  -0.03
     6   1     0.35  -0.32  -0.00     0.00  -0.00   0.32    -0.53   0.49  -0.00
     7   1     0.15  -0.09   0.03     0.36  -0.37   0.14     0.32   0.10  -0.13
     8   1     0.15  -0.09  -0.03    -0.36   0.37   0.14     0.32   0.10   0.13
                     10                     11                     12
                     A"                     A'                     A'
 Frequencies --   1381.4826              1391.6238              1430.4070
 Red. masses --      1.1505                 1.2263                 1.4382
 Frc consts  --      1.2937                 1.3992                 1.7338
 IR Inten    --     18.4363                 5.3968                61.7574
  Atom  AN      X      Y      Z        X      Y      Z        X      Y      Z
     1   6    -0.00   0.00  -0.10     0.06  -0.09  -0.00     0.08  -0.10   0.00
     2   6    -0.00   0.00   0.04     0.09  -0.01   0.00    -0.10   0.11  -0.00
     3   1     0.00  -0.00   0.97    -0.35   0.65   0.00    -0.25   0.51  -0.00
     4   9     0.02   0.02  -0.00    -0.01   0.00   0.00    -0.01   0.00   0.00
     5   9    -0.02  -0.02  -0.00    -0.01   0.00  -0.00    -0.01   0.00  -0.00
     6   1     0.00  -0.00  -0.17    -0.11   0.27  -0.00     0.24  -0.38   0.00
     7   1     0.03   0.09  -0.03    -0.40   0.09  -0.07     0.32  -0.24   0.24
     8   1    -0.03  -0.09  -0.03    -0.40   0.09   0.07     0.32  -0.24  -0.24
                     13                     14                     15
                     A'                     A"                     A'
 Frequencies --   1483.9772              1484.3648              3054.6862
 Red. masses --      1.0480                 1.0501                 1.0344
 Frc consts  --      1.3597                 1.3633                 5.6869
 IR Inten    --      5.0621                 1.2693                 2.6928
  Atom  AN      X      Y      Z        X      Y      Z        X      Y      Z
     1   6    -0.00  -0.04   0.00    -0.00  -0.00  -0.04    -0.00  -0.00   0.00
     2   6    -0.03  -0.03   0.00    -0.00  -0.00  -0.05    -0.04   0.03   0.00
     3   1    -0.09   0.10  -0.00    -0.00   0.00   0.15     0.04   0.02   0.00
     4   9     0.00   0.00  -0.00     0.00   0.00   0.00     0.00  -0.00   0.00
     5   9     0.00   0.00   0.00    -0.00  -0.00   0.00     0.00  -0.00  -0.00
     6   1     0.23  -0.38  -0.00     0.00  -0.00   0.69     0.47   0.33  -0.00
     7   1     0.14   0.49  -0.36    -0.48  -0.12   0.05    -0.01  -0.33  -0.47
     8   1     0.14   0.49   0.36     0.48   0.12   0.05    -0.01  -0.33   0.47
                     16                     17                     18
                     A'                     A"                     A'
 Frequencies --   3071.4683              3130.5439              3135.4852
 Red. masses --      1.0878                 1.1027                 1.1033
 Frc consts  --      6.0461                 6.3673                 6.3905
 IR Inten    --     33.7363                 8.8997                14.2455
  Atom  AN      X      Y      Z        X      Y      Z        X      Y      Z
     1   6    -0.07  -0.04   0.00     0.00   0.00  -0.00    -0.01  -0.01  -0.00
     2   6     0.01   0.01   0.00     0.00   0.00  -0.09    -0.05  -0.08  -0.00
     3   1     0.86   0.48  -0.00    -0.00  -0.00   0.00     0.15   0.08   0.00
     4   9     0.00  -0.00   0.00     0.00  -0.00   0.00     0.00   0.00   0.00
     5   9     0.00  -0.00  -0.00    -0.00   0.00   0.00     0.00   0.00  -0.00
     6   1    -0.13  -0.10  -0.00    -0.00  -0.00  -0.02     0.66   0.45  -0.00
     7   1    -0.00  -0.02  -0.04     0.00   0.42   0.57    -0.01   0.23   0.34
     8   1    -0.00  -0.02   0.04    -0.00  -0.42   0.57    -0.01   0.23  -0.34

 -------------------
 - Thermochemistry -
 -------------------
 Temperature   298.150 Kelvin.  Pressure   1.00000 Atm.
 Atom     1 has atomic number  6 and mass  12.00000
 Atom     2 has atomic number  6 and mass  12.00000
 Atom     3 has atomic number  1 and mass   1.00783
 Atom     4 has atomic number  9 and mass  18.99840
 Atom     5 has atomic number  9 and mass  18.99840
 Atom     6 has atomic number  1 and mass   1.00783
 Atom     7 has atomic number  1 and mass   1.00783
 Atom     8 has atomic number  1 and mass   1.00783
 Molecular mass:    66.02811 amu.
 Principal axes and moments of inertia in atomic units:
                           1         2         3
     Eigenvalues --   191.68553 202.13536 351.43943
           X           -0.58392   0.00000   0.81181
           Y            0.81181   0.00000   0.58392
           Z            0.00000   1.00000  -0.00000
 This molecule is an asymmetric top.
 Rotational symmetry number  1.
 Rotational temperatures (Kelvin)      0.45185     0.42849     0.24645
 Rotational constants (GHZ):           9.41511     8.92838     5.13528
 Zero-point vibrational energy     158079.9 (Joules/Mol)
                                   37.78200 (Kcal/Mol)
 Warning -- explicit consideration of   4 degrees of freedom as
           vibrations may cause significant error
 Vibrational temperatures:    328.09   549.76   665.79   813.31  1250.27
          (Kelvin)           1347.60  1627.29  1629.55  1665.34  1987.65
                             2002.24  2058.04  2135.11  2135.67  4395.01
                             4419.16  4504.15  4511.26
 
 Zero-point correction=                           0.060209 (Hartree/Particle)
 Thermal correction to Energy=                    0.064525
 Thermal correction to Enthalpy=                  0.065469
 Thermal correction to Gibbs Free Energy=         0.033484
 Sum of electronic and zero-point Energies=           -278.375570
 Sum of electronic and thermal Energies=              -278.371255
 Sum of electronic and thermal Enthalpies=            -278.370311
 Sum of electronic and thermal Free Energies=         -278.402296
 
                     E (Thermal)             CV                S
                      KCal/Mol        Cal/Mol-Kelvin    Cal/Mol-Kelvin
 Total                   40.490             13.921             67.318
 Electronic               0.000              0.000              0.000
 Translational            0.889              2.981             38.481
 Rotational               0.889              2.981             24.125
 Vibrational             38.713              7.959              4.713
 Vibration     1          0.651              1.798              1.894
 Vibration     2          0.752              1.508              1.031
 Vibration     3          0.820              1.333              0.758
 Vibration     4          0.921              1.106              0.513
                       Q            Log10(Q)             Ln(Q)
 Total Bot       0.396735D-15        -15.401499        -35.463263
 Total V=0       0.196292D+13         12.292903         28.305454
[...]
 There are   131 symmetry adapted cartesian basis functions of A"  symmetry.
 There are   167 symmetry adapted basis functions of A'  symmetry.
 There are   117 symmetry adapted basis functions of A"  symmetry.
   284 basis functions,   396 primitive gaussians,   324 cartesian basis functions
    17 alpha electrons       17 beta electrons
       nuclear repulsion energy       131.9488052761 Hartrees.
 NAtoms=    8 NActive=    8 NUniq=    6 SFac= 1.78D+00 NAtFMM=   60 NAOKFM=F Big=F
 Integral buffers will be    131072 words long.
 Raffenetti 2 integral format.
 Two-electron integral symmetry is turned on.
 One-electron integrals computed using PRISM.
 NBasis=   284 RedAO= T EigKep=  5.96D-05  NBF=   167   117
 NBsUse=   284 1.00D-06 EigRej= -1.00D+00 NBFU=   167   117
 Initial guess from the checkpoint file:  "ch3chf2.chk"
 B after Tr=    -0.000000    0.000000    0.000000
         Rot=    1.000000   -0.000000    0.000000   -0.000000 Ang=   0.00 deg.
 Initial guess orbital symmetries:
       Occupied  (A") (A') (A') (A') (A') (A") (A') (A') (A') (A")
                 (A') (A") (A') (A") (A') (A") (A')
       Virtual   (A') (A') (A") (A') (A") (A') (A') (A') (A") (A')
                 (A") (A') (A') (A') (A') (A") (A') (A') (A") (A')
                 (A') (A") (A') (A") (A') (A") (A') (A") (A') (A")
                 (A') (A') (A") (A') (A") (A') (A") (A') (A') (A')
                 (A") (A') (A") (A') (A') (A') (A") (A") (A') (A')
                 (A') (A") (A') (A") (A') (A") (A") (A') (A') (A')
                 (A") (A') (A') (A") (A") (A') (A') (A') (A") (A')
                 (A") (A") (A') (A') (A') (A") (A') (A") (A') (A')
                 (A") (A') (A") (A") (A') (A') (A") (A') (A") (A")
                 (A') (A") (A") (A') (A') (A") (A') (A") (A') (A")
                 (A') (A") (A') (A') (A') (A") (A") (A') (A") (A')
                 (A') (A") (A') (A") (A") (A') (A") (A') (A') (A")
                 (A') (A') (A") (A') (A') (A') (A") (A') (A') (A")
                 (A') (A') (A") (A') (A") (A') (A") (A') (A") (A')
                 (A") (A') (A") (A') (A') (A") (A') (A") (A') (A")
                 (A") (A') (A') (A") (A') (A") (A') (A") (A') (A')
                 (A') (A') (A') (A') (A') (A') (A') (A') (A') (A')
                 (A') (A') (A') (A') (A') (A') (A') (A') (A') (A')
                 (A') (A') (A') (A') (A') (A') (A') (A') (A') (A')
                 (A') (A') (A') (A') (A') (A') (A') (A') (A') (A')
                 (A') (A') (A') (A') (A') (A') (A') (A') (A') (A')
                 (A') (A') (A') (A') (A') (A') (A') (A') (A') (A')
                 (A') (A') (A") (A") (A") (A") (A") (A") (A") (A")
                 (A") (A") (A") (A") (A") (A") (A") (A") (A") (A")
                 (A") (A") (A") (A") (A") (A") (A") (A") (A") (A")
                 (A") (A") (A") (A") (A") (A") (A") (A") (A") (A")
                 (A") (A") (A") (A") (A") (A") (A")
 Requested convergence on RMS density matrix=1.00D-08 within 128 cycles.
 Requested convergence on MAX density matrix=1.00D-06.
 Requested convergence on             energy=1.00D-06.
 No special actions if energy rises.
 SCF Done:  E(ROHF) =  -277.075598337     A.U. after   10 cycles
            NFock= 10  Conv=0.37D-08     -V/T= 2.0008
 <Sx>= 0.0000 <Sy>= 0.0000 <Sz>= 0.0000 <S**2>=-0.0000 S=-0.0000
 <L.S>=  0.00000000000    
 Annihilation of the first spin contaminant:
 S**2 before annihilation    -0.0000,   after    -0.0000

 **********************************************************************

            Population analysis using the SCF Density.

 **********************************************************************

 Orbital symmetries:
       Occupied  (A") (A') (A') (A') (A') (A") (A') (A') (A') (A")
                 (A') (A") (A") (A') (A") (A') (A')
       Virtual   (A') (A') (A") (A') (A') (A") (A') (A') (A") (A')
                 (A') (A") (A') (A') (A") (A") (A') (A') (A") (A')
                 (A') (A") (A') (A') (A') (A") (A") (A') (A') (A")
                 (A') (A') (A") (A') (A") (A') (A') (A') (A') (A")
                 (A') (A") (A") (A') (A') (A") (A') (A") (A') (A')
                 (A') (A") (A') (A') (A") (A") (A') (A') (A') (A")
                 (A') (A') (A") (A') (A") (A") (A') (A") (A') (A")
                 (A") (A') (A') (A') (A") (A') (A') (A") (A') (A")
                 (A') (A') (A") (A') (A") (A") (A') (A') (A') (A")
                 (A') (A") (A") (A') (A') (A') (A') (A") (A") (A')
                 (A') (A') (A") (A') (A") (A') (A") (A') (A") (A')
                 (A') (A") (A") (A') (A") (A") (A') (A') (A') (A")
                 (A') (A') (A") (A') (A") (A") (A') (A") (A') (A')
                 (A') (A") (A') (A") (A') (A") (A') (A') (A') (A")
                 (A") (A') (A") (A') (A') (A') (A") (A") (A') (A')
                 (A") (A') (A") (A') (A") (A') (A") (A') (A") (A')
                 (A') (A') (A") (A") (A') (A") (A') (A') (A') (A")
                 (A") (A") (A') (A") (A') (A') (A') (A") (A') (A")
                 (A') (A") (A') (A') (A') (A") (A") (A') (A") (A')
                 (A') (A") (A") (A") (A') (A') (A') (A") (A') (A")
                 (A') (A') (A') (A") (A') (A") (A') (A") (A') (A')
                 (A") (A') (A') (A") (A') (A") (A') (A') (A") (A')
                 (A') (A") (A") (A') (A') (A") (A') (A") (A") (A')
                 (A') (A") (A') (A') (A") (A") (A') (A") (A') (A")
                 (A') (A") (A') (A") (A') (A') (A") (A') (A") (A')
                 (A") (A') (A') (A") (A') (A") (A') (A') (A') (A")
                 (A') (A") (A') (A") (A') (A') (A")
 The electronic state is 1-A'.
 Alpha  occ. eigenvalues --  -26.30002 -26.30001 -11.40541 -11.24164  -1.64792
 Alpha  occ. eigenvalues --   -1.58825  -1.05232  -0.89170  -0.77089  -0.74981
 Alpha  occ. eigenvalues --   -0.72306  -0.66093  -0.62460  -0.61702  -0.57229
 Alpha  occ. eigenvalues --   -0.56502  -0.51885
 Alpha virt. eigenvalues --    0.04566   0.05452   0.07133   0.07435   0.09299
 Alpha virt. eigenvalues --    0.09480   0.09769   0.16764   0.17021   0.19254
 Alpha virt. eigenvalues --    0.21315   0.23306   0.24565   0.24722   0.25248
 Alpha virt. eigenvalues --    0.26277   0.26528   0.27795   0.29883   0.31686
 Alpha virt. eigenvalues --    0.32687   0.34130   0.35675   0.38963   0.44657
 Alpha virt. eigenvalues --    0.46200   0.46786   0.48725   0.51933   0.52297
 Alpha virt. eigenvalues --    0.52457   0.54064   0.55508   0.55922   0.61741
 Alpha virt. eigenvalues --    0.64919   0.66493   0.68469   0.72142   0.74781
 Alpha virt. eigenvalues --    0.76160   0.77248   0.82074   0.83344   0.83737
 Alpha virt. eigenvalues --    0.86930   0.89878   0.91700   0.92041   0.92215
 Alpha virt. eigenvalues --    0.97240   0.99166   0.99793   1.00700   1.02125
 Alpha virt. eigenvalues --    1.05031   1.05555   1.08726   1.13716   1.16851
 Alpha virt. eigenvalues --    1.17420   1.19875   1.21743   1.33472   1.38896
 Alpha virt. eigenvalues --    1.40843   1.43729   1.47632   1.49612   1.50209
 Alpha virt. eigenvalues --    1.52943   1.55655   1.58662   1.58929   1.67763
 Alpha virt. eigenvalues --    1.69124   1.73279   1.75647   1.76590   1.80638
 Alpha virt. eigenvalues --    1.81573   1.82599   1.84801   1.86365   1.86476
 Alpha virt. eigenvalues --    1.88669   1.90054   1.96943   1.98884   1.99267
 Alpha virt. eigenvalues --    2.00464   2.03553   2.07787   2.08410   2.10726
 Alpha virt. eigenvalues --    2.11895   2.17047   2.17864   2.19357   2.19707
 Alpha virt. eigenvalues --    2.22273   2.26876   2.27078   2.29059   2.31709
 Alpha virt. eigenvalues --    2.33288   2.35502   2.38192   2.39768   2.40731
 Alpha virt. eigenvalues --    2.44437   2.46820   2.51124   2.53507   2.55331
 Alpha virt. eigenvalues --    2.60297   2.60842   2.64068   2.64520   2.71996
 Alpha virt. eigenvalues --    2.72179   2.80673   2.81576   2.84440   2.89290
 Alpha virt. eigenvalues --    2.99698   3.01065   3.01444   3.04477   3.08964
 Alpha virt. eigenvalues --    3.13258   3.20426   3.22024   3.26909   3.32383
 Alpha virt. eigenvalues --    3.43362   3.45566   3.47705   3.54151   3.57378
 Alpha virt. eigenvalues --    3.58989   3.67205   3.70978   3.71372   3.72771
 Alpha virt. eigenvalues --    3.76955   3.79330   3.81695   3.91390   3.92214
 Alpha virt. eigenvalues --    3.97850   4.04793   4.08042   4.18182   4.20910
 Alpha virt. eigenvalues --    4.27186   4.30729   4.34395   4.36622   4.39164
 Alpha virt. eigenvalues --    4.50303   4.54244   4.56217   4.66462   4.73215
 Alpha virt. eigenvalues --    4.73876   4.78178   4.81567   4.86848   4.90651
 Alpha virt. eigenvalues --    4.95295   5.00848   5.01780   5.02946   5.09617
 Alpha virt. eigenvalues --    5.11376   5.20414   5.20614   5.25330   5.27630
 Alpha virt. eigenvalues --    5.39765   5.50040   5.50845   5.57167   5.68685
 Alpha virt. eigenvalues --    5.71004   5.72652   5.97421   5.98697   6.08662
 Alpha virt. eigenvalues --    6.13179   6.13908   6.16099   6.22809   6.22889
 Alpha virt. eigenvalues --    6.26678   6.30303   6.33268   6.47203   6.47433
 Alpha virt. eigenvalues --    6.84827   6.97858   7.13819   7.18764   7.20442
 Alpha virt. eigenvalues --    7.26798   7.26970   8.26933   8.27751   8.42825
 Alpha virt. eigenvalues --    8.45919   8.65945   8.78701   8.80725   8.94170
 Alpha virt. eigenvalues --    9.19130   9.42880   9.56008   9.62582   9.68604
 Alpha virt. eigenvalues --    9.71356  11.38208  11.40990  11.41363  11.42701
 Alpha virt. eigenvalues --   11.57831  11.59412  11.63742  11.64306  11.64624
 Alpha virt. eigenvalues --   11.68507  11.72821  11.82905  11.85837  11.87300
 Alpha virt. eigenvalues --   12.32347  12.48166  12.49437  12.74114  13.17248
 Alpha virt. eigenvalues --   13.36870  13.66627  13.68505  13.69941  13.71825
 Alpha virt. eigenvalues --   13.93163  13.99335  14.00859  14.05016  14.42225
 Alpha virt. eigenvalues --   14.54697  21.40762  21.57258  21.60973  21.61990
 Alpha virt. eigenvalues --   21.86526  21.98505  23.03801  23.49608  47.10562
 Alpha virt. eigenvalues --   47.18879  47.24325  47.33566  47.88074  48.03087
 Alpha virt. eigenvalues --   54.81466  54.99067
          Condensed to atoms (all electrons):
               1          2          3          4          5          6
     1  C    4.349535   0.383410   0.462920   0.172903   0.172903  -0.021036
     2  C    0.383410   4.730480  -0.044758  -0.049050  -0.049050   0.397448
     3  H    0.462920  -0.044758   0.492923  -0.031958  -0.031958   0.006986
     4  F    0.172903  -0.049050  -0.031958   9.317113  -0.014139  -0.005239
     5  F    0.172903  -0.049050  -0.031958  -0.014139   9.317113  -0.005239
     6  H   -0.021036   0.397448   0.006986  -0.005239  -0.005239   0.572640
     7  H   -0.021505   0.419437  -0.004636  -0.008209   0.008808  -0.027102
     8  H   -0.021505   0.419437  -0.004636   0.008808  -0.008209  -0.027102
               7          8
     1  C   -0.021505  -0.021505
     2  C    0.419437   0.419437
     3  H   -0.004636  -0.004636
     4  F   -0.008209   0.008808
     5  F    0.008808  -0.008209
     6  H   -0.027102  -0.027102
     7  H    0.565415  -0.033046
     8  H   -0.033046   0.565415
          Atomic-Atomic Spin Densities.
               1          2          3          4          5          6
     1  C    0.000000   0.000000   0.000000   0.000000   0.000000   0.000000
     2  C    0.000000   0.000000   0.000000   0.000000   0.000000   0.000000
     3  H    0.000000   0.000000   0.000000   0.000000   0.000000   0.000000
     4  F    0.000000   0.000000   0.000000   0.000000   0.000000   0.000000
     5  F    0.000000   0.000000   0.000000   0.000000   0.000000   0.000000
     6  H    0.000000   0.000000   0.000000   0.000000   0.000000   0.000000
     7  H    0.000000   0.000000   0.000000   0.000000   0.000000   0.000000
     8  H    0.000000   0.000000   0.000000   0.000000   0.000000   0.000000
               7          8
     1  C    0.000000   0.000000
     2  C    0.000000   0.000000
     3  H    0.000000   0.000000
     4  F    0.000000   0.000000
     5  F    0.000000   0.000000
     6  H    0.000000   0.000000
     7  H    0.000000   0.000000
     8  H    0.000000   0.000000
 Mulliken charges and spin densities:
               1          2
     1  C    0.522374   0.000000
     2  C   -0.207354   0.000000
     3  H    0.155117   0.000000
     4  F   -0.390229   0.000000
     5  F   -0.390229   0.000000
     6  H    0.108644   0.000000
     7  H    0.100839   0.000000
     8  H    0.100839   0.000000
 Sum of Mulliken charges =  -0.00000   0.00000
 Mulliken charges and spin densities with hydrogens summed into heavy atoms:
               1          2
     1  C    0.677491   0.000000
     2  C    0.102967   0.000000
     4  F   -0.390229   0.000000
     5  F   -0.390229   0.000000
 Electronic spatial extent (au):  <R**2>=            258.5557
 Charge=             -0.0000 electrons
 Dipole moment (field-independent basis, Debye):
    X=             -0.3601    Y=              2.5386    Z=             -0.0000  Tot=              2.5640
 Quadrupole moment (field-independent basis, Debye-Ang):
   XX=            -21.2206   YY=            -22.9193   ZZ=            -25.7789
   XY=              0.5960   XZ=              0.0000   YZ=              0.0000
 Traceless Quadrupole moment (field-independent basis, Debye-Ang):
   XX=              2.0856   YY=              0.3870   ZZ=             -2.4727
   XY=              0.5960   XZ=              0.0000   YZ=              0.0000
 Octapole moment (field-independent basis, Debye-Ang**2):
  XXX=              4.9955  YYY=             -7.1217  ZZZ=             -0.0000  XYY=              0.9895
  XXY=             -2.2322  XXZ=             -0.0000  XZZ=              0.3195  YZZ=              0.2433
  YYZ=             -0.0000  XYZ=              0.0000
 Hexadecapole moment (field-independent basis, Debye-Ang**3):
 XXXX=            -76.6161 YYYY=           -105.8293 ZZZZ=           -100.9231 XXXY=             28.4010
 XXXZ=             -0.0000 YYYX=             25.8102 YYYZ=              0.0000 ZZZX=             -0.0000
 ZZZY=              0.0000 XXYY=            -31.0287 XXZZ=            -30.6500 YYZZ=            -32.3882
 XXYZ=              0.0000 YYXZ=             -0.0000 ZZXY=              8.5806
 N-N= 1.319488052761D+02 E-N=-9.224390818444D+02  KE= 2.768497455852D+02
 Symmetry A'   KE= 1.737524046224D+02
 Symmetry A"   KE= 1.030973409628D+02
 Symmetry A'   SP= 0.000000000000D+00
 Symmetry A"   SP= 0.000000000000D+00
                          Isotropic Fermi Contact Couplings
        Atom                 a.u.       MegaHertz       Gauss      10(-4) cm-1
     1  C(13)              0.00000       0.00000       0.00000       0.00000
     2  C(13)              0.00000       0.00000       0.00000       0.00000
     3  H(1)               0.00000       0.00000       0.00000       0.00000
     4  F(19)              0.00000       0.00000       0.00000       0.00000
     5  F(19)              0.00000       0.00000       0.00000       0.00000
     6  H(1)               0.00000       0.00000       0.00000       0.00000
     7  H(1)               0.00000       0.00000       0.00000       0.00000
     8  H(1)               0.00000       0.00000       0.00000       0.00000
 --------------------------------------------------------
       Center         ----  Spin Dipole Couplings  ----
                      3XX-RR        3YY-RR        3ZZ-RR
 --------------------------------------------------------
     1   Atom        0.000000      0.000000      0.000000
     2   Atom        0.000000      0.000000      0.000000
     3   Atom        0.000000      0.000000      0.000000
     4   Atom        0.000000      0.000000      0.000000
     5   Atom        0.000000      0.000000      0.000000
     6   Atom        0.000000      0.000000      0.000000
     7   Atom        0.000000      0.000000      0.000000
     8   Atom        0.000000      0.000000      0.000000
 --------------------------------------------------------
                        XY            XZ            YZ
 --------------------------------------------------------
     1   Atom        0.000000      0.000000      0.000000
     2   Atom        0.000000      0.000000      0.000000
     3   Atom        0.000000      0.000000      0.000000
     4   Atom        0.000000      0.000000      0.000000
     5   Atom        0.000000      0.000000      0.000000
     6   Atom        0.000000      0.000000      0.000000
     7   Atom        0.000000      0.000000      0.000000
     8   Atom        0.000000      0.000000      0.000000
 --------------------------------------------------------


 ---------------------------------------------------------------------------------
              Anisotropic Spin Dipole Couplings in Principal Axis System
 ---------------------------------------------------------------------------------

       Atom             a.u.   MegaHertz   Gauss  10(-4) cm-1        Axes

              Baa     0.0000     0.000     0.000     0.000  1.0000  0.0000  0.0000
     1 C(13)  Bbb     0.0000     0.000     0.000     0.000 -0.0000  1.0000  0.0000
              Bcc     0.0000     0.000     0.000     0.000  0.0000  0.0000  1.0000
 
              Baa     0.0000     0.000     0.000     0.000  1.0000  0.0000  0.0000
     2 C(13)  Bbb     0.0000     0.000     0.000     0.000 -0.0000  1.0000  0.0000
              Bcc     0.0000     0.000     0.000     0.000  0.0000  0.0000  1.0000
 
              Baa     0.0000     0.000     0.000     0.000  1.0000  0.0000  0.0000
     3 H(1)   Bbb     0.0000     0.000     0.000     0.000 -0.0000  1.0000  0.0000
              Bcc     0.0000     0.000     0.000     0.000  0.0000  0.0000  1.0000
 
              Baa     0.0000     0.000     0.000     0.000  1.0000  0.0000  0.0000
     4 F(19)  Bbb     0.0000     0.000     0.000     0.000 -0.0000  1.0000  0.0000
              Bcc     0.0000     0.000     0.000     0.000  0.0000  0.0000  1.0000
 
              Baa     0.0000     0.000     0.000     0.000  1.0000  0.0000  0.0000
     5 F(19)  Bbb     0.0000     0.000     0.000     0.000 -0.0000  1.0000  0.0000
              Bcc     0.0000     0.000     0.000     0.000  0.0000  0.0000  1.0000
 
              Baa     0.0000     0.000     0.000     0.000  1.0000  0.0000  0.0000
     6 H(1)   Bbb     0.0000     0.000     0.000     0.000 -0.0000  1.0000  0.0000
              Bcc     0.0000     0.000     0.000     0.000  0.0000  0.0000  1.0000
 
              Baa     0.0000     0.000     0.000     0.000  1.0000  0.0000  0.0000
     7 H(1)   Bbb     0.0000     0.000     0.000     0.000 -0.0000  1.0000  0.0000
              Bcc     0.0000     0.000     0.000     0.000  0.0000  0.0000  1.0000
 
              Baa     0.0000     0.000     0.000     0.000  1.0000  0.0000  0.0000
     8 H(1)   Bbb     0.0000     0.000     0.000     0.000 -0.0000  1.0000  0.0000
              Bcc     0.0000     0.000     0.000     0.000  0.0000  0.0000  1.0000
 

 ---------------------------------------------------------------------------------

 1\1\GINC-GAMBA\SP\ROHF\Gen\C2H4F2\IRIKURA\29-Sep-2023\0\\# rohf/gen ge
 om=check guess=check\\1,1-difluoroethane, ROHF/cc-pVTZ-F12\\0,1\C,0,0.
 321211,0.165682,0.\C,0,-0.897912,1.043719,0.\H,0,1.267424,0.708843,0.\
 F,0,0.321211,-0.652293,1.102187\F,0,0.321211,-0.652293,-1.102187\H,0,-
 1.793473,0.424335,0.\H,0,-0.897773,1.675844,0.886558\H,0,-0.897773,1.6
 75844,-0.886558\\Version=ES64L-G16RevB.01\State=1-A'\HF=-277.0755983\R
 MSD=3.695e-09\Dipole=-0.141677,0.9987675,0.\Quadrupole=1.5506203,0.287
 7445,-1.8383648,0.4431412,0.,0.\PG=CS [SG(C2H2),X(H2F2)]\\@


 THERE'S NOTHING SO GREAT AS THE GREAT OUTDOORS.

                                       -- ZIGGY
 Job cpu time:       0 days  0 hours  2 minutes 43.5 seconds.
 Elapsed time:       0 days  0 hours  0 minutes 40.9 seconds.
 File lengths (MBytes):  RWF=     61 Int=      0 D2E=      0 Chk=      8 Scr=      1
 Normal termination of Gaussian 16 at Fri Sep 29 04:11:50 2023.
