 Entering Gaussian System, Link 0=g16
 AtFile(1): pcseg2.gbs
            -H     0
            S   4   1.00
                  0.754732D+02           0.427821D-02
                  0.113575D+02           0.328672D-01
                  0.260081D+01           0.159578D+00
                  0.735503D+00           0.500000D+00
            S   1   1.00
                  0.231761D+00           1.0000000
            S   1   1.00
                  0.741675D-01           1.0000000
            P   1   1.00
                  0.160000D+01           1.0000000
            P   1   1.00
                  0.450000D+00           1.0000000
            D   1   1.00
                  0.125000D+01           1.0000000
            ****
            -C     0
            S   7   1.00
                  0.731999D+04           0.695369D-03
                  0.109818D+04           0.537138D-02
                  0.250014D+03           0.274734D-01
                  0.707586D+02           0.105078D+00
                  0.228595D+02           0.291262D+00
                  0.803936D+01           0.500000D+00
                  0.289309D+01           0.362224D+00
            S   2   1.00
                  0.521640D+01          -0.957844D-01
                  0.556124D+00           0.500000D+00
            S   1   1.00
                  0.228813D+00           1.0000000
            S   1   1.00
                  0.936338D-01           1.0000000
            P   4   1.00
                  0.339855D+02           0.818395D-02
                  0.772957D+01           0.586921D-01
                  0.224954D+01           0.222514D+00
                  0.767681D+00           0.500000D+00
            P   1   1.00
                  0.263283D+00           1.0000000
            P   1   1.00
                  0.848744D-01           1.0000000
            D   1   1.00
                  0.140000D+01           1.0000000
            D   1   1.00
                  0.450000D+00           1.0000000
            F   1   1.00
                  0.950000D+00           1.0000000
            ****
            -O     0
            S   7   1.00
                  0.135887D+05           0.665492D-03
                  0.203847D+04           0.514222D-02
                  0.464041D+03           0.263472D-01
                  0.131339D+03           0.101500D+00
                  0.425340D+02           0.285877D+00
                  0.150429D+02           0.500000D+00
                  0.546616D+01           0.368211D+00
            S   2   1.00
                  0.100915D+02          -0.100084D+00
                  0.110429D+01           0.500000D+00
            S   1   1.00
                  0.448082D+00           1.0000000
            S   1   1.00
                  0.175325D+00           1.0000000
            P   4   1.00
                  0.608220D+02           0.908253D-02
                  0.140332D+02           0.645878D-01
                  0.418244D+01           0.241502D+00
                  0.142490D+01           0.500000D+00
            P   1   1.00
                  0.478741D+00           1.0000000
            P   1   1.00
                  0.146257D+00           1.0000000
            D   1   1.00
                  0.220000D+01           1.0000000
            D   1   1.00
                  0.650000D+00           1.0000000
            F   1   1.00
                  0.110000D+01           1.0000000
            ****
            -N     0
            S   7   1.00
                  0.101643D+05           0.682757D-03
                  0.152481D+04           0.527488D-02
                  0.347119D+03           0.270037D-01
                  0.982389D+02           0.103673D+00
                  0.317799D+02           0.289575D+00
                  0.112240D+02           0.500000D+00
                  0.406611D+01           0.364621D+00
            S   2   1.00
                  0.747898D+01          -0.975681D-01
                  0.805040D+00           0.500000D+00
            S   1   1.00
                  0.324626D+00           1.0000000
            S   1   1.00
                  0.128132D+00           1.0000000
            P   4   1.00
                  0.482704D+02           0.829547D-02
                  0.110815D+02           0.596223D-01
                  0.326643D+01           0.227889D+00
                  0.111680D+01           0.500000D+00
            P   1   1.00
                  0.382049D+00           1.0000000
            P   1   1.00
                  0.121222D+00           1.0000000
            D   1   1.00
                  0.180000D+01           1.0000000
            D   1   1.00
                  0.550000D+00           1.0000000
            F   1   1.00
                  0.102000D+01           1.0000000
            ****
            -F     0
            S   7   1.00
                  0.174507D+05           0.655972D-03
                  0.261768D+04           0.506944D-02
                  0.595857D+03           0.259899D-01
                  0.168651D+03           0.100353D+00
                  0.546654D+02           0.284095D+00
                  0.193717D+02           0.500000D+00
                  0.706202D+01           0.370721D+00
            S   2   1.00
                  0.131197D+02          -0.101997D+00
                  0.145046D+01           0.500000D+00
            S   1   1.00
                  0.588255D+00           1.0000000
            S   1   1.00
                  0.227960D+00           1.0000000
            P   4   1.00
                  0.779407D+02           0.931135D-02
                  0.180425D+02           0.663964D-01
                  0.542342D+01           0.246386D+00
                  0.184876D+01           0.500000D+00
            P   1   1.00
                  0.617455D+00           1.0000000
            P   1   1.00
                  0.185496D+00           1.0000000
            D   1   1.00
                  0.280000D+01           1.0000000
            D   1   1.00
                  0.800000D+00           1.0000000
            F   1   1.00
                  0.120000D+01           1.0000000
            ****
            -Cl     0
            S   8   1.00
                  0.154272D+06           0.222473D-03
                  0.231232D+05           0.172590D-02
                  0.526257D+04           0.899286D-02
                  0.148995D+04           0.367724D-01
                  0.485417D+03           0.121446D+00
                  0.174634D+03           0.304148D+00
                  0.672393D+02           0.500000D+00
                  0.265780D+02           0.360252D+00
            S   3   1.00
                  0.131826D+03          -0.531330D-01
                  0.400703D+02          -0.233346D+00
                  0.789448D+01           0.500000D+00
            S   2   1.00
                  0.427711D+01           0.500000D+00
                  0.196233D+01           0.370517D+00
            S   1   1.00
                  0.520793D+00           1.0000000
            S   1   1.00
                  0.181633D+00           1.0000000
            P   7   1.00
                  0.124440D+04           0.988206D-03
                  0.295109D+03           0.829674D-02
                  0.947224D+02           0.430906D-01
                  0.352588D+02           0.148443D+00
                  0.144211D+02           0.344744D+00
                  0.610371D+01           0.500000D+00
                  0.258886D+01           0.348278D+00
            P   2   1.00
                  0.109447D+02          -0.196768D-01
                  0.104413D+01           0.500000D+00
            P   1   1.00
                  0.376184D+00           1.0000000
            P   1   1.00
                  0.120613D+00           1.0000000
            D   1   1.00
                  0.231000D+01           1.0000000
            D   1   1.00
                  0.520000D+00           1.0000000
            F   1   1.00
                  0.720000D+00           1.0000000
            ****
            -S     0
            S   8   1.00
                  0.134700D+06           0.226231D-03
                  0.201904D+05           0.175488D-02
                  0.459528D+04           0.914190D-02
                  0.130109D+04           0.373551D-01
                  0.423902D+03           0.123121D+00
                  0.152485D+03           0.306801D+00
                  0.586925D+02           0.500000D+00
                  0.231461D+02           0.354358D+00
            S   3   1.00
                  0.116327D+03          -0.491772D-01
                  0.352841D+02          -0.215962D+00
                  0.677831D+01           0.500000D+00
            S   2   1.00
                  0.360404D+01           0.500000D+00
                  0.164871D+01           0.366278D+00
            S   1   1.00
                  0.421821D+00           1.0000000
            S   1   1.00
                  0.147554D+00           1.0000000
            P   7   1.00
                  0.104863D+04           0.105273D-02
                  0.248717D+03           0.879338D-02
                  0.797887D+02           0.453358D-01
                  0.296023D+02           0.154476D+00
                  0.120627D+02           0.352366D+00
                  0.507628D+01           0.500000D+00
                  0.213375D+01           0.346429D+00
            P   2   1.00
                  0.928958D+01          -0.185932D-01
                  0.837819D+00           0.500000D+00
            P   1   1.00
                  0.301495D+00           1.0000000
            P   1   1.00
                  0.974740D-01           1.0000000
            D   1   1.00
                  0.210000D+01           1.0000000
            D   1   1.00
                  0.480000D+00           1.0000000
            F   1   1.00
                  0.660000D+00           1.0000000
            ****
            -Br     0
            S    10   1.00
                  0.233625D+07           0.532336D-04
                  0.349961D+06           0.413715D-03
                  0.796444D+05           0.217123D-02
                  0.225555D+05           0.910109D-02
                  0.735546D+04           0.323789D-01
                  0.265352D+04           0.988755D-01
                  0.103517D+04           0.248138D+00
                  0.422205D+03           0.474328D+00
                  0.180035D+03           0.500000D+00
                  0.793308D+02           0.187769D+00
            S    4   1.00
                  0.620834D+03          -0.226511D-01
                  0.190829D+03          -0.109497D+00
                  0.312505D+02           0.500000D+00
                  0.135270D+02           0.492812D+00
            S    2   1.00
                  0.216097D+02          -0.165418D+00
                  0.372566D+01           0.500000D+00
            S    1   1.00
                  0.169770D+01           1.0000000
            S    1   1.00
                  0.489332D+00           1.0000000
            S    1   1.00
                  0.175712D+00           1.0000000
            P    8   1.00
                  0.960829D+04           0.478974D-03
                  0.227618D+04           0.417853D-02
                  0.736723D+03           0.229315D-01
                  0.281579D+03           0.892653D-01
                  0.118395D+03           0.255288D+00
                  0.527481D+02           0.479074D+00
                  0.245098D+02           0.500000D+00
                  0.112009D+02           0.200944D+00
            P    4   1.00
                  0.587849D+02          -0.189674D-01
                  0.918962D+01           0.264104D+00
                  0.413895D+01           0.500000D+00
                  0.184225D+01           0.319316D+00
            P    1   1.00
                  0.713862D+00           1.0000000
            P    1   1.00
                  0.274232D+00           1.0000000
            P    1   1.00
                  0.944411D-01           1.0000000
            D    7   1.00
                  0.398470D+03           0.204066D-02
                  0.118967D+03           0.175171D-01
                  0.450197D+02           0.829708D-01
                  0.190320D+02           0.236284D+00
                  0.855686D+01           0.428468D+00
                  0.382950D+01           0.500000D+00
                  0.166291D+01           0.349360D+00
            D    1   1.00
                  0.672953D+00           1.0000000
            D    1   1.00
                  0.252000D+00           1.0000000
            F    1   1.00
                  0.530000D+00           1.0000000
            ****
            -Si     0
            S    8   1.00
                  0.996133D+05           0.235546D-03
                  0.149311D+05           0.182707D-02
                  0.339820D+04           0.951425D-02
                  0.962140D+03           0.388172D-01
                  0.313430D+03           0.127328D+00
                  0.112683D+03           0.313522D+00
                  0.433372D+02           0.500000D+00
                  0.170029D+02           0.340347D+00
            S    3   1.00
                  0.884208D+02          -0.404451D-01
                  0.266756D+02          -0.178059D+00
                  0.479640D+01           0.500000D+00
            S    2   1.00
                  0.239385D+01           0.500000D+00
                  0.108333D+01           0.338016D+00
            S    1   1.00
                  0.252420D+00           1.0000000
            S    1   1.00
                  0.891210D-01           1.0000000
            P    7   1.00
                  0.709901D+03           0.123028D-02
                  0.168426D+03           0.101366D-01
                  0.539946D+02           0.511840D-01
                  0.198646D+02           0.169967D+00
                  0.801369D+01           0.370717D+00
                  0.331870D+01           0.500000D+00
                  0.136112D+01           0.344128D+00
            P    2   1.00
                  0.622158D+01          -0.166609D-01
                  0.503049D+00           0.500000D+00
            P    1   1.00
                  0.179848D+00           1.0000000
            P    1   1.00
                  0.591912D-01           1.0000000
            D    1   1.00
                  0.168000D+01           1.0000000
            D    1   1.00
                  0.380000D+00           1.0000000
            F    1   1.00
                  0.540000D+00           1.0000000
            ****
            -P     0
            S    8   1.00
                  0.116416D+06           0.230715D-03
                  0.174500D+05           0.178960D-02
                  0.397149D+04           0.932116D-02
                  0.112447D+04           0.380591D-01
                  0.366347D+03           0.125148D+00
                  0.131757D+03           0.310022D+00
                  0.506988D+02           0.500000D+00
                  0.199436D+02           0.347528D+00
            S    3   1.00
                  0.101878D+03          -0.446755D-01
                  0.308249D+02          -0.196376D+00
                  0.573688D+01           0.500000D+00
            S    2   1.00
                  0.296868D+01           0.500000D+00
                  0.135315D+01           0.355098D+00
            S    1   1.00
                  0.332196D+00           1.0000000
            S    1   1.00
                  0.116229D+00           1.0000000
            P    7   1.00
                  0.873928D+03           0.112375D-02
                  0.207298D+03           0.933330D-02
                  0.664628D+02           0.477213D-01
                  0.245665D+02           0.160733D+00
                  0.996820D+01           0.359760D+00
                  0.416536D+01           0.500000D+00
                  0.173022D+01           0.346593D+00
            P    2   1.00
                  0.772530D+01          -0.175718D-01
                  0.657252D+00           0.500000D+00
            P    1   1.00
                  0.239903D+00           1.0000000
            P    1   1.00
                  0.800988D-01           1.0000000
            D    1   1.00
                  0.189000D+01           1.0000000
            D    1   1.00
                  0.430000D+00           1.0000000
            F    1   1.00
                  0.600000D+00           1.0000000
            ****
            
 Initial command:
 /usr/local/apps/g16_b01_avx/g16/l1.exe "/wrk/irikura/Gau-450461.inp" -scrdir="/wrk/irikura/"
 Entering Link 1 = /usr/local/apps/g16_b01_avx/g16/l1.exe PID=    450463.
  
 Copyright (c) 1988-2017, Gaussian, Inc.  All Rights Reserved.
  
 This is part of the Gaussian(R) 16 program.  It is based on
 the Gaussian(R) 09 system (copyright 2009, Gaussian, Inc.),
 the Gaussian(R) 03 system (copyright 2003, Gaussian, Inc.),
 the Gaussian(R) 98 system (copyright 1998, Gaussian, Inc.),
 the Gaussian(R) 94 system (copyright 1995, Gaussian, Inc.),
 the Gaussian 92(TM) system (copyright 1992, Gaussian, Inc.),
 the Gaussian 90(TM) system (copyright 1990, Gaussian, Inc.),
 the Gaussian 88(TM) system (copyright 1988, Gaussian, Inc.),
 the Gaussian 86(TM) system (copyright 1986, Carnegie Mellon
 University), and the Gaussian 82(TM) system (copyright 1983,
 Carnegie Mellon University). Gaussian is a federally registered
 trademark of Gaussian, Inc.
  
 This software contains proprietary and confidential information,
 including trade secrets, belonging to Gaussian, Inc.
  
 This software is provided under written license and may be
 used, copied, transmitted, or stored only in accord with that
 written license.
  
 The following legend is applicable only to US Government
 contracts under FAR:
  
                    RESTRICTED RIGHTS LEGEND
  
 Use, reproduction and disclosure by the US Government is
 subject to restrictions as set forth in subparagraphs (a)
 and (c) of the Commercial Computer Software - Restricted
 Rights clause in FAR 52.227-19.
  
 Gaussian, Inc.
 340 Quinnipiac St., Bldg. 40, Wallingford CT 06492
  
  
 ---------------------------------------------------------------
 Warning -- This program may not be used in any manner that
 competes with the business of Gaussian, Inc. or will provide
 assistance to any competitor of Gaussian, Inc.  The licensee
 of this program is prohibited from giving any competitor of
 Gaussian, Inc. access to this program.  By using this program,
 the user acknowledges that Gaussian, Inc. is engaged in the
 business of creating and licensing software in the field of
 computational chemistry and represents and warrants to the
 licensee that it is not a competitor of Gaussian, Inc. and that
 it will not use this program in any manner prohibited above.
 ---------------------------------------------------------------
  

 Cite this work as:
 Gaussian 16, Revision B.01,
 M. J. Frisch, G. W. Trucks, H. B. Schlegel, G. E. Scuseria, 
 M. A. Robb, J. R. Cheeseman, G. Scalmani, V. Barone, 
 G. A. Petersson, H. Nakatsuji, X. Li, M. Caricato, A. V. Marenich, 
 J. Bloino, B. G. Janesko, R. Gomperts, B. Mennucci, H. P. Hratchian, 
 J. V. Ortiz, A. F. Izmaylov, J. L. Sonnenberg, D. Williams-Young, 
 F. Ding, F. Lipparini, F. Egidi, J. Goings, B. Peng, A. Petrone, 
 T. Henderson, D. Ranasinghe, V. G. Zakrzewski, J. Gao, N. Rega, 
 G. Zheng, W. Liang, M. Hada, M. Ehara, K. Toyota, R. Fukuda, 
 J. Hasegawa, M. Ishida, T. Nakajima, Y. Honda, O. Kitao, H. Nakai, 
 T. Vreven, K. Throssell, J. A. Montgomery, Jr., J. E. Peralta, 
 F. Ogliaro, M. J. Bearpark, J. J. Heyd, E. N. Brothers, K. N. Kudin, 
 V. N. Staroverov, T. A. Keith, R. Kobayashi, J. Normand, 
 K. Raghavachari, A. P. Rendell, J. C. Burant, S. S. Iyengar, 
 J. Tomasi, M. Cossi, J. M. Millam, M. Klene, C. Adamo, R. Cammi, 
 J. W. Ochterski, R. L. Martin, K. Morokuma, O. Farkas, 
 J. B. Foresman, and D. J. Fox, Gaussian, Inc., Wallingford CT, 2016.
 
 ******************************************
 Gaussian 16:  ES64L-G16RevB.01 20-Dec-2017
                30-Sep-2023 
 ******************************************
 %chk=ch3chco.chk
 %mem=500mw
 %nprocs=4
 Will use up to    4 processors via shared memory.
 ---------------------------------------
 # b3lyp/gen opt freq CPHF(Grid=OneStep)
 ---------------------------------------
 1/18=20,19=15,26=3,38=1/1,3;
 2/9=110,12=2,17=6,18=5,40=1/2;
 3/5=7,11=2,25=1,30=1,71=1,74=-5/1,2,3;
 4//1;
 5/5=2,38=5/2;
 6/7=2,8=2,9=2,10=2,28=1/1;
 7//1,2,3,16;
 1/18=20,19=15,26=3/3(2);
 2/9=110/2;
 99//99;
 2/9=110/2;
 3/5=7,6=1,11=2,25=1,30=1,71=1,74=-5,82=7/1,2,3;
 4/5=5,16=3,69=1/1;
 5/5=2,38=5/2;
 7//1,2,3,16;
 1/18=20,19=15,26=3/3(-5);
 2/9=110/2;
 6/7=2,8=2,9=2,10=2,19=2,28=1/1;
 99/9=1/99;
 ---------------------------
 methylketene, B3LYP/pcseg-2
 ---------------------------
 Symbolic Z-matrix:
 Charge =  0 Multiplicity = 1
 C                    -0.76475   0.12681   0.00004 
 C                     0.46668   0.56836  -0.00007 
 C                     1.68094  -0.32997   0. 
 O                    -1.85902  -0.2686   -0.00001 
 H                     0.58103   1.64431   0.00009 
 H                     1.3967   -1.38083   0.00055 
 H                     2.29851  -0.15339  -0.8822 
 H                     2.29873  -0.15253   0.88184 
 

 GradGradGradGradGradGradGradGradGradGradGradGradGradGradGradGradGradGrad
 Berny optimization.
 Initialization pass.
                           ----------------------------
                           !    Initial Parameters    !
                           ! (Angstroms and Degrees)  !
 --------------------------                            --------------------------
 ! Name  Definition              Value          Derivative Info.                !
 --------------------------------------------------------------------------------
 ! R1    R(1,2)                  1.3082         estimate D2E/DX2                !
 ! R2    R(1,4)                  1.1635         estimate D2E/DX2                !
 ! R3    R(2,3)                  1.5104         estimate D2E/DX2                !
 ! R4    R(2,5)                  1.082          estimate D2E/DX2                !
 ! R5    R(3,6)                  1.0886         estimate D2E/DX2                !
 ! R6    R(3,7)                  1.0913         estimate D2E/DX2                !
 ! R7    R(3,8)                  1.0912         estimate D2E/DX2                !
 ! A1    A(1,2,3)              123.7791         estimate D2E/DX2                !
 ! A2    A(1,2,5)              115.7929         estimate D2E/DX2                !
 ! A3    A(3,2,5)              120.428          estimate D2E/DX2                !
 ! A4    A(2,3,6)              111.3593         estimate D2E/DX2                !
 ! A5    A(2,3,7)              111.019          estimate D2E/DX2                !
 ! A6    A(2,3,8)              111.0058         estimate D2E/DX2                !
 ! A7    A(6,3,7)              107.7199         estimate D2E/DX2                !
 ! A8    A(6,3,8)              107.7205         estimate D2E/DX2                !
 ! A9    A(7,3,8)              107.8541         estimate D2E/DX2                !
 ! A10   L(2,1,4,6,-1)         179.8588         estimate D2E/DX2                !
 ! A11   L(2,1,4,6,-2)         180.0084         estimate D2E/DX2                !
 ! D1    D(1,2,3,6)             -0.0223         estimate D2E/DX2                !
 ! D2    D(1,2,3,7)            120.0025         estimate D2E/DX2                !
 ! D3    D(1,2,3,8)           -120.039          estimate D2E/DX2                !
 ! D4    D(5,2,3,6)            179.9591         estimate D2E/DX2                !
 ! D5    D(5,2,3,7)            -60.0161         estimate D2E/DX2                !
 ! D6    D(5,2,3,8)             59.9424         estimate D2E/DX2                !
 --------------------------------------------------------------------------------
 Trust Radius=3.00D-01 FncErr=1.00D-07 GrdErr=1.00D-06 EigMax=2.50D+02 EigMin=1.00D-04
 Number of steps in this run=     34 maximum allowed number of steps=    100.
 GradGradGradGradGradGradGradGradGradGradGradGradGradGradGradGradGradGrad

                          Input orientation:                          
 ---------------------------------------------------------------------
 Center     Atomic      Atomic             Coordinates (Angstroms)
 Number     Number       Type             X           Y           Z
 ---------------------------------------------------------------------
      1          6           0       -0.764753    0.126812    0.000035
      2          6           0        0.466681    0.568364   -0.000070
      3          6           0        1.680937   -0.329965    0.000003
      4          8           0       -1.859020   -0.268603   -0.000010
      5          1           0        0.581034    1.644305    0.000086
      6          1           0        1.396695   -1.380829    0.000547
      7          1           0        2.298511   -0.153388   -0.882204
      8          1           0        2.298732   -0.152533    0.881844
 ---------------------------------------------------------------------
                    Distance matrix (angstroms):
                    1          2          3          4          5
     1  C    0.000000
     2  C    1.308204   0.000000
     3  C    2.487980   1.510435   0.000000
     4  O    1.163518   2.471720   3.540489   0.000000
     5  H    2.028282   1.082001   2.259984   3.100497   0.000000
     6  H    2.635306   2.159694   1.088627   3.440454   3.133168
     7  H    3.200069   2.157472   1.091268   4.251659   2.638155
     8  H    3.200088   2.157284   1.091236   4.251828   2.637539
                    6          7          8
     6  H    0.000000
     7  H    1.760435   0.000000
     8  H    1.760416   1.764048   0.000000
 Stoichiometry    C3H4O
 Framework group  C1[X(C3H4O)]
 Deg. of freedom    18
 Full point group                 C1      NOp   1
 Largest Abelian subgroup         C1      NOp   1
 Largest concise Abelian subgroup C1      NOp   1
                         Standard orientation:                         
 ---------------------------------------------------------------------
 Center     Atomic      Atomic             Coordinates (Angstroms)
 Number     Number       Type             X           Y           Z
 ---------------------------------------------------------------------
      1          6           0        0.764753    0.126812   -0.000035
      2          6           0       -0.466681    0.568364    0.000070
      3          6           0       -1.680937   -0.329965   -0.000003
      4          8           0        1.859020   -0.268603    0.000010
      5          1           0       -0.581034    1.644305   -0.000086
      6          1           0       -1.396695   -1.380829   -0.000547
      7          1           0       -2.298511   -0.153388    0.882204
      8          1           0       -2.298732   -0.152533   -0.881844
 ---------------------------------------------------------------------
 Rotational constants (GHZ):          39.5944511           4.4878392           4.1343708
 General basis read from cards:  (5D, 7F)
 There are   200 symmetry adapted cartesian basis functions of A   symmetry.
 There are   176 symmetry adapted basis functions of A   symmetry.
   176 basis functions,   276 primitive gaussians,   200 cartesian basis functions
    15 alpha electrons       15 beta electrons
       nuclear repulsion energy       102.4150051727 Hartrees.
 NAtoms=    8 NActive=    8 NUniq=    8 SFac= 1.00D+00 NAtFMM=   60 NAOKFM=F Big=F
 Integral buffers will be    131072 words long.
 Raffenetti 2 integral format.
 Two-electron integral symmetry is turned on.
 One-electron integrals computed using PRISM.
 NBasis=   176 RedAO= T EigKep=  2.05D-04  NBF=   176
 NBsUse=   176 1.00D-06 EigRej= -1.00D+00 NBFU=   176
 ExpMin= 7.42D-02 ExpMax= 1.36D+04 ExpMxC= 4.64D+02 IAcc=3 IRadAn=         5 AccDes= 0.00D+00
 Harris functional with IExCor=  402 and IRadAn=       5 diagonalized for initial guess.
 HarFok:  IExCor=  402 AccDes= 0.00D+00 IRadAn=         5 IDoV= 1 UseB2=F ITyADJ=14
 ICtDFT=  3500011 ScaDFX=  1.000000  1.000000  1.000000  1.000000
 FoFCou: FMM=F IPFlag=           0 FMFlag=      100000 FMFlg1=           0
         NFxFlg=           0 DoJE=T BraDBF=F KetDBF=T FulRan=T
         wScrn=  0.000000 ICntrl=       500 IOpCl=  0 I1Cent=   200000004 NGrid=           0
         NMat0=    1 NMatS0=      1 NMatT0=    0 NMatD0=    1 NMtDS0=    0 NMtDT0=    0
 Petite list used in FoFCou.
 Keep R1 ints in memory in canonical form, NReq=125435516.
 Requested convergence on RMS density matrix=1.00D-08 within 128 cycles.
 Requested convergence on MAX density matrix=1.00D-06.
 Requested convergence on             energy=1.00D-06.
 No special actions if energy rises.
 Integral accuracy reduced to 1.0D-05 until final iterations.
 Initial convergence to 1.0D-05 achieved.  Increase integral accuracy.
 SCF Done:  E(RB3LYP) =  -191.998005335     A.U. after   13 cycles
            NFock= 13  Conv=0.70D-08     -V/T= 2.0036

 **********************************************************************

            Population analysis using the SCF Density.

 **********************************************************************

 Orbital symmetries:
       Occupied  (A) (A) (A) (A) (A) (A) (A) (A) (A) (A) (A) (A)
                 (A) (A) (A)
       Virtual   (A) (A) (A) (A) (A) (A) (A) (A) (A) (A) (A) (A)
                 (A) (A) (A) (A) (A) (A) (A) (A) (A) (A) (A) (A)
                 (A) (A) (A) (A) (A) (A) (A) (A) (A) (A) (A) (A)
                 (A) (A) (A) (A) (A) (A) (A) (A) (A) (A) (A) (A)
                 (A) (A) (A) (A) (A) (A) (A) (A) (A) (A) (A) (A)
                 (A) (A) (A) (A) (A) (A) (A) (A) (A) (A) (A) (A)
                 (A) (A) (A) (A) (A) (A) (A) (A) (A) (A) (A) (A)
                 (A) (A) (A) (A) (A) (A) (A) (A) (A) (A) (A) (A)
                 (A) (A) (A) (A) (A) (A) (A) (A) (A) (A) (A) (A)
                 (A) (A) (A) (A) (A) (A) (A) (A) (A) (A) (A) (A)
                 (A) (A) (A) (A) (A) (A) (A) (A) (A) (A) (A) (A)
                 (A) (A) (A) (A) (A) (A) (A) (A) (A) (A) (A) (A)
                 (A) (A) (A) (A) (A) (A) (A) (A) (A) (A) (A) (A)
                 (A) (A) (A) (A) (A)
 The electronic state is 1-A.
 Alpha  occ. eigenvalues --  -19.18433 -10.28770 -10.18938 -10.18467  -1.11607
 Alpha  occ. eigenvalues --   -0.80748  -0.69268  -0.53570  -0.50189  -0.46312
 Alpha  occ. eigenvalues --   -0.45833  -0.42119  -0.40811  -0.38953  -0.23662
 Alpha virt. eigenvalues --   -0.04327   0.01791   0.04102   0.05683   0.05898
 Alpha virt. eigenvalues --    0.07212   0.10552   0.12636   0.15141   0.16091
 Alpha virt. eigenvalues --    0.19237   0.21304   0.22838   0.23931   0.27160
 Alpha virt. eigenvalues --    0.27240   0.32170   0.33692   0.34464   0.34526
 Alpha virt. eigenvalues --    0.37655   0.40572   0.41719   0.48556   0.48869
 Alpha virt. eigenvalues --    0.52393   0.54295   0.62866   0.74519   0.75739
 Alpha virt. eigenvalues --    0.79552   0.80514   0.88624   0.90461   0.93643
 Alpha virt. eigenvalues --    0.94320   0.97338   0.98616   1.00122   1.05735
 Alpha virt. eigenvalues --    1.06684   1.07854   1.10851   1.16750   1.18567
 Alpha virt. eigenvalues --    1.20263   1.21047   1.23268   1.26864   1.32756
 Alpha virt. eigenvalues --    1.35183   1.37413   1.43236   1.47031   1.49775
 Alpha virt. eigenvalues --    1.55829   1.56186   1.63250   1.68663   1.69787
 Alpha virt. eigenvalues --    1.70783   1.72561   1.76549   1.81804   1.84968
 Alpha virt. eigenvalues --    1.97269   2.06169   2.13067   2.18290   2.26738
 Alpha virt. eigenvalues --    2.28802   2.37323   2.43701   2.50217   2.60228
 Alpha virt. eigenvalues --    2.66994   2.78478   3.00318   3.02448   3.03297
 Alpha virt. eigenvalues --    3.15364   3.15540   3.24828   3.26233   3.27296
 Alpha virt. eigenvalues --    3.28918   3.34825   3.40502   3.41151   3.44298
 Alpha virt. eigenvalues --    3.54895   3.60930   3.62023   3.72842   3.74968
 Alpha virt. eigenvalues --    3.77422   3.79303   3.82096   3.84347   3.84609
 Alpha virt. eigenvalues --    3.90239   3.93257   3.95828   4.01723   4.01791
 Alpha virt. eigenvalues --    4.04618   4.07007   4.09269   4.18780   4.18808
 Alpha virt. eigenvalues --    4.20664   4.26291   4.26899   4.29348   4.34219
 Alpha virt. eigenvalues --    4.35182   4.41426   4.42562   4.46478   4.49866
 Alpha virt. eigenvalues --    4.56095   4.59582   4.62201   4.65237   4.66204
 Alpha virt. eigenvalues --    4.68668   4.71341   4.77937   4.80839   4.85468
 Alpha virt. eigenvalues --    4.91720   4.95061   4.99800   5.03660   5.06829
 Alpha virt. eigenvalues --    5.19535   5.27137   5.28673   5.46117   5.49870
 Alpha virt. eigenvalues --    5.55664   5.71146   5.71587   5.73701   5.77439
 Alpha virt. eigenvalues --    5.78260   5.84822   5.86639   5.89408   5.91512
 Alpha virt. eigenvalues --    6.01304   6.03604   6.04706   6.13946   6.16186
 Alpha virt. eigenvalues --    6.27058   6.55066   6.65026   6.70054   7.08230
 Alpha virt. eigenvalues --    7.93578
          Condensed to atoms (all electrons):
               1          2          3          4          5          6
     1  C    4.563477   0.576916  -0.040342   0.589560  -0.027613   0.002508
     2  C    0.576916   5.115903   0.298287  -0.067504   0.421658  -0.047319
     3  C   -0.040342   0.298287   4.514269   0.001961  -0.019023   0.432326
     4  O    0.589560  -0.067504   0.001961   7.761575   0.000746   0.000709
     5  H   -0.027613   0.421658  -0.019023   0.000746   0.553533   0.004887
     6  H    0.002508  -0.047319   0.432326   0.000709   0.004887   0.623347
     7  H   -0.001286  -0.054168   0.428789   0.000419  -0.003678  -0.022472
     8  H   -0.001277  -0.054184   0.428812   0.000418  -0.003689  -0.022456
               7          8
     1  C   -0.001286  -0.001277
     2  C   -0.054168  -0.054184
     3  C    0.428789   0.428812
     4  O    0.000419   0.000418
     5  H   -0.003678  -0.003689
     6  H   -0.022472  -0.022456
     7  H    0.655998  -0.045036
     8  H   -0.045036   0.656003
 Mulliken charges:
               1
     1  C    0.338057
     2  C   -0.189589
     3  C   -0.045078
     4  O   -0.287884
     5  H    0.073179
     6  H    0.028471
     7  H    0.041434
     8  H    0.041409
 Sum of Mulliken charges =  -0.00000
 Mulliken charges with hydrogens summed into heavy atoms:
               1
     1  C    0.338057
     2  C   -0.116410
     3  C    0.066236
     4  O   -0.287884
 Electronic spatial extent (au):  <R**2>=            311.2804
 Charge=             -0.0000 electrons
 Dipole moment (field-independent basis, Debye):
    X=             -1.8844    Y=              0.4411    Z=             -0.0003  Tot=              1.9353
 Quadrupole moment (field-independent basis, Debye-Ang):
   XX=            -26.5671   YY=            -22.2963   ZZ=            -25.1859
   XY=              0.9365   XZ=              0.0001   YZ=             -0.0004
 Traceless Quadrupole moment (field-independent basis, Debye-Ang):
   XX=             -1.8840   YY=              2.3868   ZZ=             -0.5028
   XY=              0.9365   XZ=              0.0001   YZ=             -0.0004
 Octapole moment (field-independent basis, Debye-Ang**2):
  XXX=             -3.2982  YYY=              0.4706  ZZZ=              0.0002  XYY=              1.9530
  XXY=              1.9998  XXZ=             -0.0001  XZZ=              1.7946  YZZ=             -1.2296
  YYZ=             -0.0012  XYZ=              0.0006
 Hexadecapole moment (field-independent basis, Debye-Ang**3):
 XXXX=           -324.2100 YYYY=            -54.3333 ZZZZ=            -34.7178 XXXY=              0.9062
 XXXZ=              0.0008 YYYX=             -2.7386 YYYZ=              0.0001 ZZZX=             -0.0009
 ZZZY=             -0.0012 XXYY=            -61.6318 XXZZ=            -55.0862 YYZZ=            -17.3286
 XXYZ=             -0.0023 YYXZ=              0.0012 ZZXY=             -0.6501
 N-N= 1.024150051727D+02 E-N=-6.530690997166D+02  KE= 1.913167929298D+02
 Calling FoFJK, ICntrl=      2127 FMM=F ISym2X=0 I1Cent= 0 IOpClX= 0 NMat=1 NMatS=1 NMatT=0.
 ***** Axes restored to original set *****
 -------------------------------------------------------------------
 Center     Atomic                   Forces (Hartrees/Bohr)
 Number     Number              X              Y              Z
 -------------------------------------------------------------------
      1        6           0.000034939   -0.000016132   -0.000014155
      2        6          -0.000011317    0.000021852    0.000004961
      3        6          -0.000027872    0.000000501   -0.000004071
      4        8          -0.000006011   -0.000000343    0.000006413
      5        1           0.000009236   -0.000011990   -0.000004205
      6        1           0.000001851    0.000012797   -0.000000485
      7        1          -0.000010476    0.000000840    0.000009600
      8        1           0.000009651   -0.000007526    0.000001941
 -------------------------------------------------------------------
 Cartesian Forces:  Max     0.000034939 RMS     0.000012834

 GradGradGradGradGradGradGradGradGradGradGradGradGradGradGradGradGradGrad
 Berny optimization.
 FormGI is forming the generalized inverse of G from B-inverse, IUseBI=4.
 Internal  Forces:  Max     0.000033127 RMS     0.000013222
 Search for a local minimum.
 Step number   1 out of a maximum of   34
 All quantities printed in internal units (Hartrees-Bohrs-Radians)
 Mixed Optimization -- En-DIIS/RFO-DIIS
 Second derivative matrix not updated -- first step.
 ITU=  0
     Eigenvalues ---    0.00628   0.00628   0.04820   0.04820   0.07114
     Eigenvalues ---    0.07150   0.16000   0.16000   0.16000   0.16000
     Eigenvalues ---    0.22000   0.31307   0.34666   0.34670   0.34972
     Eigenvalues ---    0.35754   0.64965   1.25519
 RFO step:  Lambda=-2.35027466D-08 EMin= 6.27917990D-03
 Linear search not attempted -- first point.
 Iteration  1 RMS(Cart)=  0.00016404 RMS(Int)=  0.00000003
 Iteration  2 RMS(Cart)=  0.00000003 RMS(Int)=  0.00000002
 Variable       Old X    -DE/DX   Delta X   Delta X   Delta X     New X
                                 (Linear)    (Quad)   (Total)
    R1        2.47215  -0.00002   0.00000  -0.00003  -0.00003   2.47211
    R2        2.19873   0.00001   0.00000   0.00000   0.00000   2.19873
    R3        2.85431  -0.00003   0.00000  -0.00008  -0.00008   2.85423
    R4        2.04469  -0.00001   0.00000  -0.00003  -0.00003   2.04465
    R5        2.05721  -0.00001   0.00000  -0.00004  -0.00004   2.05717
    R6        2.06220  -0.00001   0.00000  -0.00004  -0.00004   2.06216
    R7        2.06214   0.00001   0.00000   0.00002   0.00002   2.06215
    A1        2.16035  -0.00003   0.00000  -0.00015  -0.00015   2.16020
    A2        2.02097   0.00003   0.00000   0.00014   0.00014   2.02111
    A3        2.10186   0.00001   0.00000   0.00001   0.00001   2.10187
    A4        1.94359  -0.00000   0.00000  -0.00003  -0.00003   1.94355
    A5        1.93765  -0.00001   0.00000  -0.00007  -0.00007   1.93758
    A6        1.93742   0.00002   0.00000   0.00013   0.00013   1.93754
    A7        1.88007   0.00000   0.00000  -0.00001  -0.00001   1.88006
    A8        1.88008  -0.00000   0.00000  -0.00002  -0.00002   1.88006
    A9        1.88241  -0.00000   0.00000  -0.00001  -0.00001   1.88240
   A10        3.13913   0.00000   0.00000   0.00007   0.00007   3.13919
   A11        3.14174  -0.00001   0.00000  -0.00024  -0.00024   3.14150
    D1       -0.00039   0.00000   0.00000  -0.00018  -0.00018  -0.00057
    D2        2.09444  -0.00000   0.00000  -0.00026  -0.00026   2.09418
    D3       -2.09508  -0.00000   0.00000  -0.00022  -0.00022  -2.09530
    D4        3.14088   0.00001   0.00000   0.00043   0.00043   3.14131
    D5       -1.04748  -0.00000   0.00000   0.00036   0.00036  -1.04712
    D6        1.04619   0.00000   0.00000   0.00039   0.00039   1.04658
         Item               Value     Threshold  Converged?
 Maximum Force            0.000033     0.000450     YES
 RMS     Force            0.000013     0.000300     YES
 Maximum Displacement     0.000304     0.001800     YES
 RMS     Displacement     0.000164     0.001200     YES
 Predicted change in Energy=-1.175067D-08
 Optimization completed.
    -- Stationary point found.
                           ----------------------------
                           !   Optimized Parameters   !
                           ! (Angstroms and Degrees)  !
 --------------------------                            --------------------------
 ! Name  Definition              Value          Derivative Info.                !
 --------------------------------------------------------------------------------
 ! R1    R(1,2)                  1.3082         -DE/DX =    0.0                 !
 ! R2    R(1,4)                  1.1635         -DE/DX =    0.0                 !
 ! R3    R(2,3)                  1.5104         -DE/DX =    0.0                 !
 ! R4    R(2,5)                  1.082          -DE/DX =    0.0                 !
 ! R5    R(3,6)                  1.0886         -DE/DX =    0.0                 !
 ! R6    R(3,7)                  1.0913         -DE/DX =    0.0                 !
 ! R7    R(3,8)                  1.0912         -DE/DX =    0.0                 !
 ! A1    A(1,2,3)              123.7791         -DE/DX =    0.0                 !
 ! A2    A(1,2,5)              115.7929         -DE/DX =    0.0                 !
 ! A3    A(3,2,5)              120.428          -DE/DX =    0.0                 !
 ! A4    A(2,3,6)              111.3593         -DE/DX =    0.0                 !
 ! A5    A(2,3,7)              111.019          -DE/DX =    0.0                 !
 ! A6    A(2,3,8)              111.0058         -DE/DX =    0.0                 !
 ! A7    A(6,3,7)              107.7199         -DE/DX =    0.0                 !
 ! A8    A(6,3,8)              107.7205         -DE/DX =    0.0                 !
 ! A9    A(7,3,8)              107.8541         -DE/DX =    0.0                 !
 ! A10   L(2,1,4,6,-1)         179.8588         -DE/DX =    0.0                 !
 ! A11   L(2,1,4,6,-2)         180.0084         -DE/DX =    0.0                 !
 ! D1    D(1,2,3,6)             -0.0223         -DE/DX =    0.0                 !
 ! D2    D(1,2,3,7)            120.0025         -DE/DX =    0.0                 !
 ! D3    D(1,2,3,8)           -120.039          -DE/DX =    0.0                 !
 ! D4    D(5,2,3,6)            179.9591         -DE/DX =    0.0                 !
 ! D5    D(5,2,3,7)            -60.0161         -DE/DX =    0.0                 !
 ! D6    D(5,2,3,8)             59.9424         -DE/DX =    0.0                 !
 --------------------------------------------------------------------------------
 GradGradGradGradGradGradGradGradGradGradGradGradGradGradGradGradGradGrad

                          Input orientation:                          
 ---------------------------------------------------------------------
 Center     Atomic      Atomic             Coordinates (Angstroms)
 Number     Number       Type             X           Y           Z
 ---------------------------------------------------------------------
      1          6           0       -0.764753    0.126812    0.000035
      2          6           0        0.466681    0.568364   -0.000070
      3          6           0        1.680937   -0.329965    0.000003
      4          8           0       -1.859020   -0.268603   -0.000010
      5          1           0        0.581034    1.644305    0.000086
      6          1           0        1.396695   -1.380829    0.000547
      7          1           0        2.298511   -0.153388   -0.882204
      8          1           0        2.298732   -0.152533    0.881844
 ---------------------------------------------------------------------
                    Distance matrix (angstroms):
                    1          2          3          4          5
     1  C    0.000000
     2  C    1.308204   0.000000
     3  C    2.487980   1.510435   0.000000
     4  O    1.163518   2.471720   3.540489   0.000000
     5  H    2.028282   1.082001   2.259984   3.100497   0.000000
     6  H    2.635306   2.159694   1.088627   3.440454   3.133168
     7  H    3.200069   2.157472   1.091268   4.251659   2.638155
     8  H    3.200088   2.157284   1.091236   4.251828   2.637539
                    6          7          8
     6  H    0.000000
     7  H    1.760435   0.000000
     8  H    1.760416   1.764048   0.000000
 Stoichiometry    C3H4O
 Framework group  C1[X(C3H4O)]
 Deg. of freedom    18
 Full point group                 C1      NOp   1
 Largest Abelian subgroup         C1      NOp   1
 Largest concise Abelian subgroup C1      NOp   1
                         Standard orientation:                         
 ---------------------------------------------------------------------
 Center     Atomic      Atomic             Coordinates (Angstroms)
 Number     Number       Type             X           Y           Z
 ---------------------------------------------------------------------
      1          6           0        0.764753    0.126812   -0.000035
      2          6           0       -0.466681    0.568364    0.000070
      3          6           0       -1.680937   -0.329965   -0.000003
      4          8           0        1.859020   -0.268603    0.000010
      5          1           0       -0.581034    1.644305   -0.000086
      6          1           0       -1.396695   -1.380829   -0.000547
      7          1           0       -2.298511   -0.153388    0.882204
      8          1           0       -2.298732   -0.152533   -0.881844
 ---------------------------------------------------------------------
 Rotational constants (GHZ):          39.5944511           4.4878392           4.1343708
 1\1\GINC-GAMBA\FOpt\RB3LYP\Gen\C3H4O1\IRIKURA\30-Sep-2023\0\\# b3lyp/g
 en opt freq CPHF(Grid=OneStep)\\methylketene, B3LYP/pcseg-2\\0,1\C,-0.
 764753,0.126812,0.000035\C,0.466681,0.568364,-0.00007\C,1.680937,-0.32
 9965,0.000003\O,-1.85902,-0.268603,-0.00001\H,0.581034,1.644305,0.0000
 86\H,1.396695,-1.380829,0.000547\H,2.298511,-0.153388,-0.882204\H,2.29
 8732,-0.152533,0.881844\\Version=ES64L-G16RevB.01\State=1-A\HF=-191.99
 80053\RMSD=7.043e-09\RMSF=1.283e-05\Dipole=0.7413729,0.1735242,0.00013
 46\Quadrupole=-1.4007242,1.7745432,-0.373819,-0.6962822,0.0000579,0.00
 03034\PG=C01 [X(C3H4O1)]\\@


 TO ERR IS HUMAN - AND TO BLAME IT ON A COMPUTER IS EVEN MORE SO.
 Job cpu time:       0 days  0 hours  1 minutes 29.5 seconds.
 Elapsed time:       0 days  0 hours  0 minutes 24.7 seconds.
 File lengths (MBytes):  RWF=     16 Int=      0 D2E=      0 Chk=      3 Scr=      1
 Normal termination of Gaussian 16 at Sat Sep 30 09:54:04 2023.
 Link1:  Proceeding to internal job step number  2.
 ------------------------------------------------------------------
 #N Geom=AllCheck Guess=TCheck SCRF=Check GenChk RB3LYP/ChkBas Freq
 ------------------------------------------------------------------
 1/10=4,29=7,30=1,38=1,40=1/1,3;
 2/12=2,40=1/2;
 3/5=7,6=2,11=2,14=-4,25=1,30=1,67=1,70=2,71=2,74=-5,82=7,116=1,140=1/1,2,3;
 4/5=101/1;
 5/5=2,38=6,98=1/2;
 8/6=4,10=90,11=11/1;
 11/6=1,8=1,9=11,15=111,16=1/1,2,10;
 10/6=1,60=-420/2;
 6/7=2,8=2,9=2,10=2,28=1/1;
 7/8=1,10=1,25=1/1,2,3,16;
 1/10=4,30=1/3;
 99//99;
 Structure from the checkpoint file:  "ch3chco.chk"
 ---------------------------
 methylketene, B3LYP/pcseg-2
 ---------------------------
 Charge =  0 Multiplicity = 1
 Redundant internal coordinates found in file.  (old form).
 C,0,-0.764753,0.126812,0.000035
 C,0,0.466681,0.568364,-0.00007
 C,0,1.680937,-0.329965,0.000003
 O,0,-1.85902,-0.268603,-0.00001
 H,0,0.581034,1.644305,0.000086
 H,0,1.396695,-1.380829,0.000547
 H,0,2.298511,-0.153388,-0.882204
 H,0,2.298732,-0.152533,0.881844
 Recover connectivity data from disk.

 GradGradGradGradGradGradGradGradGradGradGradGradGradGradGradGradGradGrad
 Berny optimization.
 Initialization pass.
                           ----------------------------
                           !    Initial Parameters    !
                           ! (Angstroms and Degrees)  !
 --------------------------                            --------------------------
 ! Name  Definition              Value          Derivative Info.                !
 --------------------------------------------------------------------------------
 ! R1    R(1,2)                  1.3082         calculate D2E/DX2 analytically  !
 ! R2    R(1,4)                  1.1635         calculate D2E/DX2 analytically  !
 ! R3    R(2,3)                  1.5104         calculate D2E/DX2 analytically  !
 ! R4    R(2,5)                  1.082          calculate D2E/DX2 analytically  !
 ! R5    R(3,6)                  1.0886         calculate D2E/DX2 analytically  !
 ! R6    R(3,7)                  1.0913         calculate D2E/DX2 analytically  !
 ! R7    R(3,8)                  1.0912         calculate D2E/DX2 analytically  !
 ! A1    A(1,2,3)              123.7791         calculate D2E/DX2 analytically  !
 ! A2    A(1,2,5)              115.7929         calculate D2E/DX2 analytically  !
 ! A3    A(3,2,5)              120.428          calculate D2E/DX2 analytically  !
 ! A4    A(2,3,6)              111.3593         calculate D2E/DX2 analytically  !
 ! A5    A(2,3,7)              111.019          calculate D2E/DX2 analytically  !
 ! A6    A(2,3,8)              111.0058         calculate D2E/DX2 analytically  !
 ! A7    A(6,3,7)              107.7199         calculate D2E/DX2 analytically  !
 ! A8    A(6,3,8)              107.7205         calculate D2E/DX2 analytically  !
 ! A9    A(7,3,8)              107.8541         calculate D2E/DX2 analytically  !
 ! A10   L(2,1,4,6,-1)         179.8588         calculate D2E/DX2 analytically  !
 ! A11   L(2,1,4,6,-2)         180.0084         calculate D2E/DX2 analytically  !
 ! D1    D(1,2,3,6)             -0.0223         calculate D2E/DX2 analytically  !
 ! D2    D(1,2,3,7)            120.0025         calculate D2E/DX2 analytically  !
 ! D3    D(1,2,3,8)           -120.039          calculate D2E/DX2 analytically  !
 ! D4    D(5,2,3,6)            179.9591         calculate D2E/DX2 analytically  !
 ! D5    D(5,2,3,7)            -60.0161         calculate D2E/DX2 analytically  !
 ! D6    D(5,2,3,8)             59.9424         calculate D2E/DX2 analytically  !
 --------------------------------------------------------------------------------
 Trust Radius=3.00D-01 FncErr=1.00D-07 GrdErr=1.00D-07 EigMax=2.50D+02 EigMin=1.00D-04
 Number of steps in this run=      2 maximum allowed number of steps=      2.
 GradGradGradGradGradGradGradGradGradGradGradGradGradGradGradGradGradGrad

                          Input orientation:                          
 ---------------------------------------------------------------------
 Center     Atomic      Atomic             Coordinates (Angstroms)
 Number     Number       Type             X           Y           Z
 ---------------------------------------------------------------------
      1          6           0       -0.764753    0.126812    0.000035
      2          6           0        0.466681    0.568364   -0.000070
      3          6           0        1.680937   -0.329965    0.000003
      4          8           0       -1.859020   -0.268603   -0.000010
      5          1           0        0.581034    1.644305    0.000086
      6          1           0        1.396695   -1.380829    0.000547
      7          1           0        2.298511   -0.153388   -0.882204
      8          1           0        2.298732   -0.152533    0.881844
 ---------------------------------------------------------------------
                    Distance matrix (angstroms):
                    1          2          3          4          5
     1  C    0.000000
     2  C    1.308204   0.000000
     3  C    2.487980   1.510435   0.000000
     4  O    1.163518   2.471720   3.540489   0.000000
     5  H    2.028282   1.082001   2.259984   3.100497   0.000000
     6  H    2.635306   2.159694   1.088627   3.440454   3.133168
     7  H    3.200069   2.157472   1.091268   4.251659   2.638155
     8  H    3.200088   2.157284   1.091236   4.251828   2.637539
                    6          7          8
     6  H    0.000000
     7  H    1.760435   0.000000
     8  H    1.760416   1.764048   0.000000
 Stoichiometry    C3H4O
 Framework group  C1[X(C3H4O)]
 Deg. of freedom    18
 Full point group                 C1      NOp   1
 Largest Abelian subgroup         C1      NOp   1
 Largest concise Abelian subgroup C1      NOp   1
                         Standard orientation:                         
 ---------------------------------------------------------------------
 Center     Atomic      Atomic             Coordinates (Angstroms)
 Number     Number       Type             X           Y           Z
 ---------------------------------------------------------------------
      1          6           0        0.764753    0.126812   -0.000035
      2          6           0       -0.466681    0.568364    0.000070
      3          6           0       -1.680937   -0.329965   -0.000003
      4          8           0        1.859020   -0.268603    0.000010
      5          1           0       -0.581034    1.644305   -0.000086
      6          1           0       -1.396695   -1.380829   -0.000547
      7          1           0       -2.298511   -0.153388    0.882204
      8          1           0       -2.298732   -0.152533   -0.881844
 ---------------------------------------------------------------------
 Rotational constants (GHZ):          39.5944511           4.4878392           4.1343708
 Basis read from chk: "ch3chco.chk" (5D, 7F)
 There are   200 symmetry adapted cartesian basis functions of A   symmetry.
 There are   176 symmetry adapted basis functions of A   symmetry.
   176 basis functions,   276 primitive gaussians,   200 cartesian basis functions
    15 alpha electrons       15 beta electrons
       nuclear repulsion energy       102.4150051727 Hartrees.
 NAtoms=    8 NActive=    8 NUniq=    8 SFac= 1.00D+00 NAtFMM=   60 NAOKFM=F Big=F
 Integral buffers will be    131072 words long.
 Raffenetti 2 integral format.
 Two-electron integral symmetry is turned on.
 One-electron integrals computed using PRISM.
 NBasis=   176 RedAO= T EigKep=  2.05D-04  NBF=   176
 NBsUse=   176 1.00D-06 EigRej= -1.00D+00 NBFU=   176
 Initial guess from the checkpoint file:  "ch3chco.chk"
 B after Tr=    -0.000000    0.000000    0.000000
         Rot=    1.000000    0.000000    0.000000    0.000000 Ang=   0.00 deg.
 Keep R1 ints in memory in canonical form, NReq=125435516.
 Requested convergence on RMS density matrix=1.00D-08 within 128 cycles.
 Requested convergence on MAX density matrix=1.00D-06.
 Requested convergence on             energy=1.00D-06.
 No special actions if energy rises.
 SCF Done:  E(RB3LYP) =  -191.998005335     A.U. after    1 cycles
            NFock=  1  Conv=0.22D-08     -V/T= 2.0036
 DoSCS=F DFT=T ScalE2(SS,OS)=  1.000000  1.000000
 Range of M.O.s used for correlation:     1   176
 NBasis=   176 NAE=    15 NBE=    15 NFC=     0 NFV=     0
 NROrb=    176 NOA=    15 NOB=    15 NVA=   161 NVB=   161

 **** Warning!!: The largest alpha MO coefficient is  0.20849664D+02

 Symmetrizing basis deriv contribution to polar:
 IMax=3 JMax=2 DiffMx= 0.00D+00
 G2DrvN: will do     9 centers at a time, making    1 passes.
 Calling FoFCou, ICntrl=  3107 FMM=F I1Cent=   0 AccDes= 0.00D+00.
 End of G2Drv F.D. properties file   721 does not exist.
 End of G2Drv F.D. properties file   722 does not exist.
 End of G2Drv F.D. properties file   788 does not exist.
          IDoAtm=11111111
          Differentiating once with respect to electric field.
                with respect to dipole field.
          Differentiating once with respect to nuclear coordinates.
 Keep R1 ints in memory in canonical form, NReq=125434775.
          There are    27 degrees of freedom in the 1st order CPHF.  IDoFFX=6 NUNeed=     3.
     24 vectors produced by pass  0 Test12= 8.94D-15 3.70D-09 XBig12= 5.74D+01 5.58D+00.
 AX will form    24 AO Fock derivatives at one time.
     24 vectors produced by pass  1 Test12= 8.94D-15 3.70D-09 XBig12= 1.97D+01 1.30D+00.
     24 vectors produced by pass  2 Test12= 8.94D-15 3.70D-09 XBig12= 2.50D-01 8.58D-02.
     24 vectors produced by pass  3 Test12= 8.94D-15 3.70D-09 XBig12= 1.04D-03 8.82D-03.
     24 vectors produced by pass  4 Test12= 8.94D-15 3.70D-09 XBig12= 3.45D-06 7.10D-04.
     16 vectors produced by pass  5 Test12= 8.94D-15 3.70D-09 XBig12= 6.47D-09 1.60D-05.
      5 vectors produced by pass  6 Test12= 8.94D-15 3.70D-09 XBig12= 5.68D-12 3.38D-07.
      1 vectors produced by pass  7 Test12= 8.94D-15 3.70D-09 XBig12= 4.68D-15 9.86D-09.
 InvSVY:  IOpt=1 It=  1 EMax= 7.11D-15
 Solved reduced A of dimension   142 with    27 vectors.
 Isotropic polarizability for W=    0.000000       38.51 Bohr**3.
 End of Minotr F.D. properties file   721 does not exist.
 End of Minotr F.D. properties file   722 does not exist.
 End of Minotr F.D. properties file   788 does not exist.

 **********************************************************************

            Population analysis using the SCF Density.

 **********************************************************************

 Orbital symmetries:
       Occupied  (A) (A) (A) (A) (A) (A) (A) (A) (A) (A) (A) (A)
                 (A) (A) (A)
       Virtual   (A) (A) (A) (A) (A) (A) (A) (A) (A) (A) (A) (A)
                 (A) (A) (A) (A) (A) (A) (A) (A) (A) (A) (A) (A)
                 (A) (A) (A) (A) (A) (A) (A) (A) (A) (A) (A) (A)
                 (A) (A) (A) (A) (A) (A) (A) (A) (A) (A) (A) (A)
                 (A) (A) (A) (A) (A) (A) (A) (A) (A) (A) (A) (A)
                 (A) (A) (A) (A) (A) (A) (A) (A) (A) (A) (A) (A)
                 (A) (A) (A) (A) (A) (A) (A) (A) (A) (A) (A) (A)
                 (A) (A) (A) (A) (A) (A) (A) (A) (A) (A) (A) (A)
                 (A) (A) (A) (A) (A) (A) (A) (A) (A) (A) (A) (A)
                 (A) (A) (A) (A) (A) (A) (A) (A) (A) (A) (A) (A)
                 (A) (A) (A) (A) (A) (A) (A) (A) (A) (A) (A) (A)
                 (A) (A) (A) (A) (A) (A) (A) (A) (A) (A) (A) (A)
                 (A) (A) (A) (A) (A) (A) (A) (A) (A) (A) (A) (A)
                 (A) (A) (A) (A) (A)
 The electronic state is 1-A.
 Alpha  occ. eigenvalues --  -19.18433 -10.28770 -10.18938 -10.18467  -1.11607
 Alpha  occ. eigenvalues --   -0.80748  -0.69268  -0.53570  -0.50189  -0.46312
 Alpha  occ. eigenvalues --   -0.45833  -0.42119  -0.40811  -0.38953  -0.23662
 Alpha virt. eigenvalues --   -0.04327   0.01791   0.04102   0.05683   0.05898
 Alpha virt. eigenvalues --    0.07212   0.10552   0.12636   0.15141   0.16091
 Alpha virt. eigenvalues --    0.19237   0.21304   0.22838   0.23931   0.27160
 Alpha virt. eigenvalues --    0.27240   0.32170   0.33692   0.34464   0.34526
 Alpha virt. eigenvalues --    0.37655   0.40572   0.41719   0.48556   0.48869
 Alpha virt. eigenvalues --    0.52393   0.54295   0.62866   0.74519   0.75739
 Alpha virt. eigenvalues --    0.79552   0.80514   0.88624   0.90461   0.93643
 Alpha virt. eigenvalues --    0.94320   0.97338   0.98616   1.00122   1.05735
 Alpha virt. eigenvalues --    1.06684   1.07854   1.10851   1.16750   1.18567
 Alpha virt. eigenvalues --    1.20263   1.21047   1.23268   1.26864   1.32756
 Alpha virt. eigenvalues --    1.35183   1.37413   1.43236   1.47031   1.49775
 Alpha virt. eigenvalues --    1.55829   1.56186   1.63250   1.68663   1.69787
 Alpha virt. eigenvalues --    1.70783   1.72561   1.76549   1.81804   1.84968
 Alpha virt. eigenvalues --    1.97269   2.06169   2.13067   2.18290   2.26738
 Alpha virt. eigenvalues --    2.28802   2.37323   2.43701   2.50217   2.60228
 Alpha virt. eigenvalues --    2.66994   2.78478   3.00318   3.02448   3.03297
 Alpha virt. eigenvalues --    3.15364   3.15540   3.24828   3.26233   3.27296
 Alpha virt. eigenvalues --    3.28918   3.34825   3.40502   3.41151   3.44298
 Alpha virt. eigenvalues --    3.54895   3.60930   3.62023   3.72842   3.74968
 Alpha virt. eigenvalues --    3.77422   3.79303   3.82096   3.84347   3.84609
 Alpha virt. eigenvalues --    3.90239   3.93257   3.95828   4.01723   4.01791
 Alpha virt. eigenvalues --    4.04618   4.07007   4.09269   4.18780   4.18807
 Alpha virt. eigenvalues --    4.20664   4.26291   4.26899   4.29348   4.34219
 Alpha virt. eigenvalues --    4.35182   4.41426   4.42562   4.46478   4.49866
 Alpha virt. eigenvalues --    4.56095   4.59582   4.62201   4.65237   4.66204
 Alpha virt. eigenvalues --    4.68668   4.71341   4.77937   4.80839   4.85468
 Alpha virt. eigenvalues --    4.91720   4.95061   4.99800   5.03660   5.06829
 Alpha virt. eigenvalues --    5.19535   5.27137   5.28673   5.46117   5.49870
 Alpha virt. eigenvalues --    5.55664   5.71146   5.71587   5.73701   5.77439
 Alpha virt. eigenvalues --    5.78260   5.84822   5.86639   5.89408   5.91512
 Alpha virt. eigenvalues --    6.01304   6.03604   6.04706   6.13946   6.16186
 Alpha virt. eigenvalues --    6.27058   6.55066   6.65026   6.70054   7.08230
 Alpha virt. eigenvalues --    7.93578
          Condensed to atoms (all electrons):
               1          2          3          4          5          6
     1  C    4.563478   0.576916  -0.040342   0.589560  -0.027613   0.002508
     2  C    0.576916   5.115902   0.298287  -0.067504   0.421658  -0.047319
     3  C   -0.040342   0.298287   4.514269   0.001961  -0.019023   0.432326
     4  O    0.589560  -0.067504   0.001961   7.761575   0.000746   0.000709
     5  H   -0.027613   0.421658  -0.019023   0.000746   0.553533   0.004887
     6  H    0.002508  -0.047319   0.432326   0.000709   0.004887   0.623348
     7  H   -0.001286  -0.054168   0.428789   0.000419  -0.003678  -0.022472
     8  H   -0.001277  -0.054184   0.428812   0.000418  -0.003689  -0.022456
               7          8
     1  C   -0.001286  -0.001277
     2  C   -0.054168  -0.054184
     3  C    0.428789   0.428812
     4  O    0.000419   0.000418
     5  H   -0.003678  -0.003689
     6  H   -0.022472  -0.022456
     7  H    0.655998  -0.045036
     8  H   -0.045036   0.656003
 Mulliken charges:
               1
     1  C    0.338056
     2  C   -0.189588
     3  C   -0.045078
     4  O   -0.287883
     5  H    0.073179
     6  H    0.028471
     7  H    0.041434
     8  H    0.041409
 Sum of Mulliken charges =   0.00000
 Mulliken charges with hydrogens summed into heavy atoms:
               1
     1  C    0.338056
     2  C   -0.116409
     3  C    0.066236
     4  O   -0.287883
 APT charges:
               1
     1  C    0.933486
     2  C   -0.447616
     3  C    0.201360
     4  O   -0.724792
     5  H    0.096476
     6  H   -0.003552
     7  H   -0.027690
     8  H   -0.027671
 Sum of APT charges =   0.00000
 APT charges with hydrogens summed into heavy atoms:
               1
     1  C    0.933486
     2  C   -0.351141
     3  C    0.142446
     4  O   -0.724792
 Electronic spatial extent (au):  <R**2>=            311.2804
 Charge=             -0.0000 electrons
 Dipole moment (field-independent basis, Debye):
    X=             -1.8844    Y=              0.4411    Z=             -0.0003  Tot=              1.9353
 Quadrupole moment (field-independent basis, Debye-Ang):
   XX=            -26.5671   YY=            -22.2963   ZZ=            -25.1859
   XY=              0.9365   XZ=              0.0001   YZ=             -0.0004
 Traceless Quadrupole moment (field-independent basis, Debye-Ang):
   XX=             -1.8840   YY=              2.3868   ZZ=             -0.5028
   XY=              0.9365   XZ=              0.0001   YZ=             -0.0004
 Octapole moment (field-independent basis, Debye-Ang**2):
  XXX=             -3.2982  YYY=              0.4706  ZZZ=              0.0002  XYY=              1.9530
  XXY=              1.9998  XXZ=             -0.0001  XZZ=              1.7946  YZZ=             -1.2296
  YYZ=             -0.0012  XYZ=              0.0006
 Hexadecapole moment (field-independent basis, Debye-Ang**3):
 XXXX=           -324.2100 YYYY=            -54.3333 ZZZZ=            -34.7178 XXXY=              0.9062
 XXXZ=              0.0008 YYYX=             -2.7386 YYYZ=              0.0001 ZZZX=             -0.0009
 ZZZY=             -0.0012 XXYY=            -61.6318 XXZZ=            -55.0862 YYZZ=            -17.3286
 XXYZ=             -0.0023 YYXZ=              0.0012 ZZXY=             -0.6501
 N-N= 1.024150051727D+02 E-N=-6.530691009608D+02  KE= 1.913167930647D+02
  Exact polarizability:  55.599  -4.497  31.834  -0.002  -0.000  28.085
 Approx polarizability:  86.500 -14.011  45.623  -0.004   0.000  38.428
 Calling FoFJK, ICntrl=    100127 FMM=F ISym2X=0 I1Cent= 0 IOpClX= 0 NMat=1 NMatS=1 NMatT=0.
 Full mass-weighted force constant matrix:
 Low frequencies ---   -2.5248    0.0009    0.0011    0.0011    2.4066    5.6450
 Low frequencies ---  144.2236  210.8156  514.8103
 Diagonal vibrational polarizability:
        4.8985117       1.4905266       5.9899743
 Harmonic frequencies (cm**-1), IR intensities (KM/Mole), Raman scattering
 activities (A**4/AMU), depolarization ratios for plane and unpolarized
 incident light, reduced masses (AMU), force constants (mDyne/A),
 and normal coordinates:
                      1                      2                      3
                      A                      A                      A
 Frequencies --    144.2219               210.8156               514.8103
 Red. masses --      1.1634                 3.9798                 1.9179
 Frc consts  --      0.0143                 0.1042                 0.2995
 IR Inten    --      0.0270                 2.0866                12.7570
  Atom  AN      X      Y      Z        X      Y      Z        X      Y      Z
     1   6    -0.00   0.00   0.01    -0.05   0.18  -0.00    -0.00  -0.00  -0.25
     2   6    -0.00   0.00   0.09    -0.02   0.25  -0.00     0.00  -0.00  -0.03
     3   6     0.00  -0.00  -0.03     0.24  -0.12   0.00     0.00   0.00   0.01
     4   8    -0.00  -0.00  -0.05    -0.18  -0.20   0.00    -0.00   0.00   0.12
     5   1    -0.00   0.00   0.14    -0.21   0.22  -0.00    -0.00   0.00   0.93
     6   1     0.00  -0.00   0.51     0.60  -0.03  -0.00     0.00  -0.00   0.13
     7   1    -0.33   0.36  -0.34     0.19  -0.34   0.01     0.09   0.11   0.06
     8   1     0.33  -0.36  -0.34     0.19  -0.34  -0.00    -0.09  -0.11   0.06
                      4                      5                      6
                      A                      A                      A
 Frequencies --    557.6238               652.1550               900.7388
 Red. masses --      2.5887                 4.5997                 2.3145
 Frc consts  --      0.4743                 1.1526                 1.1064
 IR Inten    --     52.2062                 5.4600                 3.4128
  Atom  AN      X      Y      Z        X      Y      Z        X      Y      Z
     1   6     0.00   0.00   0.27     0.23   0.42  -0.00    -0.06   0.05   0.00
     2   6    -0.00  -0.00  -0.25     0.00  -0.10   0.00    -0.00  -0.19  -0.00
     3   6    -0.00   0.00  -0.00    -0.19  -0.10  -0.00     0.23   0.06  -0.00
     4   8     0.00  -0.00  -0.09     0.05  -0.17   0.00    -0.12   0.03  -0.00
     5   1    -0.00   0.00   0.86    -0.49  -0.15  -0.00    -0.32  -0.24  -0.00
     6   1    -0.00  -0.00   0.15    -0.54  -0.18   0.00    -0.35  -0.09  -0.00
     7   1     0.14   0.16   0.07    -0.13   0.17  -0.01     0.28   0.47  -0.04
     8   1    -0.14  -0.16   0.07    -0.13   0.17   0.01     0.28   0.47   0.04
                      7                      8                      9
                      A                      A                      A
 Frequencies --   1058.6856              1082.8904              1154.7181
 Red. masses --      1.3124                 1.9145                 1.4958
 Frc consts  --      0.8667                 1.3227                 1.1751
 IR Inten    --      0.4581                 8.7890                 0.6920
  Atom  AN      X      Y      Z        X      Y      Z        X      Y      Z
     1   6     0.00   0.00   0.01    -0.03  -0.11  -0.00    -0.01   0.05   0.00
     2   6    -0.00  -0.00   0.09     0.04   0.21   0.00     0.12  -0.00   0.00
     3   6    -0.00   0.00  -0.14     0.00  -0.15  -0.00    -0.03  -0.10  -0.00
     4   8     0.00  -0.00  -0.01     0.05   0.01   0.00    -0.10   0.03  -0.00
     5   1     0.00  -0.00  -0.14    -0.44   0.14   0.00     0.91   0.10   0.00
     6   1    -0.00  -0.00   0.30    -0.62  -0.32  -0.00    -0.26  -0.17  -0.00
     7   1     0.56   0.28   0.20     0.05   0.32  -0.06     0.01   0.10  -0.02
     8   1    -0.56  -0.28   0.20     0.05   0.32   0.06     0.01   0.09   0.02
                     10                     11                     12
                      A                      A                      A
 Frequencies --   1411.4057              1421.4044              1484.1550
 Red. masses --      2.6352                 1.2349                 1.0426
 Frc consts  --      3.0929                 1.4701                 1.3531
 IR Inten    --      0.9230                14.8276                 6.4370
  Atom  AN      X      Y      Z        X      Y      Z        X      Y      Z
     1   6    -0.00  -0.03   0.00    -0.01   0.01  -0.00     0.00  -0.00  -0.00
     2   6     0.31  -0.02  -0.00    -0.08   0.00  -0.00     0.00   0.00  -0.01
     3   6    -0.16   0.00  -0.00    -0.07  -0.08  -0.00     0.00   0.00  -0.05
     4   8    -0.13   0.05  -0.00     0.04  -0.01   0.00    -0.00   0.00   0.00
     5   1    -0.61  -0.15  -0.00     0.15   0.04   0.00    -0.00  -0.00   0.01
     6   1     0.30   0.12   0.00     0.55   0.11   0.00     0.00  -0.00   0.71
     7   1     0.28  -0.10   0.30     0.31   0.45   0.14    -0.03  -0.49   0.05
     8   1     0.28  -0.10  -0.30     0.31   0.45  -0.14     0.03   0.49   0.05
                     13                     14                     15
                      A                      A                      A
 Frequencies --   1511.6539              2199.6944              3027.7659
 Red. masses --      1.1007                12.2387                 1.0357
 Frc consts  --      1.4819                34.8909                 5.5942
 IR Inten    --      5.4368               719.0588                39.3364
  Atom  AN      X      Y      Z        X      Y      Z        X      Y      Z
     1   6    -0.01   0.01  -0.00     0.79  -0.28   0.00    -0.00   0.00  -0.00
     2   6    -0.07   0.01  -0.00    -0.28   0.08   0.00     0.00  -0.00   0.00
     3   6    -0.01   0.04  -0.00     0.01  -0.00  -0.00     0.05   0.01  -0.00
     4   8     0.03  -0.01   0.00    -0.39   0.14  -0.00     0.00  -0.00  -0.00
     5   1     0.13   0.04   0.00    -0.04   0.13   0.00     0.00   0.00  -0.00
     6   1    -0.41  -0.09   0.00     0.02  -0.01   0.00     0.12  -0.39  -0.00
     7   1     0.45  -0.25   0.36     0.05   0.07   0.05    -0.35   0.11   0.53
     8   1     0.45  -0.25  -0.36     0.05   0.07  -0.05    -0.35   0.11  -0.53
                     16                     17                     18
                      A                      A                      A
 Frequencies --   3074.6499              3111.0915              3179.8939
 Red. masses --      1.1029                 1.0997                 1.0855
 Frc consts  --      6.1429                 6.2714                 6.4669
 IR Inten    --     18.1821                15.7428                 7.0460
  Atom  AN      X      Y      Z        X      Y      Z        X      Y      Z
     1   6     0.00  -0.00  -0.00    -0.00  -0.00   0.00    -0.00  -0.00   0.00
     2   6    -0.00   0.00   0.00    -0.00   0.01  -0.00     0.01  -0.08   0.00
     3   6    -0.00  -0.00  -0.09     0.04  -0.08   0.00     0.00  -0.01   0.00
     4   8    -0.00   0.00  -0.00    -0.00   0.00  -0.00    -0.00   0.00   0.00
     5   1     0.00  -0.00   0.00     0.01  -0.09   0.00    -0.13   0.98  -0.00
     6   1    -0.00   0.00  -0.02    -0.24   0.88   0.00    -0.02   0.08   0.00
     7   1    -0.40   0.13   0.56    -0.15   0.03   0.23    -0.01   0.00   0.02
     8   1     0.40  -0.13   0.57    -0.15   0.03  -0.24    -0.01   0.00  -0.02

 -------------------
 - Thermochemistry -
 -------------------
 Temperature   298.150 Kelvin.  Pressure   1.00000 Atm.
 Atom     1 has atomic number  6 and mass  12.00000
 Atom     2 has atomic number  6 and mass  12.00000
 Atom     3 has atomic number  6 and mass  12.00000
 Atom     4 has atomic number  8 and mass  15.99491
 Atom     5 has atomic number  1 and mass   1.00783
 Atom     6 has atomic number  1 and mass   1.00783
 Atom     7 has atomic number  1 and mass   1.00783
 Atom     8 has atomic number  1 and mass   1.00783
 Molecular mass:    56.02621 amu.
 Principal axes and moments of inertia in atomic units:
                           1         2         3
     Eigenvalues --    45.58066 402.14034 436.52137
           X            0.99986   0.01669   0.00000
           Y           -0.01669   0.99986  -0.00002
           Z           -0.00000   0.00002   1.00000
 This molecule is an asymmetric top.
 Rotational symmetry number  1.
 Rotational temperatures (Kelvin)      1.90023     0.21538     0.19842
 Rotational constants (GHZ):          39.59445     4.48784     4.13437
 Zero-point vibrational energy     159691.7 (Joules/Mol)
                                   38.16724 (Kcal/Mol)
 Warning -- explicit consideration of   4 degrees of freedom as
           vibrations may cause significant error
 Vibrational temperatures:    207.50   303.32   740.70   802.30   938.31
          (Kelvin)           1295.96  1523.21  1558.04  1661.38  2030.70
                             2045.08  2135.37  2174.93  3164.87  4356.28
                             4423.74  4476.17  4575.16
 
 Zero-point correction=                           0.060823 (Hartree/Particle)
 Thermal correction to Energy=                    0.065539
 Thermal correction to Enthalpy=                  0.066483
 Thermal correction to Gibbs Free Energy=         0.034042
 Sum of electronic and zero-point Energies=           -191.937182
 Sum of electronic and thermal Energies=              -191.932466
 Sum of electronic and thermal Enthalpies=            -191.931522
 Sum of electronic and thermal Free Energies=         -191.963963
 
                     E (Thermal)             CV                S
                      KCal/Mol        Cal/Mol-Kelvin    Cal/Mol-Kelvin
 Total                   41.126             14.663             68.278
 Electronic               0.000              0.000              0.000
 Translational            0.889              2.981             37.991
 Rotational               0.889              2.981             23.596
 Vibrational             39.349              8.702              6.690
 Vibration     1          0.616              1.909              2.747
 Vibration     2          0.643              1.824              2.037
 Vibration     3          0.870              1.217              0.622
 Vibration     4          0.913              1.123              0.529
                       Q            Log10(Q)             Ln(Q)
 Total Bot       0.219598D-15        -15.658372        -36.054734
 Total V=0       0.208167D+13         12.318412         28.364191
 Vib (Bot)       0.416063D-27        -27.380840        -63.046715
 Vib (Bot)    1  0.140825D+01          0.148680          0.342349
 Vib (Bot)    2  0.941823D+00         -0.026031         -0.059938
 Vib (Bot)    3  0.315029D+00         -0.501649         -1.155090
 Vib (Bot)    4  0.279367D+00         -0.553825         -1.275229
 Vib (V=0)       0.394406D+01          0.595944          1.372211
 Vib (V=0)    1  0.199438D+01          0.299808          0.690334
 Vib (V=0)    2  0.156632D+01          0.194879          0.448727
 Vib (V=0)    3  0.109097D+01          0.037812          0.087066
 Vib (V=0)    4  0.107275D+01          0.030500          0.070228
 Electronic      0.100000D+01          0.000000          0.000000
 Translational   0.164832D+08          7.217041         16.617851
 Rotational      0.320205D+05          4.505427         10.374130
 ***** Axes restored to original set *****
 -------------------------------------------------------------------
 Center     Atomic                   Forces (Hartrees/Bohr)
 Number     Number              X              Y              Z
 -------------------------------------------------------------------
      1        6           0.000035025   -0.000016096   -0.000014155
      2        6          -0.000011237    0.000021904    0.000004961
      3        6          -0.000027868    0.000000549   -0.000004071
      4        8          -0.000006159   -0.000000390    0.000006413
      5        1           0.000009230   -0.000012038   -0.000004205
      6        1           0.000001841    0.000012746   -0.000000485
      7        1          -0.000010480    0.000000846    0.000009606
      8        1           0.000009647   -0.000007520    0.000001936
 -------------------------------------------------------------------
 Cartesian Forces:  Max     0.000035025 RMS     0.000012845
 FormGI is forming the generalized inverse of G from B-inverse, IUseBI=4.

 GradGradGradGradGradGradGradGradGradGradGradGradGradGradGradGradGradGrad
 Berny optimization.
 Internal  Forces:  Max     0.000033108 RMS     0.000013218
 Search for a local minimum.
 Step number   1 out of a maximum of    2
 All quantities printed in internal units (Hartrees-Bohrs-Radians)
 Second derivative matrix not updated -- analytic derivatives used.
 ITU=  0
     Eigenvalues ---    0.00132   0.01349   0.05788   0.05897   0.07638
     Eigenvalues ---    0.09411   0.10282   0.12050   0.15363   0.15594
     Eigenvalues ---    0.16319   0.30909   0.32794   0.33594   0.34597
     Eigenvalues ---    0.35884   0.61763   1.02141
 Angle between quadratic step and forces=  69.02 degrees.
 Linear search not attempted -- first point.
 Iteration  1 RMS(Cart)=  0.00036323 RMS(Int)=  0.00000006
 Iteration  2 RMS(Cart)=  0.00000007 RMS(Int)=  0.00000001
 Variable       Old X    -DE/DX   Delta X   Delta X   Delta X     New X
                                 (Linear)    (Quad)   (Total)
    R1        2.47215  -0.00002   0.00000  -0.00003  -0.00003   2.47212
    R2        2.19873   0.00001   0.00000   0.00001   0.00001   2.19874
    R3        2.85431  -0.00003   0.00000  -0.00005  -0.00005   2.85426
    R4        2.04469  -0.00001   0.00000  -0.00005  -0.00005   2.04463
    R5        2.05721  -0.00001   0.00000  -0.00003  -0.00003   2.05717
    R6        2.06220  -0.00001   0.00000  -0.00004  -0.00004   2.06216
    R7        2.06214   0.00001   0.00000   0.00002   0.00002   2.06216
    A1        2.16035  -0.00003   0.00000  -0.00034  -0.00034   2.16001
    A2        2.02097   0.00003   0.00000   0.00030   0.00030   2.02127
    A3        2.10186   0.00001   0.00000   0.00005   0.00005   2.10191
    A4        1.94359  -0.00000   0.00000  -0.00002  -0.00002   1.94356
    A5        1.93765  -0.00001   0.00000  -0.00006  -0.00006   1.93758
    A6        1.93742   0.00002   0.00000   0.00017   0.00017   1.93758
    A7        1.88007   0.00000   0.00000  -0.00002  -0.00002   1.88004
    A8        1.88008  -0.00000   0.00000  -0.00003  -0.00003   1.88004
    A9        1.88241  -0.00000   0.00000  -0.00002  -0.00002   1.88239
   A10        3.13913   0.00000   0.00000  -0.00008  -0.00008   3.13905
   A11        3.14174  -0.00001   0.00000  -0.00015  -0.00015   3.14159
    D1       -0.00039   0.00000   0.00000   0.00039   0.00039   0.00000
    D2        2.09444  -0.00000   0.00000   0.00030   0.00030   2.09474
    D3       -2.09508  -0.00000   0.00000   0.00034   0.00034  -2.09474
    D4        3.14088   0.00001   0.00000   0.00071   0.00071  -3.14159
    D5       -1.04748  -0.00000   0.00000   0.00062   0.00062  -1.04685
    D6        1.04619   0.00000   0.00000   0.00066   0.00066   1.04686
         Item               Value     Threshold  Converged?
[...]
      3          6           0        1.680937   -0.329965    0.000003
      4          8           0       -1.859020   -0.268603   -0.000010
      5          1           0        0.581034    1.644305    0.000086
      6          1           0        1.396695   -1.380829    0.000547
      7          1           0        2.298511   -0.153388   -0.882204
      8          1           0        2.298732   -0.152533    0.881844
 ---------------------------------------------------------------------
                    Distance matrix (angstroms):
                    1          2          3          4          5
     1  C    0.000000
     2  C    1.308204   0.000000
     3  C    2.487980   1.510435   0.000000
     4  O    1.163518   2.471720   3.540489   0.000000
     5  H    2.028282   1.082001   2.259984   3.100497   0.000000
     6  H    2.635306   2.159694   1.088627   3.440454   3.133168
     7  H    3.200069   2.157472   1.091268   4.251659   2.638155
     8  H    3.200088   2.157284   1.091236   4.251828   2.637539
                    6          7          8
     6  H    0.000000
     7  H    1.760435   0.000000
     8  H    1.760416   1.764048   0.000000
 Stoichiometry    C3H4O
 Framework group  C1[X(C3H4O)]
 Deg. of freedom    18
 Full point group                 C1      NOp   1
 Largest Abelian subgroup         C1      NOp   1
 Largest concise Abelian subgroup C1      NOp   1
                         Standard orientation:                         
 ---------------------------------------------------------------------
 Center     Atomic      Atomic             Coordinates (Angstroms)
 Number     Number       Type             X           Y           Z
 ---------------------------------------------------------------------
      1          6           0        0.764753    0.126812   -0.000035
      2          6           0       -0.466681    0.568364    0.000070
      3          6           0       -1.680937   -0.329965   -0.000003
      4          8           0        1.859020   -0.268603    0.000010
      5          1           0       -0.581034    1.644305   -0.000086
      6          1           0       -1.396695   -1.380829   -0.000547
      7          1           0       -2.298511   -0.153388    0.882204
      8          1           0       -2.298732   -0.152533   -0.881844
 ---------------------------------------------------------------------
 Rotational constants (GHZ):          39.5944511           4.4878392           4.1343708
 General basis read from cards:  (5D, 7F)
 There are   324 symmetry adapted cartesian basis functions of A   symmetry.
 There are   284 symmetry adapted basis functions of A   symmetry.
   284 basis functions,   396 primitive gaussians,   324 cartesian basis functions
    15 alpha electrons       15 beta electrons
       nuclear repulsion energy       102.4150051727 Hartrees.
 NAtoms=    8 NActive=    8 NUniq=    8 SFac= 1.00D+00 NAtFMM=   60 NAOKFM=F Big=F
 Integral buffers will be    131072 words long.
 Raffenetti 2 integral format.
 Two-electron integral symmetry is turned on.
 One-electron integrals computed using PRISM.
 NBasis=   284 RedAO= T EigKep=  3.43D-05  NBF=   284
 NBsUse=   284 1.00D-06 EigRej= -1.00D+00 NBFU=   284
 Initial guess from the checkpoint file:  "ch3chco.chk"
 B after Tr=     0.000000   -0.000000    0.000000
         Rot=    1.000000    0.000000   -0.000000   -0.000000 Ang=   0.00 deg.
 Requested convergence on RMS density matrix=1.00D-08 within 128 cycles.
 Requested convergence on MAX density matrix=1.00D-06.
 Requested convergence on             energy=1.00D-06.
 No special actions if energy rises.
 SCF Done:  E(ROHF) =  -190.844565012     A.U. after   12 cycles
            NFock= 12  Conv=0.40D-08     -V/T= 2.0011
 <Sx>= 0.0000 <Sy>= 0.0000 <Sz>= 0.0000 <S**2>=-0.0000 S=-0.0000
 <L.S>=  0.00000000000    
 Annihilation of the first spin contaminant:
 S**2 before annihilation    -0.0000,   after    -0.0000

 **********************************************************************

            Population analysis using the SCF Density.

 **********************************************************************

 Orbital symmetries:
       Occupied  (A) (A) (A) (A) (A) (A) (A) (A) (A) (A) (A) (A)
                 (A) (A) (A)
       Virtual   (A) (A) (A) (A) (A) (A) (A) (A) (A) (A) (A) (A)
                 (A) (A) (A) (A) (A) (A) (A) (A) (A) (A) (A) (A)
                 (A) (A) (A) (A) (A) (A) (A) (A) (A) (A) (A) (A)
                 (A) (A) (A) (A) (A) (A) (A) (A) (A) (A) (A) (A)
                 (A) (A) (A) (A) (A) (A) (A) (A) (A) (A) (A) (A)
                 (A) (A) (A) (A) (A) (A) (A) (A) (A) (A) (A) (A)
                 (A) (A) (A) (A) (A) (A) (A) (A) (A) (A) (A) (A)
                 (A) (A) (A) (A) (A) (A) (A) (A) (A) (A) (A) (A)
                 (A) (A) (A) (A) (A) (A) (A) (A) (A) (A) (A) (A)
                 (A) (A) (A) (A) (A) (A) (A) (A) (A) (A) (A) (A)
                 (A) (A) (A) (A) (A) (A) (A) (A) (A) (A) (A) (A)
                 (A) (A) (A) (A) (A) (A) (A) (A) (A) (A) (A) (A)
                 (A) (A) (A) (A) (A) (A) (A) (A) (A) (A) (A) (A)
                 (A) (A) (A) (A) (A) (A) (A) (A) (A) (A) (A) (A)
                 (A) (A) (A) (A) (A) (A) (A) (A) (A) (A) (A) (A)
                 (A) (A) (A) (A) (A) (A) (A) (A) (A) (A) (A) (A)
                 (A) (A) (A) (A) (A) (A) (A) (A) (A) (A) (A) (A)
                 (A) (A) (A) (A) (A) (A) (A) (A) (A) (A) (A) (A)
                 (A) (A) (A) (A) (A) (A) (A) (A) (A) (A) (A) (A)
                 (A) (A) (A) (A) (A) (A) (A) (A) (A) (A) (A) (A)
                 (A) (A) (A) (A) (A) (A) (A) (A) (A) (A) (A) (A)
                 (A) (A) (A) (A) (A) (A) (A) (A) (A) (A) (A) (A)
                 (A) (A) (A) (A) (A)
 The electronic state is 1-A.
 Alpha  occ. eigenvalues --  -20.61632 -11.36821 -11.24402 -11.23953  -1.46268
 Alpha  occ. eigenvalues --   -1.08351  -0.93417  -0.74328  -0.68319  -0.63992
 Alpha  occ. eigenvalues --   -0.61965  -0.57860  -0.55718  -0.53232  -0.34752
 Alpha virt. eigenvalues --    0.04417   0.05086   0.05841   0.07311   0.08741
 Alpha virt. eigenvalues --    0.09178   0.09583   0.10434   0.11171   0.12287
 Alpha virt. eigenvalues --    0.13600   0.17484   0.18541   0.20598   0.21171
 Alpha virt. eigenvalues --    0.22155   0.22850   0.24256   0.25101   0.25257
 Alpha virt. eigenvalues --    0.27358   0.29521   0.32627   0.35162   0.37507
 Alpha virt. eigenvalues --    0.40010   0.42844   0.43383   0.44845   0.45630
 Alpha virt. eigenvalues --    0.49023   0.49052   0.49443   0.52053   0.52871
 Alpha virt. eigenvalues --    0.53621   0.57576   0.57652   0.59654   0.61708
 Alpha virt. eigenvalues --    0.63117   0.64675   0.66247   0.69790   0.70633
 Alpha virt. eigenvalues --    0.71801   0.75567   0.75890   0.78832   0.78844
 Alpha virt. eigenvalues --    0.79678   0.84707   0.86852   0.87050   0.91949
 Alpha virt. eigenvalues --    0.94963   0.97537   0.99132   0.99274   1.01050
 Alpha virt. eigenvalues --    1.05041   1.06093   1.09317   1.12469   1.15123
 Alpha virt. eigenvalues --    1.20448   1.23923   1.25656   1.25779   1.29709
 Alpha virt. eigenvalues --    1.30901   1.34034   1.37618   1.38146   1.39429
 Alpha virt. eigenvalues --    1.44777   1.46186   1.49222   1.49688   1.52072
 Alpha virt. eigenvalues --    1.55592   1.59647   1.60598   1.60774   1.68859
 Alpha virt. eigenvalues --    1.69598   1.74616   1.74762   1.76892   1.78584
 Alpha virt. eigenvalues --    1.79558   1.80181   1.82174   1.85688   1.86297
 Alpha virt. eigenvalues --    1.88043   1.88197   1.90424   1.95310   1.95716
 Alpha virt. eigenvalues --    1.96059   1.99504   2.00361   2.01045   2.02833
 Alpha virt. eigenvalues --    2.04307   2.08114   2.09822   2.10533   2.14619
 Alpha virt. eigenvalues --    2.16328   2.20465   2.21694   2.22965   2.24793
 Alpha virt. eigenvalues --    2.26841   2.27343   2.30878   2.31982   2.36455
 Alpha virt. eigenvalues --    2.39297   2.39638   2.42598   2.46995   2.47425
 Alpha virt. eigenvalues --    2.50615   2.51880   2.54595   2.57520   2.61242
 Alpha virt. eigenvalues --    2.61512   2.65190   2.68250   2.74409   2.74931
 Alpha virt. eigenvalues --    2.76772   2.80254   2.84693   2.92494   2.93166
 Alpha virt. eigenvalues --    2.98241   2.99446   3.02439   3.06854   3.06921
 Alpha virt. eigenvalues --    3.11568   3.12098   3.13848   3.23331   3.24345
 Alpha virt. eigenvalues --    3.29235   3.32615   3.32859   3.39763   3.41988
 Alpha virt. eigenvalues --    3.44369   3.49351   3.51590   3.60221   3.68116
 Alpha virt. eigenvalues --    3.70481   3.79037   3.80665   3.83797   3.89924
 Alpha virt. eigenvalues --    3.90229   3.93615   3.95860   4.06991   4.07645
 Alpha virt. eigenvalues --    4.12921   4.13823   4.16491   4.21779   4.34726
 Alpha virt. eigenvalues --    4.53131   4.56245   4.57862   4.60270   4.73792
 Alpha virt. eigenvalues --    4.75479   4.86127   4.94478   4.96383   4.99078
 Alpha virt. eigenvalues --    5.05285   5.07207   5.10201   5.23512   5.34217
 Alpha virt. eigenvalues --    5.40612   5.40777   5.50910   5.58619   5.65689
 Alpha virt. eigenvalues --    5.81682   5.84755   5.90469   6.00469   6.01314
 Alpha virt. eigenvalues --    6.03470   6.11485   6.12334   6.15965   6.22685
 Alpha virt. eigenvalues --    6.25051   6.31751   6.35721   6.38256   6.44149
 Alpha virt. eigenvalues --    6.49060   6.60352   6.73840   6.86565   6.87024
 Alpha virt. eigenvalues --    6.91979   7.11380   7.16554   7.19019   7.24314
 Alpha virt. eigenvalues --    7.25760   7.28700   7.62286   7.81305   7.83695
 Alpha virt. eigenvalues --    7.88523   7.91356   8.15917   8.40263   8.40916
 Alpha virt. eigenvalues --    8.47693   8.55811   8.67164   8.67429   8.73897
 Alpha virt. eigenvalues --    8.77151   8.93120   9.01318   9.25710   9.37015
 Alpha virt. eigenvalues --    9.56149   9.57417   9.58812   9.79864   9.82761
 Alpha virt. eigenvalues --   10.41212  10.52459  11.19454  11.19730  11.32149
 Alpha virt. eigenvalues --   11.82181  11.87524  12.62847  20.75811  21.18370
 Alpha virt. eigenvalues --   21.22956  21.50148  21.59125  21.62996  21.82528
 Alpha virt. eigenvalues --   22.10603  22.92831  23.14293  24.38994  25.06487
 Alpha virt. eigenvalues --   37.89125  37.99979  38.57929  44.03842
          Condensed to atoms (all electrons):
               1          2          3          4          5          6
     1  C    4.559881   0.522094  -0.073081   0.655054  -0.019406   0.001630
     2  C    0.522094   5.175036   0.294830  -0.123699   0.417164  -0.048485
     3  C   -0.073081   0.294830   4.717768  -0.002001   0.001228   0.433046
     4  O    0.655054  -0.123699  -0.002001   7.933301  -0.001513   0.003047
     5  H   -0.019406   0.417164   0.001228  -0.001513   0.425540   0.002429
     6  H    0.001630  -0.048485   0.433046   0.003047   0.002429   0.590770
     7  H   -0.001438  -0.061517   0.428095   0.000665  -0.005373  -0.035220
     8  H   -0.001416  -0.061607   0.428096   0.000658  -0.005363  -0.035212
               7          8
     1  C   -0.001438  -0.001416
     2  C   -0.061517  -0.061607
     3  C    0.428095   0.428096
     4  O    0.000665   0.000658
     5  H   -0.005373  -0.005363
     6  H   -0.035220  -0.035212
     7  H    0.646367  -0.060241
     8  H   -0.060241   0.646414
          Atomic-Atomic Spin Densities.
               1          2          3          4          5          6
     1  C    0.000000   0.000000   0.000000   0.000000   0.000000   0.000000
     2  C    0.000000   0.000000   0.000000   0.000000   0.000000   0.000000
     3  C    0.000000   0.000000   0.000000   0.000000   0.000000   0.000000
     4  O    0.000000   0.000000   0.000000   0.000000   0.000000   0.000000
     5  H    0.000000   0.000000   0.000000   0.000000   0.000000   0.000000
     6  H    0.000000   0.000000   0.000000   0.000000   0.000000   0.000000
     7  H    0.000000   0.000000   0.000000   0.000000   0.000000   0.000000
     8  H    0.000000   0.000000   0.000000   0.000000   0.000000   0.000000
               7          8
     1  C    0.000000   0.000000
     2  C    0.000000   0.000000
     3  C    0.000000   0.000000
     4  O    0.000000   0.000000
     5  H    0.000000   0.000000
     6  H    0.000000   0.000000
     7  H    0.000000   0.000000
     8  H    0.000000   0.000000
 Mulliken charges and spin densities:
               1          2
     1  C    0.356683   0.000000
     2  C   -0.113816   0.000000
     3  C   -0.227981   0.000000
     4  O   -0.465510   0.000000
     5  H    0.185295   0.000000
     6  H    0.087995   0.000000
     7  H    0.088662   0.000000
     8  H    0.088671   0.000000
 Sum of Mulliken charges =  -0.00000   0.00000
 Mulliken charges and spin densities with hydrogens summed into heavy atoms:
               1          2
     1  C    0.356683   0.000000
     2  C    0.071479   0.000000
     3  C    0.037348   0.000000
     4  O   -0.465510   0.000000
 Electronic spatial extent (au):  <R**2>=            311.6768
 Charge=             -0.0000 electrons
 Dipole moment (field-independent basis, Debye):
    X=             -2.1795    Y=              0.5308    Z=             -0.0004  Tot=              2.2432
 Quadrupole moment (field-independent basis, Debye-Ang):
   XX=            -27.0923   YY=            -22.2789   ZZ=            -25.2112
   XY=              1.0314   XZ=             -0.0000   YZ=             -0.0004
 Traceless Quadrupole moment (field-independent basis, Debye-Ang):
   XX=             -2.2315   YY=              2.5819   ZZ=             -0.3504
   XY=              1.0314   XZ=             -0.0000   YZ=             -0.0004
 Octapole moment (field-independent basis, Debye-Ang**2):
  XXX=             -5.1410  YYY=              0.5218  ZZZ=              0.0002  XYY=              1.6771
  XXY=              2.1333  XXZ=             -0.0001  XZZ=              1.5607  YZZ=             -1.2830
  YYZ=             -0.0012  XYZ=              0.0006
 Hexadecapole moment (field-independent basis, Debye-Ang**3):
 XXXX=           -322.9121 YYYY=            -52.8066 ZZZZ=            -33.6083 XXXY=              1.0008
 XXXZ=              0.0006 YYYX=             -2.6366 YYYZ=              0.0002 ZZZX=             -0.0011
 ZZZY=             -0.0012 XXYY=            -61.0085 XXZZ=            -54.3453 YYZZ=            -16.9862
 XXYZ=             -0.0023 YYXZ=              0.0011 ZZXY=             -0.6090
 N-N= 1.024150051727D+02 E-N=-6.518473062209D+02  KE= 1.906283806994D+02
                          Isotropic Fermi Contact Couplings
        Atom                 a.u.       MegaHertz       Gauss      10(-4) cm-1
     1  C(13)              0.00000       0.00000       0.00000       0.00000
     2  C(13)              0.00000       0.00000       0.00000       0.00000
     3  C(13)              0.00000       0.00000       0.00000       0.00000
     4  O(17)              0.00000      -0.00000      -0.00000      -0.00000
     5  H(1)               0.00000       0.00000       0.00000       0.00000
     6  H(1)               0.00000       0.00000       0.00000       0.00000
     7  H(1)               0.00000       0.00000       0.00000       0.00000
     8  H(1)               0.00000       0.00000       0.00000       0.00000
 --------------------------------------------------------
       Center         ----  Spin Dipole Couplings  ----
                      3XX-RR        3YY-RR        3ZZ-RR
 --------------------------------------------------------
     1   Atom        0.000000      0.000000      0.000000
     2   Atom        0.000000      0.000000      0.000000
     3   Atom        0.000000      0.000000      0.000000
     4   Atom        0.000000      0.000000      0.000000
     5   Atom        0.000000      0.000000      0.000000
     6   Atom        0.000000      0.000000      0.000000
     7   Atom        0.000000      0.000000      0.000000
     8   Atom        0.000000      0.000000      0.000000
 --------------------------------------------------------
                        XY            XZ            YZ
 --------------------------------------------------------
     1   Atom        0.000000      0.000000      0.000000
     2   Atom        0.000000      0.000000      0.000000
     3   Atom        0.000000      0.000000      0.000000
     4   Atom        0.000000      0.000000      0.000000
     5   Atom        0.000000      0.000000      0.000000
     6   Atom        0.000000      0.000000      0.000000
     7   Atom        0.000000      0.000000      0.000000
     8   Atom        0.000000      0.000000      0.000000
 --------------------------------------------------------


 ---------------------------------------------------------------------------------
              Anisotropic Spin Dipole Couplings in Principal Axis System
 ---------------------------------------------------------------------------------

       Atom             a.u.   MegaHertz   Gauss  10(-4) cm-1        Axes

              Baa     0.0000     0.000     0.000     0.000  1.0000  0.0000  0.0000
     1 C(13)  Bbb     0.0000     0.000     0.000     0.000 -0.0000  1.0000  0.0000
              Bcc     0.0000     0.000     0.000     0.000  0.0000  0.0000  1.0000
 
              Baa     0.0000     0.000     0.000     0.000  1.0000  0.0000  0.0000
     2 C(13)  Bbb     0.0000     0.000     0.000     0.000 -0.0000  1.0000  0.0000
              Bcc     0.0000     0.000     0.000     0.000  0.0000  0.0000  1.0000
 
              Baa     0.0000     0.000     0.000     0.000  1.0000  0.0000  0.0000
     3 C(13)  Bbb     0.0000     0.000     0.000     0.000 -0.0000  1.0000  0.0000
              Bcc     0.0000     0.000     0.000     0.000  0.0000  0.0000  1.0000
 
              Baa     0.0000    -0.000    -0.000    -0.000  1.0000  0.0000  0.0000
     4 O(17)  Bbb     0.0000    -0.000    -0.000    -0.000 -0.0000  1.0000  0.0000
              Bcc     0.0000    -0.000    -0.000    -0.000  0.0000  0.0000  1.0000
 
              Baa     0.0000     0.000     0.000     0.000  1.0000  0.0000  0.0000
     5 H(1)   Bbb     0.0000     0.000     0.000     0.000 -0.0000  1.0000  0.0000
              Bcc     0.0000     0.000     0.000     0.000  0.0000  0.0000  1.0000
 
              Baa     0.0000     0.000     0.000     0.000  1.0000  0.0000  0.0000
     6 H(1)   Bbb     0.0000     0.000     0.000     0.000 -0.0000  1.0000  0.0000
              Bcc     0.0000     0.000     0.000     0.000  0.0000  0.0000  1.0000
 
              Baa     0.0000     0.000     0.000     0.000  1.0000  0.0000  0.0000
     7 H(1)   Bbb     0.0000     0.000     0.000     0.000 -0.0000  1.0000  0.0000
              Bcc     0.0000     0.000     0.000     0.000  0.0000  0.0000  1.0000
 
              Baa     0.0000     0.000     0.000     0.000  1.0000  0.0000  0.0000
     8 H(1)   Bbb     0.0000     0.000     0.000     0.000 -0.0000  1.0000  0.0000
              Bcc     0.0000     0.000     0.000     0.000  0.0000  0.0000  1.0000
 

 ---------------------------------------------------------------------------------

 1\1\GINC-GAMBA\SP\ROHF\Gen\C3H4O1\IRIKURA\30-Sep-2023\0\\# rohf/gen ge
 om=check guess=check\\methylketene, ROHF/cc-pVTZ-F12\\0,1\C,0,-0.76475
 3,0.126812,0.000035\C,0,0.466681,0.568364,-0.00007\C,0,1.680937,-0.329
 965,0.000003\O,0,-1.85902,-0.268603,-0.00001\H,0,0.581034,1.644305,0.0
 00086\H,0,1.396695,-1.380829,0.000547\H,0,2.298511,-0.153388,-0.882204
 \H,0,2.298732,-0.152533,0.881844\\Version=ES64L-G16RevB.01\State=1-A\H
 F=-190.844565\RMSD=4.034e-09\Dipole=0.8574831,0.2088429,0.0001378\Quad
 rupole=-1.6590795,1.9196015,-0.260522,-0.7668208,-0.0000051,0.0003011\
 PG=C01 [X(C3H4O1)]\\@


 COLLEGE PROFESSOR: SOMEONE WHO TALKS IN OTHER PEOPLE'S SLEEP.
 Job cpu time:       0 days  0 hours  5 minutes 27.9 seconds.
 Elapsed time:       0 days  0 hours  1 minutes 22.0 seconds.
 File lengths (MBytes):  RWF=     60 Int=      0 D2E=      0 Chk=      8 Scr=      1
 Normal termination of Gaussian 16 at Sat Sep 30 09:58:36 2023.
