 Entering Gaussian System, Link 0=g16
 AtFile(1): pcseg2.gbs
            -H     0
            S   4   1.00
                  0.754732D+02           0.427821D-02
                  0.113575D+02           0.328672D-01
                  0.260081D+01           0.159578D+00
                  0.735503D+00           0.500000D+00
            S   1   1.00
                  0.231761D+00           1.0000000
            S   1   1.00
                  0.741675D-01           1.0000000
            P   1   1.00
                  0.160000D+01           1.0000000
            P   1   1.00
                  0.450000D+00           1.0000000
            D   1   1.00
                  0.125000D+01           1.0000000
            ****
            -C     0
            S   7   1.00
                  0.731999D+04           0.695369D-03
                  0.109818D+04           0.537138D-02
                  0.250014D+03           0.274734D-01
                  0.707586D+02           0.105078D+00
                  0.228595D+02           0.291262D+00
                  0.803936D+01           0.500000D+00
                  0.289309D+01           0.362224D+00
            S   2   1.00
                  0.521640D+01          -0.957844D-01
                  0.556124D+00           0.500000D+00
            S   1   1.00
                  0.228813D+00           1.0000000
            S   1   1.00
                  0.936338D-01           1.0000000
            P   4   1.00
                  0.339855D+02           0.818395D-02
                  0.772957D+01           0.586921D-01
                  0.224954D+01           0.222514D+00
                  0.767681D+00           0.500000D+00
            P   1   1.00
                  0.263283D+00           1.0000000
            P   1   1.00
                  0.848744D-01           1.0000000
            D   1   1.00
                  0.140000D+01           1.0000000
            D   1   1.00
                  0.450000D+00           1.0000000
            F   1   1.00
                  0.950000D+00           1.0000000
            ****
            -O     0
            S   7   1.00
                  0.135887D+05           0.665492D-03
                  0.203847D+04           0.514222D-02
                  0.464041D+03           0.263472D-01
                  0.131339D+03           0.101500D+00
                  0.425340D+02           0.285877D+00
                  0.150429D+02           0.500000D+00
                  0.546616D+01           0.368211D+00
            S   2   1.00
                  0.100915D+02          -0.100084D+00
                  0.110429D+01           0.500000D+00
            S   1   1.00
                  0.448082D+00           1.0000000
            S   1   1.00
                  0.175325D+00           1.0000000
            P   4   1.00
                  0.608220D+02           0.908253D-02
                  0.140332D+02           0.645878D-01
                  0.418244D+01           0.241502D+00
                  0.142490D+01           0.500000D+00
            P   1   1.00
                  0.478741D+00           1.0000000
            P   1   1.00
                  0.146257D+00           1.0000000
            D   1   1.00
                  0.220000D+01           1.0000000
            D   1   1.00
                  0.650000D+00           1.0000000
            F   1   1.00
                  0.110000D+01           1.0000000
            ****
            -N     0
            S   7   1.00
                  0.101643D+05           0.682757D-03
                  0.152481D+04           0.527488D-02
                  0.347119D+03           0.270037D-01
                  0.982389D+02           0.103673D+00
                  0.317799D+02           0.289575D+00
                  0.112240D+02           0.500000D+00
                  0.406611D+01           0.364621D+00
            S   2   1.00
                  0.747898D+01          -0.975681D-01
                  0.805040D+00           0.500000D+00
            S   1   1.00
                  0.324626D+00           1.0000000
            S   1   1.00
                  0.128132D+00           1.0000000
            P   4   1.00
                  0.482704D+02           0.829547D-02
                  0.110815D+02           0.596223D-01
                  0.326643D+01           0.227889D+00
                  0.111680D+01           0.500000D+00
            P   1   1.00
                  0.382049D+00           1.0000000
            P   1   1.00
                  0.121222D+00           1.0000000
            D   1   1.00
                  0.180000D+01           1.0000000
            D   1   1.00
                  0.550000D+00           1.0000000
            F   1   1.00
                  0.102000D+01           1.0000000
            ****
            -F     0
            S   7   1.00
                  0.174507D+05           0.655972D-03
                  0.261768D+04           0.506944D-02
                  0.595857D+03           0.259899D-01
                  0.168651D+03           0.100353D+00
                  0.546654D+02           0.284095D+00
                  0.193717D+02           0.500000D+00
                  0.706202D+01           0.370721D+00
            S   2   1.00
                  0.131197D+02          -0.101997D+00
                  0.145046D+01           0.500000D+00
            S   1   1.00
                  0.588255D+00           1.0000000
            S   1   1.00
                  0.227960D+00           1.0000000
            P   4   1.00
                  0.779407D+02           0.931135D-02
                  0.180425D+02           0.663964D-01
                  0.542342D+01           0.246386D+00
                  0.184876D+01           0.500000D+00
            P   1   1.00
                  0.617455D+00           1.0000000
            P   1   1.00
                  0.185496D+00           1.0000000
            D   1   1.00
                  0.280000D+01           1.0000000
            D   1   1.00
                  0.800000D+00           1.0000000
            F   1   1.00
                  0.120000D+01           1.0000000
            ****
            -Cl     0
            S   8   1.00
                  0.154272D+06           0.222473D-03
                  0.231232D+05           0.172590D-02
                  0.526257D+04           0.899286D-02
                  0.148995D+04           0.367724D-01
                  0.485417D+03           0.121446D+00
                  0.174634D+03           0.304148D+00
                  0.672393D+02           0.500000D+00
                  0.265780D+02           0.360252D+00
            S   3   1.00
                  0.131826D+03          -0.531330D-01
                  0.400703D+02          -0.233346D+00
                  0.789448D+01           0.500000D+00
            S   2   1.00
                  0.427711D+01           0.500000D+00
                  0.196233D+01           0.370517D+00
            S   1   1.00
                  0.520793D+00           1.0000000
            S   1   1.00
                  0.181633D+00           1.0000000
            P   7   1.00
                  0.124440D+04           0.988206D-03
                  0.295109D+03           0.829674D-02
                  0.947224D+02           0.430906D-01
                  0.352588D+02           0.148443D+00
                  0.144211D+02           0.344744D+00
                  0.610371D+01           0.500000D+00
                  0.258886D+01           0.348278D+00
            P   2   1.00
                  0.109447D+02          -0.196768D-01
                  0.104413D+01           0.500000D+00
            P   1   1.00
                  0.376184D+00           1.0000000
            P   1   1.00
                  0.120613D+00           1.0000000
            D   1   1.00
                  0.231000D+01           1.0000000
            D   1   1.00
                  0.520000D+00           1.0000000
            F   1   1.00
                  0.720000D+00           1.0000000
            ****
            -S     0
            S   8   1.00
                  0.134700D+06           0.226231D-03
                  0.201904D+05           0.175488D-02
                  0.459528D+04           0.914190D-02
                  0.130109D+04           0.373551D-01
                  0.423902D+03           0.123121D+00
                  0.152485D+03           0.306801D+00
                  0.586925D+02           0.500000D+00
                  0.231461D+02           0.354358D+00
            S   3   1.00
                  0.116327D+03          -0.491772D-01
                  0.352841D+02          -0.215962D+00
                  0.677831D+01           0.500000D+00
            S   2   1.00
                  0.360404D+01           0.500000D+00
                  0.164871D+01           0.366278D+00
            S   1   1.00
                  0.421821D+00           1.0000000
            S   1   1.00
                  0.147554D+00           1.0000000
            P   7   1.00
                  0.104863D+04           0.105273D-02
                  0.248717D+03           0.879338D-02
                  0.797887D+02           0.453358D-01
                  0.296023D+02           0.154476D+00
                  0.120627D+02           0.352366D+00
                  0.507628D+01           0.500000D+00
                  0.213375D+01           0.346429D+00
            P   2   1.00
                  0.928958D+01          -0.185932D-01
                  0.837819D+00           0.500000D+00
            P   1   1.00
                  0.301495D+00           1.0000000
            P   1   1.00
                  0.974740D-01           1.0000000
            D   1   1.00
                  0.210000D+01           1.0000000
            D   1   1.00
                  0.480000D+00           1.0000000
            F   1   1.00
                  0.660000D+00           1.0000000
            ****
            -Br     0
            S    10   1.00
                  0.233625D+07           0.532336D-04
                  0.349961D+06           0.413715D-03
                  0.796444D+05           0.217123D-02
                  0.225555D+05           0.910109D-02
                  0.735546D+04           0.323789D-01
                  0.265352D+04           0.988755D-01
                  0.103517D+04           0.248138D+00
                  0.422205D+03           0.474328D+00
                  0.180035D+03           0.500000D+00
                  0.793308D+02           0.187769D+00
            S    4   1.00
                  0.620834D+03          -0.226511D-01
                  0.190829D+03          -0.109497D+00
                  0.312505D+02           0.500000D+00
                  0.135270D+02           0.492812D+00
            S    2   1.00
                  0.216097D+02          -0.165418D+00
                  0.372566D+01           0.500000D+00
            S    1   1.00
                  0.169770D+01           1.0000000
            S    1   1.00
                  0.489332D+00           1.0000000
            S    1   1.00
                  0.175712D+00           1.0000000
            P    8   1.00
                  0.960829D+04           0.478974D-03
                  0.227618D+04           0.417853D-02
                  0.736723D+03           0.229315D-01
                  0.281579D+03           0.892653D-01
                  0.118395D+03           0.255288D+00
                  0.527481D+02           0.479074D+00
                  0.245098D+02           0.500000D+00
                  0.112009D+02           0.200944D+00
            P    4   1.00
                  0.587849D+02          -0.189674D-01
                  0.918962D+01           0.264104D+00
                  0.413895D+01           0.500000D+00
                  0.184225D+01           0.319316D+00
            P    1   1.00
                  0.713862D+00           1.0000000
            P    1   1.00
                  0.274232D+00           1.0000000
            P    1   1.00
                  0.944411D-01           1.0000000
            D    7   1.00
                  0.398470D+03           0.204066D-02
                  0.118967D+03           0.175171D-01
                  0.450197D+02           0.829708D-01
                  0.190320D+02           0.236284D+00
                  0.855686D+01           0.428468D+00
                  0.382950D+01           0.500000D+00
                  0.166291D+01           0.349360D+00
            D    1   1.00
                  0.672953D+00           1.0000000
            D    1   1.00
                  0.252000D+00           1.0000000
            F    1   1.00
                  0.530000D+00           1.0000000
            ****
            -Si     0
            S    8   1.00
                  0.996133D+05           0.235546D-03
                  0.149311D+05           0.182707D-02
                  0.339820D+04           0.951425D-02
                  0.962140D+03           0.388172D-01
                  0.313430D+03           0.127328D+00
                  0.112683D+03           0.313522D+00
                  0.433372D+02           0.500000D+00
                  0.170029D+02           0.340347D+00
            S    3   1.00
                  0.884208D+02          -0.404451D-01
                  0.266756D+02          -0.178059D+00
                  0.479640D+01           0.500000D+00
            S    2   1.00
                  0.239385D+01           0.500000D+00
                  0.108333D+01           0.338016D+00
            S    1   1.00
                  0.252420D+00           1.0000000
            S    1   1.00
                  0.891210D-01           1.0000000
            P    7   1.00
                  0.709901D+03           0.123028D-02
                  0.168426D+03           0.101366D-01
                  0.539946D+02           0.511840D-01
                  0.198646D+02           0.169967D+00
                  0.801369D+01           0.370717D+00
                  0.331870D+01           0.500000D+00
                  0.136112D+01           0.344128D+00
            P    2   1.00
                  0.622158D+01          -0.166609D-01
                  0.503049D+00           0.500000D+00
            P    1   1.00
                  0.179848D+00           1.0000000
            P    1   1.00
                  0.591912D-01           1.0000000
            D    1   1.00
                  0.168000D+01           1.0000000
            D    1   1.00
                  0.380000D+00           1.0000000
            F    1   1.00
                  0.540000D+00           1.0000000
            ****
            -P     0
            S    8   1.00
                  0.116416D+06           0.230715D-03
                  0.174500D+05           0.178960D-02
                  0.397149D+04           0.932116D-02
                  0.112447D+04           0.380591D-01
                  0.366347D+03           0.125148D+00
                  0.131757D+03           0.310022D+00
                  0.506988D+02           0.500000D+00
                  0.199436D+02           0.347528D+00
            S    3   1.00
                  0.101878D+03          -0.446755D-01
                  0.308249D+02          -0.196376D+00
                  0.573688D+01           0.500000D+00
            S    2   1.00
                  0.296868D+01           0.500000D+00
                  0.135315D+01           0.355098D+00
            S    1   1.00
                  0.332196D+00           1.0000000
            S    1   1.00
                  0.116229D+00           1.0000000
            P    7   1.00
                  0.873928D+03           0.112375D-02
                  0.207298D+03           0.933330D-02
                  0.664628D+02           0.477213D-01
                  0.245665D+02           0.160733D+00
                  0.996820D+01           0.359760D+00
                  0.416536D+01           0.500000D+00
                  0.173022D+01           0.346593D+00
            P    2   1.00
                  0.772530D+01          -0.175718D-01
                  0.657252D+00           0.500000D+00
            P    1   1.00
                  0.239903D+00           1.0000000
            P    1   1.00
                  0.800988D-01           1.0000000
            D    1   1.00
                  0.189000D+01           1.0000000
            D    1   1.00
                  0.430000D+00           1.0000000
            F    1   1.00
                  0.600000D+00           1.0000000
            ****
            
 Initial command:
 /usr/local/apps/g16_b01_avx/g16/l1.exe "/wrk/irikura/Gau-7436.inp" -scrdir="/wrk/irikura/"
 Entering Link 1 = /usr/local/apps/g16_b01_avx/g16/l1.exe PID=      7441.
  
 Copyright (c) 1988-2017, Gaussian, Inc.  All Rights Reserved.
  
 This is part of the Gaussian(R) 16 program.  It is based on
 the Gaussian(R) 09 system (copyright 2009, Gaussian, Inc.),
 the Gaussian(R) 03 system (copyright 2003, Gaussian, Inc.),
 the Gaussian(R) 98 system (copyright 1998, Gaussian, Inc.),
 the Gaussian(R) 94 system (copyright 1995, Gaussian, Inc.),
 the Gaussian 92(TM) system (copyright 1992, Gaussian, Inc.),
 the Gaussian 90(TM) system (copyright 1990, Gaussian, Inc.),
 the Gaussian 88(TM) system (copyright 1988, Gaussian, Inc.),
 the Gaussian 86(TM) system (copyright 1986, Carnegie Mellon
 University), and the Gaussian 82(TM) system (copyright 1983,
 Carnegie Mellon University). Gaussian is a federally registered
 trademark of Gaussian, Inc.
  
 This software contains proprietary and confidential information,
 including trade secrets, belonging to Gaussian, Inc.
  
 This software is provided under written license and may be
 used, copied, transmitted, or stored only in accord with that
 written license.
  
 The following legend is applicable only to US Government
 contracts under FAR:
  
                    RESTRICTED RIGHTS LEGEND
  
 Use, reproduction and disclosure by the US Government is
 subject to restrictions as set forth in subparagraphs (a)
 and (c) of the Commercial Computer Software - Restricted
 Rights clause in FAR 52.227-19.
  
 Gaussian, Inc.
 340 Quinnipiac St., Bldg. 40, Wallingford CT 06492
  
  
 ---------------------------------------------------------------
 Warning -- This program may not be used in any manner that
 competes with the business of Gaussian, Inc. or will provide
 assistance to any competitor of Gaussian, Inc.  The licensee
 of this program is prohibited from giving any competitor of
 Gaussian, Inc. access to this program.  By using this program,
 the user acknowledges that Gaussian, Inc. is engaged in the
 business of creating and licensing software in the field of
 computational chemistry and represents and warrants to the
 licensee that it is not a competitor of Gaussian, Inc. and that
 it will not use this program in any manner prohibited above.
 ---------------------------------------------------------------
  

 Cite this work as:
 Gaussian 16, Revision B.01,
 M. J. Frisch, G. W. Trucks, H. B. Schlegel, G. E. Scuseria, 
 M. A. Robb, J. R. Cheeseman, G. Scalmani, V. Barone, 
 G. A. Petersson, H. Nakatsuji, X. Li, M. Caricato, A. V. Marenich, 
 J. Bloino, B. G. Janesko, R. Gomperts, B. Mennucci, H. P. Hratchian, 
 J. V. Ortiz, A. F. Izmaylov, J. L. Sonnenberg, D. Williams-Young, 
 F. Ding, F. Lipparini, F. Egidi, J. Goings, B. Peng, A. Petrone, 
 T. Henderson, D. Ranasinghe, V. G. Zakrzewski, J. Gao, N. Rega, 
 G. Zheng, W. Liang, M. Hada, M. Ehara, K. Toyota, R. Fukuda, 
 J. Hasegawa, M. Ishida, T. Nakajima, Y. Honda, O. Kitao, H. Nakai, 
 T. Vreven, K. Throssell, J. A. Montgomery, Jr., J. E. Peralta, 
 F. Ogliaro, M. J. Bearpark, J. J. Heyd, E. N. Brothers, K. N. Kudin, 
 V. N. Staroverov, T. A. Keith, R. Kobayashi, J. Normand, 
 K. Raghavachari, A. P. Rendell, J. C. Burant, S. S. Iyengar, 
 J. Tomasi, M. Cossi, J. M. Millam, M. Klene, C. Adamo, R. Cammi, 
 J. W. Ochterski, R. L. Martin, K. Morokuma, O. Farkas, 
 J. B. Foresman, and D. J. Fox, Gaussian, Inc., Wallingford CT, 2016.
 
 ******************************************
 Gaussian 16:  ES64L-G16RevB.01 20-Dec-2017
                29-Jun-2022 
 ******************************************
 %mem=1000mw
 %nprocs=12
 Will use up to   12 processors via shared memory.
 ---------------------------------
 # b3lyp/gen opt(cart,calcfc) freq
 ---------------------------------
 1/10=4,18=10,26=3,38=1/1,3;
 2/12=2,17=6,18=5,29=2,40=1/2;
 3/5=7,11=2,25=1,30=1,71=2,74=-5,140=1/1,2,3;
 4//1;
 5/5=2,38=5/2;
 8/6=4,10=90,11=11/1;
 11/6=1,8=1,9=11,15=111,16=1/1,2,10;
 10/6=1,13=1/2;
 6/7=2,8=2,9=2,10=2,28=1/1;
 7/7=1,10=1,18=20,25=1/1,2,3,16;
 1/10=4,18=10,26=3/3(2);
 2/29=1/2;
 99/12=1/99;
 2/29=1/2;
 3/5=7,6=1,11=2,25=1,30=1,71=1,74=-5,82=7/1,2,3;
 4/5=5,16=3,69=1/1;
 5/5=2,38=5/2;
 7/7=1/1,2,3,16;
 1/18=10,26=3/3(-5);
 2/29=1/2;
 6/7=2,8=2,9=2,10=2,19=2,28=1/1;
 99/9=1,12=1/99;
 -----------------------
 2-butyne, B3LYP/pcseg-2
 -----------------------
 Symbolic Z-matrix:
 Charge =  0 Multiplicity = 1
 C                     0.        0.        0.60182 
 C                     0.        0.       -0.60182 
 C                     0.        0.        2.05802 
 C                     0.        0.       -2.05802 
 H                     0.        1.02032   2.45787 
 H                    -0.88362  -0.51016   2.45787 
 H                     0.88362  -0.51016   2.45787 
 H                     0.        1.02032  -2.45787 
 H                     0.88362  -0.51016  -2.45787 
 H                    -0.88362  -0.51016  -2.45787 
 

 GradGradGradGradGradGradGradGradGradGradGradGradGradGradGradGradGradGrad
 Berny optimization.
 Initialization pass.
 No Z-matrix variables, so optimization will use Cartesian coordinates.
 Trust Radius=3.00D-01 FncErr=1.00D-07 GrdErr=1.00D-06 EigMax=2.50D+02 EigMin=1.00D-04
 Number of steps in this run=     40 maximum allowed number of steps=    100.
 GradGradGradGradGradGradGradGradGradGradGradGradGradGradGradGradGradGrad

 ---------------------------------------------------------------------------------------------------
                            Z-MATRIX (ANGSTROMS AND DEGREES)
   CD    Cent   Atom    N1       Length/X        N2       Alpha/Y        N3        Beta/Z          J
 ---------------------------------------------------------------------------------------------------
      1      1  C        0   0.000000          0.000000          0.601816
      2      2  C        0   0.000000          0.000000         -0.601816
      3      3  C        0   0.000000          0.000000          2.058023
      4      4  C        0   0.000000          0.000000         -2.058023
      5      5  H        0   0.000000          1.020318          2.457866
      6      6  H        0  -0.883621         -0.510159          2.457866
      7      7  H        0   0.883621         -0.510159          2.457866
      8      8  H        0   0.000000          1.020318         -2.457866
      9      9  H        0   0.883621         -0.510159         -2.457866
     10     10  H        0  -0.883621         -0.510159         -2.457866
 ---------------------------------------------------------------------------------------------------
                         Z-Matrix orientation:                         
 ---------------------------------------------------------------------
 Center     Atomic      Atomic             Coordinates (Angstroms)
 Number     Number       Type             X           Y           Z
 ---------------------------------------------------------------------
      1          6           0        0.000000    0.000000    0.601816
      2          6           0        0.000000    0.000000   -0.601816
      3          6           0        0.000000    0.000000    2.058023
      4          6           0        0.000000    0.000000   -2.058023
      5          1           0        0.000000    1.020318    2.457866
      6          1           0       -0.883621   -0.510159    2.457866
      7          1           0        0.883621   -0.510159    2.457866
      8          1           0        0.000000    1.020318   -2.457866
      9          1           0        0.883621   -0.510159   -2.457866
     10          1           0       -0.883621   -0.510159   -2.457866
 ---------------------------------------------------------------------
                    Distance matrix (angstroms):
                    1          2          3          4          5
     1  C    0.000000
     2  C    1.203632   0.000000
     3  C    1.456207   2.659839   0.000000
     4  C    2.659839   1.456207   4.116046   0.000000
     5  H    2.118011   3.225322   1.095866   4.629719   0.000000
     6  H    2.118011   3.225322   1.095866   4.629719   1.767242
     7  H    2.118011   3.225322   1.095866   4.629719   1.767242
     8  H    3.225322   2.118011   4.629719   1.095866   4.915732
     9  H    3.225322   2.118011   4.629719   1.095866   5.223750
    10  H    3.225322   2.118011   4.629719   1.095866   5.223750
                    6          7          8          9         10
     6  H    0.000000
     7  H    1.767242   0.000000
     8  H    5.223750   5.223750   0.000000
     9  H    5.223750   4.915732   1.767242   0.000000
    10  H    4.915732   5.223750   1.767242   1.767242   0.000000
 Stoichiometry    C4H6
 Framework group  D3H[C3(CC.CC),3SGV(H2)]
 Deg. of freedom     4
 Full point group                 D3H     NOp  12
 Largest Abelian subgroup         C2V     NOp   4
 Largest concise Abelian subgroup C2V     NOp   4
                         Standard orientation:                         
 ---------------------------------------------------------------------
 Center     Atomic      Atomic             Coordinates (Angstroms)
 Number     Number       Type             X           Y           Z
 ---------------------------------------------------------------------
      1          6           0        0.000000    0.000000    0.601816
      2          6           0        0.000000    0.000000   -0.601816
      3          6           0        0.000000    0.000000    2.058023
      4          6           0        0.000000    0.000000   -2.058023
      5          1           0        0.000000    1.020318    2.457866
      6          1           0       -0.883621   -0.510159    2.457866
      7          1           0        0.883621   -0.510159    2.457866
      8          1           0        0.000000    1.020318   -2.457866
      9          1           0        0.883621   -0.510159   -2.457866
     10          1           0       -0.883621   -0.510159   -2.457866
 ---------------------------------------------------------------------
 Rotational constants (GHZ):          80.2804336           3.3687165           3.3687165
 General basis read from cards:  (5D, 7F)
 There are    74 symmetry adapted cartesian basis functions of A1  symmetry.
 There are    41 symmetry adapted cartesian basis functions of A2  symmetry.
 There are    41 symmetry adapted cartesian basis functions of B1  symmetry.
 There are    74 symmetry adapted cartesian basis functions of B2  symmetry.
 There are    64 symmetry adapted basis functions of A1  symmetry.
 There are    38 symmetry adapted basis functions of A2  symmetry.
 There are    38 symmetry adapted basis functions of B1  symmetry.
 There are    64 symmetry adapted basis functions of B2  symmetry.
   204 basis functions,   312 primitive gaussians,   230 cartesian basis functions
    15 alpha electrons       15 beta electrons
       nuclear repulsion energy       100.0715844983 Hartrees.
 NAtoms=   10 NActive=   10 NUniq=    3 SFac= 4.00D+00 NAtFMM=   60 NAOKFM=F Big=F
 Integral buffers will be    131072 words long.
 Raffenetti 2 integral format.
 Two-electron integral symmetry is turned on.
 One-electron integrals computed using PRISM.
 NBasis=   204 RedAO= T EigKep=  2.63D-05  NBF=    64    38    38    64
 NBsUse=   204 1.00D-06 EigRej= -1.00D+00 NBFU=    64    38    38    64
 ExpMin= 7.42D-02 ExpMax= 7.32D+03 ExpMxC= 2.50D+02 IAcc=3 IRadAn=         5 AccDes= 0.00D+00
 Harris functional with IExCor=  402 and IRadAn=       5 diagonalized for initial guess.
 HarFok:  IExCor=  402 AccDes= 0.00D+00 IRadAn=         5 IDoV= 1 UseB2=F ITyADJ=14
 ICtDFT=  3500011 ScaDFX=  1.000000  1.000000  1.000000  1.000000
 FoFCou: FMM=F IPFlag=           0 FMFlag=      100000 FMFlg1=           0
         NFxFlg=           0 DoJE=T BraDBF=F KetDBF=T FulRan=T
         wScrn=  0.000000 ICntrl=       500 IOpCl=  0 I1Cent=   200000004 NGrid=           0
         NMat0=    1 NMatS0=      1 NMatT0=    0 NMatD0=    1 NMtDS0=    0 NMtDT0=    0
 Petite list used in FoFCou.
 Initial guess orbital symmetries:
       Occupied  (A2") (A1') (A1') (A2") (A1') (A2") (A1') (A2")
                 (A1') (E') (E') (E") (E") (E') (E')
       Virtual   (E") (E") (A1') (A2") (E') (E') (A2") (E") (E")
                 (A1') (A1') (E') (E') (A2") (E") (E") (E') (E')
                 (E') (E') (A2") (A1') (E") (E") (E") (E") (A2")
                 (A1') (A1') (A2") (A1') (E') (E') (A2") (E') (E')
                 (E") (E") (A2") (E') (E') (E") (E") (A2') (A1")
                 (E') (E') (A2") (E") (E") (E") (E") (E') (E')
                 (A1') (A1') (E') (E') (A2") (E") (E") (A1') (A2")
                 (E') (E') (A1') (E") (E") (E') (E') (E") (E")
                 (A1') (E") (E") (A2") (A2") (A1') (E') (E') (A2")
                 (A1') (E") (E") (E') (E') (A2") (E") (E") (A1')
                 (E') (E') (A2") (A2') (A1') (A1') (E') (E') (A1")
                 (A2') (E") (E") (E') (E') (A2") (A1") (A1') (A2")
                 (E") (E") (E") (E") (A2") (E') (E') (E') (E')
                 (A2') (A1") (E') (E') (E") (E") (E') (E') (E")
                 (E") (E") (E") (A1') (E') (E') (A2") (E") (E")
                 (E') (E') (A1') (E") (E") (E') (E') (A2") (A2')
                 (A1") (A1') (E") (E") (A2") (E') (E') (E") (E")
                 (A1') (E") (E") (A2") (E') (E') (A1') (A2") (E")
                 (E") (E') (E') (A1') (A2") (A2') (A1") (A1') (E')
                 (E') (E") (E") (A2") (E') (E') (E") (E") (A1')
                 (E") (E") (A2") (E') (E') (E") (E") (A2") (A1')
 The electronic state of the initial guess is 1-A1'.
 Keep R1 ints in memory in symmetry-blocked form, NReq=273604057.
 Requested convergence on RMS density matrix=1.00D-08 within 128 cycles.
 Requested convergence on MAX density matrix=1.00D-06.
 Requested convergence on             energy=1.00D-06.
 No special actions if energy rises.
 Integral accuracy reduced to 1.0D-05 until final iterations.
 Initial convergence to 1.0D-05 achieved.  Increase integral accuracy.
 SCF Done:  E(RB3LYP) =  -156.046278529     A.U. after   10 cycles
            NFock= 10  Conv=0.52D-08     -V/T= 2.0047
 DoSCS=F DFT=T ScalE2(SS,OS)=  1.000000  1.000000
 Range of M.O.s used for correlation:     1   204
 NBasis=   204 NAE=    15 NBE=    15 NFC=     0 NFV=     0
 NROrb=    204 NOA=    15 NOB=    15 NVA=   189 NVB=   189

 **** Warning!!: The largest alpha MO coefficient is  0.50500435D+02

 Symmetrizing basis deriv contribution to polar:
 IMax=3 JMax=2 DiffMx= 0.00D+00
 G2DrvN: will do    11 centers at a time, making    1 passes.
 Calling FoFCou, ICntrl=  3107 FMM=F I1Cent=   0 AccDes= 0.00D+00.
 End of G2Drv F.D. properties file   721 does not exist.
 End of G2Drv F.D. properties file   722 does not exist.
 End of G2Drv F.D. properties file   788 does not exist.
          IDoAtm=1111111111
          Differentiating once with respect to nuclear coordinates.
 Keep R1 ints in memory in symmetry-blocked form, NReq=273608846.
          There are    12 degrees of freedom in the 1st order CPHF.  IDoFFX=4 NUNeed=    12.
      9 vectors produced by pass  0 Test12= 2.36D-14 8.33D-09 XBig12= 1.59D-01 1.17D-01.
 AX will form     9 AO Fock derivatives at one time.
      9 vectors produced by pass  1 Test12= 2.36D-14 8.33D-09 XBig12= 6.32D-02 9.07D-02.
      9 vectors produced by pass  2 Test12= 2.36D-14 8.33D-09 XBig12= 8.29D-03 2.22D-02.
      9 vectors produced by pass  3 Test12= 2.36D-14 8.33D-09 XBig12= 1.33D-04 2.77D-03.
      9 vectors produced by pass  4 Test12= 2.36D-14 8.33D-09 XBig12= 1.23D-06 2.27D-04.
      9 vectors produced by pass  5 Test12= 2.36D-14 8.33D-09 XBig12= 9.59D-09 1.79D-05.
      8 vectors produced by pass  6 Test12= 2.36D-14 8.33D-09 XBig12= 4.57D-11 1.10D-06.
      6 vectors produced by pass  7 Test12= 2.36D-14 8.33D-09 XBig12= 1.46D-13 5.50D-08.
 InvSVY:  IOpt=1 It=  1 EMax= 8.88D-16
 Solved reduced A of dimension    68 with     9 vectors.
 End of Minotr F.D. properties file   721 does not exist.
 End of Minotr F.D. properties file   722 does not exist.
 End of Minotr F.D. properties file   788 does not exist.

 **********************************************************************

            Population analysis using the SCF Density.

 **********************************************************************

 Orbital symmetries:
       Occupied  (A2") (A1') (A1') (A2") (A1') (A2") (A1') (A2")
                 (A1') (E') (E') (E") (E") (E') (E')
       Virtual   (A1') (A2") (E") (E") (E') (E') (A1') (E") (E")
                 (A2") (E') (E') (E") (E") (A1') (A2") (E') (E')
                 (A2") (A1') (E') (E') (E") (E") (A2") (E") (E")
                 (A1') (A1') (A2") (A1') (A2") (E') (E') (E") (E")
                 (E') (E') (E') (E') (A2") (E") (E") (A2') (A1")
                 (E') (E') (E") (E") (E") (E") (A2") (E') (E')
                 (A1') (A1') (A2") (E') (E') (A1') (E") (E") (A2")
                 (E') (E') (E") (E") (A1') (E') (E') (E") (E")
                 (A1') (E") (E") (A2") (A2") (A1') (E') (E') (A2")
                 (A1') (E") (E") (E') (E') (A2") (E") (E") (A1')
                 (E') (E') (A2") (A2') (A1') (A1') (E') (E') (A1")
                 (A2') (E") (E") (A2") (E') (E') (A1") (A2") (E")
                 (E") (A1') (E") (E") (A2") (E') (E') (A2') (A1")
                 (E') (E') (E') (E') (E") (E") (E') (E') (E") (E")
                 (E") (E") (E') (E') (A2") (A1') (E") (E") (E')
                 (E') (A1') (E") (E") (A2") (E') (E') (A2') (A1")
                 (A1') (E') (E') (A2") (E") (E") (E") (E") (E")
                 (E") (A1') (A2") (E') (E') (A1') (A2") (E") (E")
                 (E') (E') (A1') (A2") (A2') (A1") (A1') (E') (E')
                 (E") (E") (A2") (E') (E') (E") (E") (A1') (E")
                 (E") (A2") (E') (E') (E") (E") (A2") (A1')
 The electronic state is 1-A1'.
 Alpha  occ. eigenvalues --  -10.18798 -10.18798 -10.15914 -10.15663  -0.78426
 Alpha  occ. eigenvalues --   -0.74558  -0.67032  -0.48322  -0.43959  -0.43306
 Alpha  occ. eigenvalues --   -0.43306  -0.42009  -0.42009  -0.25450  -0.25450
 Alpha virt. eigenvalues --    0.01448   0.02749   0.04562   0.04562   0.07307
 Alpha virt. eigenvalues --    0.07307   0.09496   0.10907   0.10907   0.13173
 Alpha virt. eigenvalues --    0.18100   0.18100   0.19012   0.19012   0.21652
 Alpha virt. eigenvalues --    0.22918   0.25139   0.25139   0.31380   0.32769
 Alpha virt. eigenvalues --    0.33468   0.33468   0.34576   0.34576   0.37571
 Alpha virt. eigenvalues --    0.37946   0.37946   0.43826   0.48686   0.51818
 Alpha virt. eigenvalues --    0.54466   0.62769   0.66153   0.66153   0.81546
 Alpha virt. eigenvalues --    0.81546   0.84039   0.84039   0.93320   0.93320
 Alpha virt. eigenvalues --    0.93819   0.94219   0.94219   0.97238   0.97239
 Alpha virt. eigenvalues --    1.05912   1.05912   1.07187   1.07187   1.10126
 Alpha virt. eigenvalues --    1.10126   1.11834   1.14175   1.14175   1.16871
 Alpha virt. eigenvalues --    1.20333   1.24910   1.30588   1.30588   1.30821
 Alpha virt. eigenvalues --    1.33532   1.33532   1.44461   1.46318   1.46318
 Alpha virt. eigenvalues --    1.53982   1.53982   1.54614   1.66379   1.66379
 Alpha virt. eigenvalues --    1.66780   1.66780   1.70097   1.73119   1.73119
 Alpha virt. eigenvalues --    1.74431   1.82712   1.84353   1.87214   1.87214
 Alpha virt. eigenvalues --    2.26608   2.29617   2.30480   2.30480   2.47947
 Alpha virt. eigenvalues --    2.47947   2.55755   2.56417   2.56417   2.70623
 Alpha virt. eigenvalues --    3.12910   3.12910   3.16195   3.17938   3.18742
 Alpha virt. eigenvalues --    3.22232   3.26295   3.26295   3.26415   3.29102
 Alpha virt. eigenvalues --    3.34357   3.34357   3.43809   3.43848   3.43848
 Alpha virt. eigenvalues --    3.58550   3.60552   3.61259   3.61259   3.63084
 Alpha virt. eigenvalues --    3.74390   3.74390   3.76578   3.76580   3.76580
 Alpha virt. eigenvalues --    3.84293   3.84423   3.88776   3.88776   3.97107
 Alpha virt. eigenvalues --    3.97107   3.99003   3.99003   4.04610   4.04610
 Alpha virt. eigenvalues --    4.10819   4.10819   4.19856   4.19856   4.22017
 Alpha virt. eigenvalues --    4.22017   4.26100   4.26531   4.28253   4.28253
 Alpha virt. eigenvalues --    4.39362   4.39362   4.47530   4.47889   4.47889
 Alpha virt. eigenvalues --    4.57020   4.58639   4.58639   4.61646   4.61715
 Alpha virt. eigenvalues --    4.65926   4.69678   4.69678   4.70313   4.71689
 Alpha virt. eigenvalues --    4.71689   4.73181   4.73181   4.82865   4.82865
 Alpha virt. eigenvalues --    4.85385   4.87022   4.98740   4.98740   4.99280
 Alpha virt. eigenvalues --    5.09134   5.17737   5.17737   5.38621   5.38621
 Alpha virt. eigenvalues --    5.44962   5.48116   5.73661   5.74012   5.75315
 Alpha virt. eigenvalues --    5.80213   5.80213   5.81463   5.81463   5.81969
 Alpha virt. eigenvalues --    5.82785   5.82785   5.89297   5.89297   5.93902
 Alpha virt. eigenvalues --    5.99084   5.99084   6.02199   6.10683   6.10683
 Alpha virt. eigenvalues --    6.15262   6.15262   6.89532   8.01799
          Condensed to atoms (all electrons):
               1          2          3          4          5          6
     1  C    5.037111   0.924644   0.316874  -0.059125  -0.051792  -0.051792
     2  C    0.924644   5.037111  -0.059125   0.316874  -0.001767  -0.001767
     3  C    0.316874  -0.059125   4.544019   0.005282   0.426495   0.426495
     4  C   -0.059125   0.316874   0.005282   4.544019   0.000205   0.000205
     5  H   -0.051792  -0.001767   0.426495   0.000205   0.640107  -0.031049
     6  H   -0.051792  -0.001767   0.426495   0.000205  -0.031049   0.640107
     7  H   -0.051792  -0.001767   0.426495   0.000205  -0.031049  -0.031049
     8  H   -0.001767  -0.051792   0.000205   0.426495   0.000454  -0.000131
     9  H   -0.001767  -0.051792   0.000205   0.426495  -0.000131  -0.000131
    10  H   -0.001767  -0.051792   0.000205   0.426495  -0.000131   0.000454
               7          8          9         10
     1  C   -0.051792  -0.001767  -0.001767  -0.001767
     2  C   -0.001767  -0.051792  -0.051792  -0.051792
     3  C    0.426495   0.000205   0.000205   0.000205
     4  C    0.000205   0.426495   0.426495   0.426495
     5  H   -0.031049   0.000454  -0.000131  -0.000131
     6  H   -0.031049  -0.000131  -0.000131   0.000454
     7  H    0.640107  -0.000131   0.000454  -0.000131
     8  H   -0.000131   0.640107  -0.031049  -0.031049
     9  H    0.000454  -0.031049   0.640107  -0.031049
    10  H   -0.000131  -0.031049  -0.031049   0.640107
 Mulliken charges:
               1
     1  C   -0.058827
     2  C   -0.058827
     3  C   -0.087147
     4  C   -0.087147
     5  H    0.048658
     6  H    0.048658
     7  H    0.048658
     8  H    0.048658
     9  H    0.048658
    10  H    0.048658
 Sum of Mulliken charges =  -0.00000
 Mulliken charges with hydrogens summed into heavy atoms:
               1
     1  C   -0.058827
     2  C   -0.058827
     3  C    0.058827
     4  C    0.058827
 APT charges:
               1
     1  C   -0.087717
     2  C   -0.087717
     3  C   -0.891221
     4  C   -0.891221
     5  H    0.326313
     6  H    0.326313
     7  H    0.326313
     8  H    0.326313
     9  H    0.326313
    10  H    0.326313
 Sum of APT charges =  -0.00000
 APT charges with hydrogens summed into heavy atoms:
               1
     1  C   -0.087717
     2  C   -0.087717
     3  C    0.087717
     4  C    0.087717
 Electronic spatial extent (au):  <R**2>=            401.8292
 Charge=             -0.0000 electrons
 Dipole moment (field-independent basis, Debye):
    X=             -0.0000    Y=             -0.0000    Z=             -0.0000  Tot=              0.0000
 Quadrupole moment (field-independent basis, Debye-Ang):
   XX=            -25.9827   YY=            -25.9827   ZZ=            -19.4054
   XY=              0.0000   XZ=              0.0000   YZ=             -0.0000
 Traceless Quadrupole moment (field-independent basis, Debye-Ang):
   XX=             -2.1924   YY=             -2.1924   ZZ=              4.3849
   XY=              0.0000   XZ=              0.0000   YZ=             -0.0000
 Octapole moment (field-independent basis, Debye-Ang**2):
  XXX=             -0.0000  YYY=              1.3464  ZZZ=              0.0000  XYY=             -0.0000
  XXY=             -1.3464  XXZ=             -0.0000  XZZ=              0.0000  YZZ=             -0.0000
  YYZ=             -0.0000  XYZ=             -0.0000
 Hexadecapole moment (field-independent basis, Debye-Ang**3):
 XXXX=            -43.6805 YYYY=            -43.6805 ZZZZ=           -460.9352 XXXY=              0.0000
 XXXZ=              0.0000 YYYX=              0.0000 YYYZ=              0.0000 ZZZX=              0.0000
 ZZZY=              0.0000 XXYY=            -14.5602 XXZZ=            -81.9776 YYZZ=            -81.9776
 XXYZ=              0.0000 YYXZ=              0.0000 ZZXY=             -0.0000
 N-N= 1.000715844983D+02 E-N=-5.615673707346D+02  KE= 1.553171446304D+02
 Symmetry A1   KE= 7.755838130479D+01
 Symmetry A2   KE= 1.976597573027D+00
 Symmetry B1   KE= 4.316706007504D+00
 Symmetry B2   KE= 7.146545974506D+01
  Exact polarizability:   0.000   0.000   0.000   0.000   0.000   0.000
 Approx polarizability:  48.298  -0.000  48.298   0.000   0.000 103.912
 Calling FoFJK, ICntrl=    100147 FMM=F ISym2X=1 I1Cent= 0 IOpClX= 0 NMat=1 NMatS=1 NMatT=0.
 ***** Axes restored to original set *****
 -------------------------------------------------------------------
 Center     Atomic                   Forces (Hartrees/Bohr)
 Number     Number              X              Y              Z
 -------------------------------------------------------------------
      1        6           0.000000000   -0.000000000   -0.005022598
      2        6           0.000000000   -0.000000000    0.005022598
      3        6          -0.000000000    0.000000000    0.003575789
      4        6          -0.000000000    0.000000000   -0.003575789
      5        1           0.000000000   -0.002390713   -0.001375139
      6        1           0.002070419    0.001195357   -0.001375139
      7        1          -0.002070419    0.001195357   -0.001375139
      8        1          -0.000000000   -0.002390713    0.001375139
      9        1          -0.002070419    0.001195357    0.001375139
     10        1           0.002070419    0.001195357    0.001375139
 -------------------------------------------------------------------
 Cartesian Forces:  Max     0.005022598 RMS     0.002013824

 GradGradGradGradGradGradGradGradGradGradGradGradGradGradGradGradGradGrad
 Berny optimization.
 Search for a local minimum.
 Step number   1 out of a maximum of   40
 All quantities printed in internal units (Hartrees-Bohrs-Radians)
 Second derivative matrix not updated -- analytic derivatives used.
 ITU=  0
     Eigenvalues ---    0.00126   0.00601   0.00601   0.02821   0.02821
     Eigenvalues ---    0.04708   0.09174   0.09174   0.10063   0.10063
     Eigenvalues ---    0.11845   0.12769   0.12769   0.16493   0.16493
     Eigenvalues ---    0.22464   0.33463   0.59710   0.68955   0.68956
     Eigenvalues ---    0.72346   0.72346   0.76346   2.48633
 RFO step:  Lambda=-1.85203315D-04 EMin= 1.26194669D-03
 ClnCor:  largest displacement from symmetrization is 9.12D-08 for atom    10.
 Linear search not attempted -- first point.
 ClnCor:  largest displacement from symmetrization is 2.22D-16 for atom     1.
 B after Tr=     0.000000    0.000000   -0.000000
         Rot=    1.000000   -0.000000    0.000000    0.000000 Ang=   0.00 deg.
 Variable       Old X    -DE/DX   Delta X   Delta X   Delta X     New X
                                 (Linear)    (Quad)   (Total)
    X1        0.00000   0.00000   0.00000  -0.00000  -0.00000  -0.00000
    Y1       -0.00000  -0.00000   0.00000   0.00000  -0.00000  -0.00000
    Z1        1.13727  -0.00502   0.00000  -0.00263  -0.00263   1.13464
    X2        0.00000   0.00000   0.00000  -0.00000   0.00000   0.00000
    Y2       -0.00000  -0.00000   0.00000   0.00000   0.00000   0.00000
    Z2       -1.13727   0.00502   0.00000   0.00263   0.00263  -1.13464
    X3        0.00000  -0.00000   0.00000   0.00000  -0.00000  -0.00000
    Y3       -0.00000   0.00000   0.00000  -0.00000  -0.00000  -0.00000
    Z3        3.88910   0.00358   0.00000  -0.00211  -0.00211   3.88699
    X4        0.00000  -0.00000   0.00000  -0.00000   0.00000   0.00000
    Y4       -0.00000   0.00000   0.00000  -0.00000   0.00000   0.00000
    Z4       -3.88910  -0.00358   0.00000   0.00211   0.00211  -3.88699
    X5        0.00000   0.00000   0.00000   0.00000  -0.00000  -0.00000
    Y5        1.92812  -0.00239   0.00000  -0.00524  -0.00524   1.92288
    Z5        4.64469  -0.00138   0.00000  -0.01197  -0.01197   4.63272
    X6       -1.66980   0.00207   0.00000   0.00454   0.00454  -1.66527
    Y6       -0.96406   0.00120   0.00000   0.00262   0.00262  -0.96144
    Z6        4.64469  -0.00138   0.00000  -0.01197  -0.01197   4.63272
    X7        1.66980  -0.00207   0.00000  -0.00454  -0.00454   1.66527
    Y7       -0.96406   0.00120   0.00000   0.00262   0.00262  -0.96144
    Z7        4.64469  -0.00138   0.00000  -0.01197  -0.01197   4.63272
    X8        0.00000  -0.00000   0.00000  -0.00000   0.00000   0.00000
    Y8        1.92812  -0.00239   0.00000  -0.00524  -0.00524   1.92288
    Z8       -4.64469   0.00138   0.00000   0.01197   0.01197  -4.63272
    X9        1.66980  -0.00207   0.00000  -0.00454  -0.00454   1.66527
    Y9       -0.96406   0.00120   0.00000   0.00262   0.00262  -0.96144
    Z9       -4.64469   0.00138   0.00000   0.01197   0.01197  -4.63272
   X10       -1.66980   0.00207   0.00000   0.00454   0.00454  -1.66527
   Y10       -0.96406   0.00120   0.00000   0.00262   0.00262  -0.96144
   Z10       -4.64469   0.00138   0.00000   0.01197   0.01197  -4.63272
         Item               Value     Threshold  Converged?
 Maximum Force            0.005023     0.000450     NO 
 RMS     Force            0.002014     0.000300     NO 
 Maximum Displacement     0.011970     0.001800     NO 
 RMS     Displacement     0.005907     0.001200     NO 
 Predicted change in Energy=-9.269871D-05
 GradGradGradGradGradGradGradGradGradGradGradGradGradGradGradGradGradGrad

                          Input orientation:                          
 ---------------------------------------------------------------------
 Center     Atomic      Atomic             Coordinates (Angstroms)
 Number     Number       Type             X           Y           Z
 ---------------------------------------------------------------------
      1          6           0       -0.000000   -0.000000    0.600425
      2          6           0        0.000000    0.000000   -0.600425
      3          6           0       -0.000000   -0.000000    2.056907
      4          6           0        0.000000    0.000000   -2.056907
      5          1           0       -0.000000    1.017547    2.451532
      6          1           0       -0.881221   -0.508773    2.451532
      7          1           0        0.881221   -0.508773    2.451532
      8          1           0        0.000000    1.017547   -2.451532
      9          1           0        0.881221   -0.508773   -2.451532
     10          1           0       -0.881221   -0.508773   -2.451532
 ---------------------------------------------------------------------
                    Distance matrix (angstroms):
                    1          2          3          4          5
     1  C    0.000000
     2  C    1.200850   0.000000
     3  C    1.456482   2.657332   0.000000
     4  C    2.657332   1.456482   4.113813   0.000000
     5  H    2.112344   3.217117   1.091389   4.621842   0.000000
     6  H    2.112344   3.217117   1.091389   4.621842   1.762443
     7  H    2.112344   3.217117   1.091389   4.621842   1.762443
     8  H    3.217117   2.112344   4.621842   1.091389   4.903064
     9  H    3.217117   2.112344   4.621842   1.091389   5.210205
    10  H    3.217117   2.112344   4.621842   1.091389   5.210205
                    6          7          8          9         10
     6  H    0.000000
     7  H    1.762443   0.000000
     8  H    5.210205   5.210205   0.000000
     9  H    5.210205   4.903064   1.762443   0.000000
    10  H    4.903064   5.210205   1.762443   1.762443   0.000000
 Stoichiometry    C4H6
 Framework group  D3H[C3(CC.CC),3SGV(H2)]
 Deg. of freedom     4
 Full point group                 D3H     NOp  12
 Largest Abelian subgroup         C2V     NOp   4
 Largest concise Abelian subgroup C2V     NOp   4
                         Standard orientation:                         
 ---------------------------------------------------------------------
 Center     Atomic      Atomic             Coordinates (Angstroms)
 Number     Number       Type             X           Y           Z
 ---------------------------------------------------------------------
      1          6           0        0.000000    0.000000    0.600425
      2          6           0        0.000000    0.000000   -0.600425
      3          6           0        0.000000    0.000000    2.056907
      4          6           0        0.000000    0.000000   -2.056907
      5          1           0        0.000000    1.017547    2.451532
      6          1           0       -0.881221   -0.508773    2.451532
      7          1           0        0.881221   -0.508773    2.451532
      8          1           0        0.000000    1.017547   -2.451532
      9          1           0        0.881221   -0.508773   -2.451532
     10          1           0       -0.881221   -0.508773   -2.451532
 ---------------------------------------------------------------------
 Rotational constants (GHZ):          80.7183144           3.3767181           3.3767181
 Basis read from rwf:  (5D, 7F)
 There are    74 symmetry adapted cartesian basis functions of A1  symmetry.
 There are    41 symmetry adapted cartesian basis functions of A2  symmetry.
 There are    41 symmetry adapted cartesian basis functions of B1  symmetry.
 There are    74 symmetry adapted cartesian basis functions of B2  symmetry.
 There are    64 symmetry adapted basis functions of A1  symmetry.
 There are    38 symmetry adapted basis functions of A2  symmetry.
 There are    38 symmetry adapted basis functions of B1  symmetry.
 There are    64 symmetry adapted basis functions of B2  symmetry.
   204 basis functions,   312 primitive gaussians,   230 cartesian basis functions
    15 alpha electrons       15 beta electrons
       nuclear repulsion energy       100.2441758240 Hartrees.
 NAtoms=   10 NActive=   10 NUniq=    3 SFac= 4.00D+00 NAtFMM=   60 NAOKFM=F Big=F
 Integral buffers will be    131072 words long.
 Raffenetti 2 integral format.
 Two-electron integral symmetry is turned on.
 One-electron integrals computed using PRISM.
 NBasis=   204 RedAO= T EigKep=  2.60D-05  NBF=    64    38    38    64
 NBsUse=   204 1.00D-06 EigRej= -1.00D+00 NBFU=    64    38    38    64
 Initial guess from the checkpoint file:  "/wrk/irikura/Gau-7441.chk"
 B after Tr=    -0.000000    0.000000   -0.000000
         Rot=    1.000000   -0.000000    0.000000   -0.000000 Ang=   0.00 deg.
 Initial guess orbital symmetries:
       Occupied  (A2") (A1') (A1') (A2") (A1') (A2") (A1') (A2")
                 (A1') (E') (E') (E") (E") (E') (E')
       Virtual   (A1') (A2") (E") (E") (E') (E') (A1') (E") (E")
                 (A2") (E') (E') (E") (E") (A1') (A2") (E') (E')
                 (A2") (A1') (E') (E') (E") (E") (A2") (E") (E")
                 (A1') (A1') (A2") (A1') (A2") (E') (E') (E") (E")
                 (E') (E') (E') (E') (A2") (E") (E") (A2') (A1")
                 (E') (E') (E") (E") (E") (E") (A2") (E') (E')
                 (A1') (A1') (A2") (E') (E') (A1') (E") (E") (A2")
                 (E') (E') (E") (E") (A1') (E') (E') (E") (E")
                 (A1') (E") (E") (A2") (A2") (A1') (E') (E') (A2")
                 (A1') (E") (E") (E') (E') (A2") (E") (E") (A1')
                 (E') (E') (A2") (A2') (A1') (A1') (E') (E') (A1")
                 (A2') (E") (E") (A2") (E') (E') (A1") (A2") (E")
                 (E") (A1') (E") (E") (A2") (E') (E') (A2') (A1")
                 (E') (E') (E') (E') (E") (E") (E') (E') (E") (E")
                 (E") (E") (E') (E') (A2") (A1') (E") (E") (E')
                 (E') (A1') (E") (E") (A2") (E') (E') (A2') (A1")
                 (A1') (E') (E') (A2") (E") (E") (E") (E") (E")
                 (E") (A1') (A2") (E') (E') (A1') (A2") (E") (E")
                 (E') (E') (A1') (A2") (A2') (A1") (A1') (E') (E')
                 (E") (E") (A2") (E') (E') (E") (E") (A1') (E")
                 (E") (A2") (E') (E') (E") (E") (A2") (A1')
 Keep R1 ints in memory in symmetry-blocked form, NReq=273604057.
 Requested convergence on RMS density matrix=1.00D-08 within 128 cycles.
 Requested convergence on MAX density matrix=1.00D-06.
 Requested convergence on             energy=1.00D-06.
 No special actions if energy rises.
 SCF Done:  E(RB3LYP) =  -156.046370676     A.U. after    7 cycles
            NFock=  7  Conv=0.44D-08     -V/T= 2.0044
 Calling FoFJK, ICntrl=      2127 FMM=F ISym2X=1 I1Cent= 0 IOpClX= 0 NMat=1 NMatS=1 NMatT=0.
 ***** Axes restored to original set *****
 -------------------------------------------------------------------
 Center     Atomic                   Forces (Hartrees/Bohr)
 Number     Number              X              Y              Z
 -------------------------------------------------------------------
      1        6           0.000000000    0.000000000    0.000045308
      2        6           0.000000000    0.000000000   -0.000045308
      3        6          -0.000000000   -0.000000000   -0.000019009
      4        6          -0.000000000    0.000000000    0.000019009
      5        1           0.000000000    0.000031722    0.000004305
      6        1          -0.000027472   -0.000015861    0.000004305
      7        1           0.000027472   -0.000015861    0.000004305
      8        1           0.000000000    0.000031722   -0.000004305
      9        1           0.000027472   -0.000015861   -0.000004305
     10        1          -0.000027472   -0.000015861   -0.000004305
 -------------------------------------------------------------------
 Cartesian Forces:  Max     0.000045308 RMS     0.000019129

 GradGradGradGradGradGradGradGradGradGradGradGradGradGradGradGradGradGrad
 Berny optimization.
 Search for a local minimum.
 Step number   2 out of a maximum of   40
 All quantities printed in internal units (Hartrees-Bohrs-Radians)
 Update second derivatives using D2CorN and points    1    2
 DE= -9.21D-05 DEPred=-9.27D-05 R= 9.94D-01
 TightC=F SS=  1.41D+00  RLast= 3.24D-02 DXNew= 5.0454D-01 9.7070D-02
 Trust test= 9.94D-01 RLast= 3.24D-02 DXMaxT set to 3.00D-01
 ITU=  1  0
     Eigenvalues ---    0.00126   0.00601   0.00601   0.02820   0.02820
     Eigenvalues ---    0.04701   0.09174   0.09174   0.10062   0.10062
     Eigenvalues ---    0.11845   0.12769   0.12769   0.16493   0.16493
     Eigenvalues ---    0.22544   0.33463   0.59775   0.68913   0.68913
     Eigenvalues ---    0.72346   0.72346   0.76346   2.48653
 RFO step:  Lambda=-1.16234931D-08 EMin= 1.26194669D-03
 ClnCor:  largest displacement from symmetrization is 1.08D-09 for atom    10.
 Quartic linear search produced a step of -0.00777.
 ClnCor:  largest displacement from symmetrization is 2.38D-18 for atom     5.
 B after Tr=     0.000000    0.000000   -0.000000
         Rot=    1.000000    0.000000   -0.000000    0.000000 Ang=   0.00 deg.
 Variable       Old X    -DE/DX   Delta X   Delta X   Delta X     New X
                                 (Linear)    (Quad)   (Total)
    X1        0.00000   0.00000  -0.00000   0.00000   0.00000   0.00000
    Y1       -0.00000   0.00000  -0.00000  -0.00000   0.00000   0.00000
    Z1        1.13464   0.00005   0.00002  -0.00000   0.00002   1.13466
    X2        0.00000   0.00000  -0.00000  -0.00000  -0.00000   0.00000
    Y2       -0.00000   0.00000  -0.00000  -0.00000  -0.00000  -0.00000
    Z2       -1.13464  -0.00005  -0.00002   0.00000  -0.00002  -1.13466
    X3        0.00000  -0.00000  -0.00000  -0.00000   0.00000   0.00000
    Y3       -0.00000  -0.00000  -0.00000   0.00000   0.00000   0.00000
    Z3        3.88699  -0.00002   0.00002  -0.00001   0.00001   3.88700
    X4        0.00000  -0.00000  -0.00000  -0.00000  -0.00000   0.00000
    Y4       -0.00000   0.00000  -0.00000   0.00000  -0.00000  -0.00000
    Z4       -3.88699   0.00002  -0.00002   0.00001  -0.00001  -3.88700
    X5        0.00000   0.00000  -0.00000   0.00000   0.00000   0.00000
    Y5        1.92288   0.00003   0.00004   0.00008   0.00012   1.92300
    Z5        4.63272   0.00000   0.00009  -0.00014  -0.00005   4.63267
    X6       -1.66527  -0.00003  -0.00004  -0.00007  -0.00010  -1.66537
    Y6       -0.96144  -0.00002  -0.00002  -0.00004  -0.00006  -0.96150
    Z6        4.63272   0.00000   0.00009  -0.00014  -0.00005   4.63267
    X7        1.66527   0.00003   0.00004   0.00007   0.00010   1.66537
    Y7       -0.96144  -0.00002  -0.00002  -0.00004  -0.00006  -0.96150
    Z7        4.63272   0.00000   0.00009  -0.00014  -0.00005   4.63267
    X8        0.00000   0.00000  -0.00000  -0.00000  -0.00000   0.00000
    Y8        1.92288   0.00003   0.00004   0.00008   0.00012   1.92300
    Z8       -4.63272  -0.00000  -0.00009   0.00014   0.00005  -4.63267
    X9        1.66527   0.00003   0.00004   0.00007   0.00010   1.66537
    Y9       -0.96144  -0.00002  -0.00002  -0.00004  -0.00006  -0.96150
    Z9       -4.63272  -0.00000  -0.00009   0.00014   0.00005  -4.63267
   X10       -1.66527  -0.00003  -0.00004  -0.00007  -0.00010  -1.66537
   Y10       -0.96144  -0.00002  -0.00002  -0.00004  -0.00006  -0.96150
   Z10       -4.63272  -0.00000  -0.00009   0.00014   0.00005  -4.63267
         Item               Value     Threshold  Converged?
 Maximum Force            0.000045     0.000450     YES
 RMS     Force            0.000019     0.000300     YES
 Maximum Displacement     0.000120     0.001800     YES
 RMS     Displacement     0.000059     0.001200     YES
 Predicted change in Energy=-1.154323D-08
 Optimization completed.
    -- Stationary point found.
 GradGradGradGradGradGradGradGradGradGradGradGradGradGradGradGradGradGrad

                          Input orientation:                          
 ---------------------------------------------------------------------
 Center     Atomic      Atomic             Coordinates (Angstroms)
 Number     Number       Type             X           Y           Z
 ---------------------------------------------------------------------
      1          6           0        0.000000   -0.000000    0.600425
      2          6           0        0.000000   -0.000000   -0.600425
      3          6           0        0.000000   -0.000000    2.056907
      4          6           0        0.000000   -0.000000   -2.056907
      5          1           0        0.000000    1.017547    2.451532
      6          1           0       -0.881221   -0.508773    2.451532
      7          1           0        0.881221   -0.508773    2.451532
      8          1           0        0.000000    1.017547   -2.451532
      9          1           0        0.881221   -0.508773   -2.451532
     10          1           0       -0.881221   -0.508773   -2.451532
 ---------------------------------------------------------------------
                    Distance matrix (angstroms):
                    1          2          3          4          5
     1  C    0.000000
     2  C    1.200850   0.000000
     3  C    1.456482   2.657332   0.000000
     4  C    2.657332   1.456482   4.113813   0.000000
     5  H    2.112344   3.217117   1.091389   4.621842   0.000000
     6  H    2.112344   3.217117   1.091389   4.621842   1.762443
     7  H    2.112344   3.217117   1.091389   4.621842   1.762443
     8  H    3.217117   2.112344   4.621842   1.091389   4.903064
     9  H    3.217117   2.112344   4.621842   1.091389   5.210205
    10  H    3.217117   2.112344   4.621842   1.091389   5.210205
                    6          7          8          9         10
     6  H    0.000000
     7  H    1.762443   0.000000
     8  H    5.210205   5.210205   0.000000
     9  H    5.210205   4.903064   1.762443   0.000000
    10  H    4.903064   5.210205   1.762443   1.762443   0.000000
 Stoichiometry    C4H6
 Framework group  D3H[C3(CC.CC),3SGV(H2)]
 Deg. of freedom     4
 Full point group                 D3H     NOp  12
 Largest Abelian subgroup         C2V     NOp   4
 Largest concise Abelian subgroup C2V     NOp   4
                         Standard orientation:                         
 ---------------------------------------------------------------------
 Center     Atomic      Atomic             Coordinates (Angstroms)
 Number     Number       Type             X           Y           Z
 ---------------------------------------------------------------------
      1          6           0        0.000000    0.000000    0.600425
      2          6           0        0.000000    0.000000   -0.600425
      3          6           0        0.000000    0.000000    2.056907
      4          6           0        0.000000    0.000000   -2.056907
      5          1           0        0.000000    1.017547    2.451532
      6          1           0       -0.881221   -0.508773    2.451532
      7          1           0        0.881221   -0.508773    2.451532
      8          1           0        0.000000    1.017547   -2.451532
      9          1           0        0.881221   -0.508773   -2.451532
     10          1           0       -0.881221   -0.508773   -2.451532
 ---------------------------------------------------------------------
 Rotational constants (GHZ):          80.7183144           3.3767181           3.3767181

 **********************************************************************

            Population analysis using the SCF Density.

 **********************************************************************

 Orbital symmetries:
       Occupied  (A2") (A1') (A1') (A2") (A1') (A2") (A1') (A2")
                 (A1') (E') (E') (E") (E") (E') (E')
       Virtual   (A1') (A2") (E") (E") (E') (E') (A1') (E") (E")
                 (A2") (E') (E') (E") (E") (A1') (A2") (E') (E')
                 (A2") (A1') (E') (E') (E") (E") (A2") (E") (E")
                 (A1') (A1') (A2") (A1') (A2") (E') (E') (E") (E")
                 (E') (E') (E') (E') (E") (E") (A2") (A2') (A1")
                 (E') (E') (E") (E") (E") (E") (A2") (E') (E')
                 (A1') (A1') (A2") (E') (E') (A1') (E") (E") (A2")
                 (E') (E') (E") (E") (A1') (E') (E') (E") (E")
                 (A1') (E") (E") (A2") (A2") (A1') (E') (E') (A2")
                 (A1') (E") (E") (E') (E') (A2") (E") (E") (A1')
                 (E') (E') (A2") (A2') (A1') (A1') (E') (E') (A1")
                 (A2') (E") (E") (E') (E') (A2") (A1") (A2") (E")
                 (E") (A1') (E") (E") (A2") (E') (E') (A2') (A1")
                 (E') (E') (E') (E') (E") (E") (E') (E') (E") (E")
                 (E") (E") (E') (E') (A2") (A1') (E") (E") (E')
                 (E') (A1') (E") (E") (A2") (E') (E') (A2') (A1")
                 (A1') (E') (E') (A2") (E") (E") (E") (E") (E")
                 (E") (A1') (A2") (E') (E') (A1') (A2") (E") (E")
                 (E') (E') (A1') (A2") (A2') (A1") (A1') (E') (E')
                 (E") (E") (E') (E') (A2") (E") (E") (A1') (E")
                 (E") (A2") (E') (E') (E") (E") (A2") (A1')
 The electronic state is 1-A1'.
 Alpha  occ. eigenvalues --  -10.18643 -10.18643 -10.15802 -10.15545  -0.78468
 Alpha  occ. eigenvalues --   -0.74626  -0.67105  -0.48259  -0.43900  -0.43407
 Alpha  occ. eigenvalues --   -0.43407  -0.42117  -0.42117  -0.25471  -0.25471
 Alpha virt. eigenvalues --    0.01476   0.02798   0.04715   0.04715   0.07335
 Alpha virt. eigenvalues --    0.07335   0.09511   0.10933   0.10933   0.13182
 Alpha virt. eigenvalues --    0.18101   0.18101   0.19005   0.19005   0.21660
 Alpha virt. eigenvalues --    0.23018   0.25111   0.25111   0.31433   0.32869
 Alpha virt. eigenvalues --    0.33636   0.33636   0.34652   0.34652   0.37752
 Alpha virt. eigenvalues --    0.38076   0.38076   0.43869   0.48720   0.51715
 Alpha virt. eigenvalues --    0.54564   0.62936   0.66222   0.66222   0.81639
 Alpha virt. eigenvalues --    0.81639   0.84095   0.84095   0.93150   0.93150
 Alpha virt. eigenvalues --    0.94064   0.94064   0.94127   0.97398   0.97399
 Alpha virt. eigenvalues --    1.05989   1.05989   1.07209   1.07209   1.10350
 Alpha virt. eigenvalues --    1.10350   1.12065   1.14387   1.14387   1.17020
 Alpha virt. eigenvalues --    1.20030   1.24766   1.30608   1.30608   1.30835
 Alpha virt. eigenvalues --    1.33753   1.33753   1.44053   1.46777   1.46777
 Alpha virt. eigenvalues --    1.54100   1.54100   1.54710   1.66691   1.66691
 Alpha virt. eigenvalues --    1.67148   1.67148   1.69786   1.73624   1.73624
 Alpha virt. eigenvalues --    1.74703   1.83229   1.84791   1.87572   1.87572
 Alpha virt. eigenvalues --    2.26894   2.29695   2.30604   2.30604   2.48627
 Alpha virt. eigenvalues --    2.48627   2.56423   2.57202   2.57202   2.70820
 Alpha virt. eigenvalues --    3.13187   3.13187   3.16287   3.17987   3.19193
 Alpha virt. eigenvalues --    3.22220   3.26869   3.26869   3.26935   3.29493
 Alpha virt. eigenvalues --    3.34764   3.34764   3.43948   3.43948   3.44024
 Alpha virt. eigenvalues --    3.58737   3.60810   3.61545   3.61545   3.63690
 Alpha virt. eigenvalues --    3.74534   3.74534   3.76132   3.76751   3.76751
 Alpha virt. eigenvalues --    3.84370   3.84510   3.88928   3.88928   3.97145
 Alpha virt. eigenvalues --    3.97145   3.99302   3.99302   4.04668   4.04668
 Alpha virt. eigenvalues --    4.10942   4.10942   4.20054   4.20054   4.22661
 Alpha virt. eigenvalues --    4.22661   4.26503   4.27219   4.28543   4.28543
 Alpha virt. eigenvalues --    4.39804   4.39804   4.47444   4.48261   4.48261
 Alpha virt. eigenvalues --    4.57406   4.58942   4.58942   4.62112   4.62183
 Alpha virt. eigenvalues --    4.66380   4.70076   4.70076   4.70582   4.72088
 Alpha virt. eigenvalues --    4.72088   4.73580   4.73580   4.83735   4.83735
 Alpha virt. eigenvalues --    4.85363   4.87230   4.99906   4.99906   5.00127
 Alpha virt. eigenvalues --    5.10441   5.18972   5.18972   5.39774   5.39774
 Alpha virt. eigenvalues --    5.46020   5.48243   5.76127   5.76482   5.77472
 Alpha virt. eigenvalues --    5.81175   5.81175   5.82465   5.82465   5.83871
 Alpha virt. eigenvalues --    5.83871   5.84485   5.90264   5.90264   5.95144
 Alpha virt. eigenvalues --    6.00030   6.00030   6.03418   6.12517   6.12517
 Alpha virt. eigenvalues --    6.16909   6.16909   6.90195   8.04610
          Condensed to atoms (all electrons):
               1          2          3          4          5          6
     1  C    5.040413   0.923201   0.315884  -0.059283  -0.052215  -0.052215
     2  C    0.923201   5.040413  -0.059283   0.315884  -0.001733  -0.001733
     3  C    0.315884  -0.059283   4.539346   0.005257   0.427614   0.427614
     4  C   -0.059283   0.315884   0.005257   4.539346   0.000207   0.000207
     5  H   -0.052215  -0.001733   0.427614   0.000207   0.640043  -0.030894
     6  H   -0.052215  -0.001733   0.427614   0.000207  -0.030894   0.640043
     7  H   -0.052215  -0.001733   0.427614   0.000207  -0.030894  -0.030894
     8  H   -0.001733  -0.052215   0.000207   0.427614   0.000455  -0.000131
     9  H   -0.001733  -0.052215   0.000207   0.427614  -0.000131  -0.000131
    10  H   -0.001733  -0.052215   0.000207   0.427614  -0.000131   0.000455
               7          8          9         10
     1  C   -0.052215  -0.001733  -0.001733  -0.001733
     2  C   -0.001733  -0.052215  -0.052215  -0.052215
     3  C    0.427614   0.000207   0.000207   0.000207
     4  C    0.000207   0.427614   0.427614   0.427614
     5  H   -0.030894   0.000455  -0.000131  -0.000131
     6  H   -0.030894  -0.000131  -0.000131   0.000455
     7  H    0.640043  -0.000131   0.000455  -0.000131
     8  H   -0.000131   0.640043  -0.030894  -0.030894
     9  H    0.000455  -0.030894   0.640043  -0.030894
    10  H   -0.000131  -0.030894  -0.030894   0.640043
 Mulliken charges:
               1
     1  C   -0.058371
     2  C   -0.058371
     3  C   -0.084667
     4  C   -0.084667
     5  H    0.047679
     6  H    0.047679
     7  H    0.047679
     8  H    0.047679
     9  H    0.047679
    10  H    0.047679
 Sum of Mulliken charges =   0.00000
 Mulliken charges with hydrogens summed into heavy atoms:
               1
     1  C   -0.058371
     2  C   -0.058371
     3  C    0.058371
     4  C    0.058371
 Electronic spatial extent (au):  <R**2>=            400.7347
 Charge=              0.0000 electrons
 Dipole moment (field-independent basis, Debye):
    X=             -0.0000    Y=              0.0000    Z=              0.0000  Tot=              0.0000
 Quadrupole moment (field-independent basis, Debye-Ang):
   XX=            -25.9441   YY=            -25.9441   ZZ=            -19.4307
   XY=              0.0000   XZ=              0.0000   YZ=              0.0000
 Traceless Quadrupole moment (field-independent basis, Debye-Ang):
   XX=             -2.1711   YY=             -2.1711   ZZ=              4.3423
   XY=              0.0000   XZ=              0.0000   YZ=              0.0000
 Octapole moment (field-independent basis, Debye-Ang**2):
  XXX=             -0.0000  YYY=              1.3376  ZZZ=             -0.0000  XYY=             -0.0000
  XXY=             -1.3376  XXZ=             -0.0000  XZZ=             -0.0000  YZZ=              0.0000
  YYZ=             -0.0000  XYZ=             -0.0000
 Hexadecapole moment (field-independent basis, Debye-Ang**3):
 XXXX=            -43.4592 YYYY=            -43.4592 ZZZZ=           -459.6545 XXXY=              0.0000
 XXXZ=              0.0000 YYYX=              0.0000 YYYZ=              0.0000 ZZZX=              0.0000
 ZZZY=             -0.0000 XXYY=            -14.4864 XXZZ=            -81.6395 YYZZ=            -81.6395
 XXYZ=              0.0000 YYXZ=              0.0000 ZZXY=             -0.0000
 N-N= 1.002441758240D+02 E-N=-5.619561699534D+02  KE= 1.553672412363D+02
 Symmetry A1   KE= 7.758192878396D+01
 Symmetry A2   KE= 1.982592882360D+00
 Symmetry B1   KE= 4.325629490463D+00
 Symmetry B2   KE= 7.147709007954D+01
 1\1\GINC-GAMBA\FOpt\RB3LYP\Gen\C4H6\IRIKURA\29-Jun-2022\0\\# b3lyp/gen
  opt(cart,calcfc) freq\\2-butyne, B3LYP/pcseg-2\\0,1\C,0.,0.,0.6004248
 54\C,0.,0.,-0.600424854\C,0.,0.,2.0569067263\C,0.,0.,-2.0569067263\H,0
 .,1.0175467254,2.4515318042\H,-0.8812213137,-0.5087733627,2.4515318042
 \H,0.8812213137,-0.5087733627,2.4515318042\H,0.,1.0175467254,-2.451531
 8042\H,0.8812213137,-0.5087733627,-2.4515318042\H,-0.8812213137,-0.508
 7733627,-2.4515318042\\Version=ES64L-G16RevB.01\State=1-A1'\HF=-156.04
 63707\RMSD=4.354e-09\RMSF=1.913e-05\Dipole=0.,0.,0.\Quadrupole=-1.6141
 878,-1.6141878,3.2283755,0.,0.,0.\PG=D03H [C3(C1C1.C1C1),3SGV(H2)]\\@


 ALMOST ANYTHING IS EASIER TO GET INTO THAN OUT OF.

                         -- AGNES ALLEN'S LAW FROM
                PAUL DICKSON'S "THE OFFICIAL RULES"
 Job cpu time:       0 days  0 hours  6 minutes 58.4 seconds.
 Elapsed time:       0 days  0 hours  0 minutes 35.9 seconds.
 File lengths (MBytes):  RWF=     23 Int=      0 D2E=      0 Chk=      5 Scr=      1
 Normal termination of Gaussian 16 at Wed Jun 29 14:10:56 2022.
 Link1:  Proceeding to internal job step number  2.
 ------------------------------------------------------------------
 #N Geom=AllCheck Guess=TCheck SCRF=Check GenChk RB3LYP/ChkBas Freq
 ------------------------------------------------------------------
 1/10=4,29=7,30=1,38=1,40=1/1,3;
 2/12=2,40=1/2;
 3/5=7,6=2,11=2,14=-4,25=1,30=1,67=1,70=2,71=2,74=-5,82=7,116=1,140=1/1,2,3;
 4/5=101/1;
 5/5=2,38=6,98=1/2;
 8/6=4,10=90,11=11/1;
 11/6=1,8=1,9=11,15=111,16=1/1,2,10;
 10/6=1/2;
 6/7=2,8=2,9=2,10=2,28=1/1;
 7/8=1,10=1,25=1/1,2,3,16;
 1/10=4,30=1/3;
 99//99;
 Structure from the checkpoint file:  "/wrk/irikura/Gau-7441.chk"
 -----------------------
 2-butyne, B3LYP/pcseg-2
 -----------------------
 Charge =  0 Multiplicity = 1
 No Z-Matrix found in chk file; cartesian coordinates used.
  C                                                 0.000000000000     -0.000000000000      0.600424853973
  C                                                 0.000000000000     -0.000000000000     -0.600424853973
  C                                                 0.000000000000     -0.000000000000      2.056906726323
  C                                                 0.000000000000     -0.000000000000     -2.056906726323
  H                                                 0.000000000000      1.017546725364      2.451531804202
  H                                                -0.881221313703     -0.508773362682      2.451531804202
  H                                                 0.881221313703     -0.508773362682      2.451531804202
  H                                                 0.000000000000      1.017546725364     -2.451531804202
  H                                                 0.881221313703     -0.508773362682     -2.451531804202
  H                                                -0.881221313703     -0.508773362682     -2.451531804202
 Recover connectivity data from disk.

 GradGradGradGradGradGradGradGradGradGradGradGradGradGradGradGradGradGrad
 Berny optimization.
 Initialization pass.
 Trust Radius=3.00D-01 FncErr=1.00D-07 GrdErr=1.00D-07 EigMax=2.50D+02 EigMin=1.00D-04
 Number of steps in this run=      2 maximum allowed number of steps=      2.
 GradGradGradGradGradGradGradGradGradGradGradGradGradGradGradGradGradGrad

                          Input orientation:                          
 ---------------------------------------------------------------------
 Center     Atomic      Atomic             Coordinates (Angstroms)
 Number     Number       Type             X           Y           Z
 ---------------------------------------------------------------------
      1          6           0        0.000000   -0.000000    0.600425
      2          6           0        0.000000   -0.000000   -0.600425
      3          6           0        0.000000   -0.000000    2.056907
      4          6           0        0.000000   -0.000000   -2.056907
      5          1           0        0.000000    1.017547    2.451532
      6          1           0       -0.881221   -0.508773    2.451532
      7          1           0        0.881221   -0.508773    2.451532
      8          1           0        0.000000    1.017547   -2.451532
      9          1           0        0.881221   -0.508773   -2.451532
     10          1           0       -0.881221   -0.508773   -2.451532
 ---------------------------------------------------------------------
                    Distance matrix (angstroms):
                    1          2          3          4          5
     1  C    0.000000
     2  C    1.200850   0.000000
     3  C    1.456482   2.657332   0.000000
     4  C    2.657332   1.456482   4.113813   0.000000
     5  H    2.112344   3.217117   1.091389   4.621842   0.000000
     6  H    2.112344   3.217117   1.091389   4.621842   1.762443
     7  H    2.112344   3.217117   1.091389   4.621842   1.762443
     8  H    3.217117   2.112344   4.621842   1.091389   4.903064
     9  H    3.217117   2.112344   4.621842   1.091389   5.210205
    10  H    3.217117   2.112344   4.621842   1.091389   5.210205
                    6          7          8          9         10
     6  H    0.000000
     7  H    1.762443   0.000000
     8  H    5.210205   5.210205   0.000000
     9  H    5.210205   4.903064   1.762443   0.000000
    10  H    4.903064   5.210205   1.762443   1.762443   0.000000
 Stoichiometry    C4H6
 Framework group  D3H[C3(CC.CC),3SGV(H2)]
 Deg. of freedom     4
 Full point group                 D3H     NOp  12
 Largest Abelian subgroup         C2V     NOp   4
 Largest concise Abelian subgroup C2V     NOp   4
                         Standard orientation:                         
 ---------------------------------------------------------------------
 Center     Atomic      Atomic             Coordinates (Angstroms)
 Number     Number       Type             X           Y           Z
 ---------------------------------------------------------------------
      1          6           0        0.000000    0.000000    0.600425
      2          6           0        0.000000    0.000000   -0.600425
      3          6           0        0.000000    0.000000    2.056907
      4          6           0        0.000000    0.000000   -2.056907
      5          1           0        0.000000    1.017547    2.451532
      6          1           0       -0.881221   -0.508773    2.451532
      7          1           0        0.881221   -0.508773    2.451532
      8          1           0        0.000000    1.017547   -2.451532
      9          1           0        0.881221   -0.508773   -2.451532
     10          1           0       -0.881221   -0.508773   -2.451532
 ---------------------------------------------------------------------
 Rotational constants (GHZ):          80.7183144           3.3767181           3.3767181
 Basis read from chk: "/wrk/irikura/Gau-7441.chk" (5D, 7F)
 There are    74 symmetry adapted cartesian basis functions of A1  symmetry.
 There are    41 symmetry adapted cartesian basis functions of A2  symmetry.
 There are    41 symmetry adapted cartesian basis functions of B1  symmetry.
 There are    74 symmetry adapted cartesian basis functions of B2  symmetry.
 There are    64 symmetry adapted basis functions of A1  symmetry.
 There are    38 symmetry adapted basis functions of A2  symmetry.
 There are    38 symmetry adapted basis functions of B1  symmetry.
 There are    64 symmetry adapted basis functions of B2  symmetry.
   204 basis functions,   312 primitive gaussians,   230 cartesian basis functions
    15 alpha electrons       15 beta electrons
       nuclear repulsion energy       100.2441758240 Hartrees.
 NAtoms=   10 NActive=   10 NUniq=    3 SFac= 4.00D+00 NAtFMM=   60 NAOKFM=F Big=F
 Integral buffers will be    131072 words long.
 Raffenetti 2 integral format.
 Two-electron integral symmetry is turned on.
 One-electron integrals computed using PRISM.
 NBasis=   204 RedAO= T EigKep=  2.60D-05  NBF=    64    38    38    64
 NBsUse=   204 1.00D-06 EigRej= -1.00D+00 NBFU=    64    38    38    64
 Initial guess from the checkpoint file:  "/wrk/irikura/Gau-7441.chk"
 B after Tr=     0.000000    0.000000    0.000000
         Rot=    1.000000    0.000000    0.000000    0.000000 Ang=   0.00 deg.
 Initial guess orbital symmetries:
       Occupied  (A2") (A1') (A1') (A2") (A1') (A2") (A1') (A2")
                 (A1') (E') (E') (E") (E") (E') (E')
       Virtual   (A1') (A2") (E") (E") (E') (E') (A1') (E") (E")
                 (A2") (E') (E') (E") (E") (A1') (A2") (E') (E')
                 (A2") (A1') (E') (E') (E") (E") (A2") (E") (E")
                 (A1') (A1') (A2") (A1') (A2") (E') (E') (E") (E")
                 (E') (E') (E') (E') (E") (E") (A2") (A2') (A1")
                 (E') (E') (E") (E") (E") (E") (A2") (E') (E')
                 (A1') (A1') (A2") (E') (E') (A1') (E") (E") (A2")
                 (E') (E') (E") (E") (A1') (E') (E') (E") (E")
                 (A1') (E") (E") (A2") (A2") (A1') (E') (E') (A2")
[...]
 Red. masses --      1.0340                 1.0344                 1.1008
 Frc consts  --      5.5756                 5.5802                 6.1516
 IR Inten    --      0.0000                66.0937                21.5127
  Atom  AN      X      Y      Z        X      Y      Z        X      Y      Z
     1   6     0.00   0.00  -0.00     0.00  -0.00  -0.00    -0.00  -0.00  -0.00
     2   6    -0.00   0.00   0.00     0.00   0.00  -0.00    -0.00  -0.00   0.00
     3   6     0.00   0.00  -0.03     0.00   0.00  -0.03    -0.07  -0.00  -0.00
     4   6    -0.00   0.00   0.03     0.00  -0.00  -0.03    -0.07  -0.00  -0.00
     5   1     0.00   0.38   0.14     0.00   0.38   0.14    -0.02   0.00   0.00
     6   1    -0.33  -0.19   0.14    -0.33  -0.19   0.14     0.40   0.24  -0.18
     7   1     0.33  -0.19   0.14     0.33  -0.19   0.14     0.40  -0.24   0.18
     8   1    -0.00   0.38  -0.14     0.00  -0.38   0.14    -0.02   0.00  -0.00
     9   1     0.33  -0.19  -0.14    -0.33   0.19   0.14     0.40  -0.24  -0.18
    10   1    -0.33  -0.19  -0.14     0.33   0.19   0.14     0.40   0.24   0.18
                     22                     23                     24
                     E'                     E"                     E"
 Frequencies --   3079.7165              3080.7570              3080.7573
 Red. masses --      1.1008                 1.1008                 1.1008
 Frc consts  --      6.1516                 6.1557                 6.1557
 IR Inten    --     21.5125                 0.0000                 0.0000
  Atom  AN      X      Y      Z        X      Y      Z        X      Y      Z
     1   6     0.00  -0.00  -0.00    -0.00  -0.00   0.00     0.00  -0.00   0.00
     2   6     0.00  -0.00   0.00     0.00   0.00  -0.00    -0.00   0.00   0.00
     3   6     0.00  -0.07  -0.00    -0.07  -0.00  -0.00     0.00  -0.07  -0.00
     4   6     0.00  -0.07   0.00     0.07   0.00   0.00    -0.00   0.07  -0.00
     5   1     0.00   0.54   0.21    -0.02   0.00   0.00     0.00   0.54   0.21
     6   1     0.24   0.12  -0.10     0.40   0.24  -0.18     0.24   0.12  -0.10
     7   1    -0.24   0.12  -0.10     0.40  -0.24   0.18    -0.24   0.12  -0.10
     8   1     0.00   0.54  -0.21     0.02  -0.00   0.00    -0.00  -0.54   0.21
     9   1    -0.24   0.12   0.10    -0.40   0.24   0.18     0.24  -0.12  -0.10
    10   1     0.24   0.12   0.10    -0.40  -0.24  -0.18    -0.24  -0.12  -0.10

 -------------------
 - Thermochemistry -
 -------------------
 Temperature   298.150 Kelvin.  Pressure   1.00000 Atm.
 Atom     1 has atomic number  6 and mass  12.00000
 Atom     2 has atomic number  6 and mass  12.00000
 Atom     3 has atomic number  6 and mass  12.00000
 Atom     4 has atomic number  6 and mass  12.00000
 Atom     5 has atomic number  1 and mass   1.00783
 Atom     6 has atomic number  1 and mass   1.00783
 Atom     7 has atomic number  1 and mass   1.00783
 Atom     8 has atomic number  1 and mass   1.00783
 Atom     9 has atomic number  1 and mass   1.00783
 Atom    10 has atomic number  1 and mass   1.00783
 Molecular mass:    54.04695 amu.
 Principal axes and moments of inertia in atomic units:
                           1         2         3
     Eigenvalues --    22.35851 534.46605 534.46605
           X           -0.00000   0.74302  -0.66927
           Y           -0.00000   0.66927   0.74302
           Z            1.00000   0.00000  -0.00000
 This molecule is a prolate symmetric top.
 Rotational symmetry number  6.
 Rotational temperatures (Kelvin)      3.87387     0.16206     0.16206
 Rotational constants (GHZ):          80.71831     3.37672     3.37672
 Zero-point vibrational energy     220300.6 (Joules/Mol)
                                   52.65311 (Kcal/Mol)
 Warning -- explicit consideration of   5 degrees of freedom as
           vibrations may cause significant error
 Vibrational temperatures:     17.85   290.02   290.02   578.90   578.90
          (Kelvin)           1042.35  1509.03  1509.03  1534.17  1534.17
                             1680.96  2039.42  2043.82  2129.51  2129.51
                             2129.53  2129.53  3391.95  4352.73  4353.67
                             4431.02  4431.03  4432.52  4432.52
 
 Zero-point correction=                           0.083908 (Hartree/Particle)
 Thermal correction to Energy=                    0.089663
 Thermal correction to Enthalpy=                  0.090607
 Thermal correction to Gibbs Free Energy=         0.056335
 Sum of electronic and zero-point Energies=           -155.962463
 Sum of electronic and thermal Energies=              -155.956708
 Sum of electronic and thermal Enthalpies=            -155.955764
 Sum of electronic and thermal Free Energies=         -155.990035
 
                     E (Thermal)             CV                S
                      KCal/Mol        Cal/Mol-Kelvin    Cal/Mol-Kelvin
 Total                   56.264             17.360             72.131
 Electronic               0.000              0.000              0.000
 Translational            0.889              2.981             37.884
 Rotational               0.889              2.981             19.812
 Vibrational             54.487             11.399             14.435
 Vibration     1          0.593              1.987              7.583
 Vibration     2          0.638              1.838              2.119
 Vibration     3          0.638              1.838              2.119
 Vibration     4          0.768              1.465              0.954
 Vibration     5          0.768              1.465              0.954
                       Q            Log10(Q)             Ln(Q)
 Total Bot       0.122346D-25        -25.912408        -59.665525
 Total V=0       0.481498D+13         12.682594         29.202752
 Vib (Bot)       0.164303D-36        -36.784355        -84.699108
 Vib (Bot)    1  0.167042D+02          1.222827          2.815663
 Vib (Bot)    2  0.988607D+00         -0.004976         -0.011458
 Vib (Bot)    3  0.988604D+00         -0.004977         -0.011461
 Vib (Bot)    4  0.442213D+00         -0.354369         -0.815964
 Vib (Bot)    5  0.442213D+00         -0.354369         -0.815965
 Vib (V=0)       0.646618D+02          1.810648          4.169170
 Vib (V=0)    1  0.172117D+02          1.235824          2.845591
 Vib (V=0)    2  0.160786D+01          0.206247          0.474901
 Vib (V=0)    3  0.160785D+01          0.206246          0.474900
 Vib (V=0)    4  0.116750D+01          0.067256          0.154862
 Vib (V=0)    5  0.116750D+01          0.067256          0.154862
 Electronic      0.100000D+01          0.000000          0.000000
 Translational   0.156175D+08          7.193611         16.563901
 Rotational      0.476800D+04          3.678336          8.469681
 ***** Axes restored to original set *****
 -------------------------------------------------------------------
 Center     Atomic                   Forces (Hartrees/Bohr)
 Number     Number              X              Y              Z
 -------------------------------------------------------------------
      1        6           0.000000000    0.000000000    0.000045266
      2        6           0.000000000    0.000000000   -0.000045266
      3        6           0.000000000   -0.000000000   -0.000019014
      4        6          -0.000000000   -0.000000000    0.000019014
      5        1           0.000000000    0.000031722    0.000004306
      6        1          -0.000027472   -0.000015861    0.000004306
      7        1           0.000027472   -0.000015861    0.000004306
      8        1          -0.000000000    0.000031722   -0.000004306
      9        1           0.000027472   -0.000015861   -0.000004306
     10        1          -0.000027472   -0.000015861   -0.000004306
 -------------------------------------------------------------------
 Cartesian Forces:  Max     0.000045266 RMS     0.000019122

 GradGradGradGradGradGradGradGradGradGradGradGradGradGradGradGradGradGrad
 Berny optimization.
 Search for a local minimum.
 Step number   1 out of a maximum of    2
 All quantities printed in internal units (Hartrees-Bohrs-Radians)
 Second derivative matrix not updated -- analytic derivatives used.
 ITU=  0
     Eigenvalues ---    0.00001   0.00517   0.00517   0.02615   0.02615
     Eigenvalues ---    0.04694   0.09143   0.09143   0.09992   0.09992
     Eigenvalues ---    0.11742   0.12746   0.12746   0.16332   0.16332
     Eigenvalues ---    0.22648   0.34093   0.60296   0.70708   0.70708
     Eigenvalues ---    0.74188   0.74188   0.76537   2.52123
 Angle between quadratic step and forces=  46.74 degrees.
 ClnCor:  largest displacement from symmetrization is 1.77D-09 for atom     9.
 Linear search not attempted -- first point.
 ClnCor:  largest displacement from symmetrization is 2.22D-16 for atom     1.
 B after Tr=     0.000000    0.000000    0.000000
         Rot=    1.000000    0.000000    0.000000    0.000000 Ang=   0.00 deg.
 Variable       Old X    -DE/DX   Delta X   Delta X   Delta X     New X
                                 (Linear)    (Quad)   (Total)
    X1        0.00000   0.00000   0.00000   0.00000   0.00000   0.00000
    Y1       -0.00000   0.00000   0.00000  -0.00000   0.00000  -0.00000
    Z1        1.13464   0.00005   0.00000   0.00002   0.00002   1.13466
    X2        0.00000   0.00000   0.00000   0.00000   0.00000   0.00000
    Y2       -0.00000   0.00000   0.00000  -0.00000   0.00000  -0.00000
    Z2       -1.13464  -0.00005   0.00000  -0.00002  -0.00002  -1.13466
    X3        0.00000   0.00000   0.00000  -0.00000   0.00000   0.00000
    Y3       -0.00000  -0.00000   0.00000   0.00000   0.00000  -0.00000
    Z3        3.88699  -0.00002   0.00000   0.00001   0.00001   3.88700
    X4        0.00000  -0.00000   0.00000   0.00000   0.00000   0.00000
    Y4       -0.00000  -0.00000   0.00000   0.00000   0.00000  -0.00000
    Z4       -3.88699   0.00002   0.00000  -0.00001  -0.00001  -3.88700
    X5        0.00000   0.00000   0.00000   0.00000   0.00000   0.00000
    Y5        1.92288   0.00003   0.00000   0.00012   0.00012   1.92300
    Z5        4.63272   0.00000   0.00000  -0.00005  -0.00005   4.63267
    X6       -1.66527  -0.00003   0.00000  -0.00010  -0.00010  -1.66537
    Y6       -0.96144  -0.00002   0.00000  -0.00006  -0.00006  -0.96150
    Z6        4.63272   0.00000   0.00000  -0.00005  -0.00005   4.63267
    X7        1.66527   0.00003   0.00000   0.00010   0.00010   1.66537
    Y7       -0.96144  -0.00002   0.00000  -0.00006  -0.00006  -0.96150
    Z7        4.63272   0.00000   0.00000  -0.00005  -0.00005   4.63267
    X8        0.00000  -0.00000   0.00000   0.00000   0.00000   0.00000
    Y8        1.92288   0.00003   0.00000   0.00012   0.00012   1.92300
    Z8       -4.63272  -0.00000   0.00000   0.00005   0.00005  -4.63267
    X9        1.66527   0.00003   0.00000   0.00010   0.00010   1.66537
    Y9       -0.96144  -0.00002   0.00000  -0.00006  -0.00006  -0.96150
    Z9       -4.63272  -0.00000   0.00000   0.00005   0.00005  -4.63267
   X10       -1.66527  -0.00003   0.00000  -0.00010  -0.00010  -1.66537
   Y10       -0.96144  -0.00002   0.00000  -0.00006  -0.00006  -0.96150
   Z10       -4.63272  -0.00000   0.00000   0.00005   0.00005  -4.63267
         Item               Value     Threshold  Converged?
 Maximum Force            0.000045     0.000450     YES
 RMS     Force            0.000019     0.000300     YES
 Maximum Displacement     0.000118     0.001800     YES
 RMS     Displacement     0.000058     0.001200     YES
 Predicted change in Energy=-1.130963D-08
 Optimization completed.
    -- Stationary point found.
 GradGradGradGradGradGradGradGradGradGradGradGradGradGradGradGradGradGrad

 Dipole is zero, so no output in dipole orientation.

 ----------------------------------------------------------------------

 Electric dipole moment (input orientation):
 (Debye = 10**-18 statcoulomb cm , SI units = C m)
                  (au)            (Debye)         (10**-30 SI)
   Tot        0.000000D+00      0.000000D+00      0.000000D+00
   x          0.000000D+00      0.000000D+00      0.000000D+00
   y          0.000000D+00      0.000000D+00      0.000000D+00
   z          0.000000D+00      0.000000D+00      0.000000D+00

 Dipole polarizability, Alpha (input orientation).
 (esu units = cm**3 , SI units = C**2 m**2 J**-1)
 Alpha(0;0):
               (au)            (10**-24 esu)      (10**-40 SI)
   iso        0.475944D+02      0.705276D+01      0.784725D+01
   aniso      0.376854D+02      0.558440D+01      0.621348D+01
   xx         0.350325D+02      0.519127D+01      0.577607D+01
   yx         0.000000D+00      0.000000D+00      0.000000D+00
   yy         0.350327D+02      0.519131D+01      0.577611D+01
   zx         0.000000D+00      0.000000D+00      0.000000D+00
   zy         0.000000D+00      0.000000D+00      0.000000D+00
   zz         0.727179D+02      0.107757D+02      0.119896D+02

 ----------------------------------------------------------------------
 1\1\GINC-GAMBA\Freq\RB3LYP\Gen\C4H6\IRIKURA\29-Jun-2022\0\\#N Geom=All
 Check Guess=TCheck SCRF=Check GenChk RB3LYP/ChkBas Freq\\2-butyne, B3L
 YP/pcseg-2\\0,1\C,0.,0.,0.600424854\C,0.,0.,-0.600424854\C,0.,0.,2.056
 9067263\C,0.,0.,-2.0569067263\H,0.,1.0175467254,2.4515318042\H,-0.8812
 213137,-0.5087733627,2.4515318042\H,0.8812213137,-0.5087733627,2.45153
 18042\H,0.,1.0175467254,-2.4515318042\H,0.8812213137,-0.5087733627,-2.
 4515318042\H,-0.8812213137,-0.5087733627,-2.4515318042\\Version=ES64L-
 G16RevB.01\State=1-A1'\HF=-156.0463707\RMSD=3.855e-10\RMSF=1.912e-05\Z
 eroPoint=0.0839081\Thermal=0.0896629\Dipole=0.,0.,0.\DipoleDeriv=-0.19
 10681,0.,0.,0.,-0.1910689,0.0000092,0.,0.0000375,-0.0000387,-0.1910681
 ,0.,0.,0.,-0.1910689,-0.0000092,0.,-0.0000375,-0.0000387,0.1594903,0.,
 0.,0.,0.1594875,-0.0000095,0.,0.0000025,0.1679549,0.1594903,0.,0.,0.,0
 .1594875,0.0000095,0.,-0.0000025,0.1679549,0.088712,0.,0.,0.,-0.067659
 ,-0.0897728,0.,-0.0353415,-0.0559721,-0.0285667,-0.0677117,0.0777447,-
 0.0677107,0.0496197,0.0448868,0.0306063,0.0176696,-0.0559721,-0.028566
 7,0.0677117,-0.0777447,0.0677107,0.0496197,0.0448868,-0.0306063,0.0176
 696,-0.0559721,0.088712,0.,0.,0.,-0.067659,0.0897728,0.,0.0353415,-0.0
 559721,-0.0285667,0.0677117,0.0777447,0.0677107,0.0496197,-0.0448868,0
 .0306063,-0.0176696,-0.0559721,-0.0285667,-0.0677117,-0.0777447,-0.067
 7107,0.0496197,-0.0448868,-0.0306063,-0.0176696,-0.0559721\Polar=35.03
 24544,0.,35.0326736,0.,0.,72.7179326\Quadrupole=-1.6141873,-1.6141873,
 3.2283746,0.,0.,0.\PG=D03H [C3(C1C1.C1C1),3SGV(H2)]\NImag=0\\0.0896036
 0,0.,0.08960359,0.,0.00000023,1.41580402,-0.03680033,0.,0.,0.08960360,
 0.,-0.03680032,0.00000036,0.,0.08960359,0.,-0.00000036,-1.06913380,0.,
 -0.00000023,1.41580402,-0.06366986,0.,0.,0.00347277,0.,0.,0.53161785,0
 .,-0.06366957,0.00000006,0.,0.00347269,-0.00000018,0.,0.53161883,0.,0.
 00000029,-0.27805253,0.,-0.00000009,-0.00823910,0.,0.00000032,0.508490
 52,0.00347277,0.,0.,-0.06366986,0.,0.,0.00694670,0.,0.,0.53161785,0.,0
 .00347269,0.00000018,0.,-0.06366957,-0.00000006,0.,0.00694675,0.000000
 09,0.,0.53161883,0.,0.00000009,-0.00823910,0.,-0.00000029,-0.27805253,
 0.,-0.00000009,0.00265348,0.,-0.00000032,0.50849052,-0.00130842,0.,0.,
 0.00092729,0.,0.,-0.04449283,0.,0.,-0.00016887,0.,0.,0.04407918,0.,0.0
 0541468,-0.00426570,0.,-0.00010446,0.00205366,0.,-0.27418412,-0.082830
 73,0.,-0.00006654,-0.00023917,0.,0.29706925,0.,-0.03217677,-0.02051137
 ,0.,0.00065402,0.00038524,0.,-0.08470311,-0.07469938,0.,0.00186120,-0.
 00025158,0.,0.09353427,0.08747722,0.00373396,0.00291123,0.00369392,0.0
 0015347,-0.00044678,-0.00177818,-0.21676104,-0.09945910,0.07173325,-0.
 00009211,0.00004432,0.00020714,0.00043839,0.00020578,-0.00130549,0.233
 82173,0.00291121,0.00037235,0.00213278,-0.00044676,0.00066936,-0.00102
 669,-0.09945910,-0.10191570,0.04141522,0.00004431,-0.00014328,0.000119
 59,-0.02519920,-0.01399156,0.01056981,0.10954791,0.10732670,0.02786584
 ,0.01608833,-0.02051135,-0.00056640,-0.00032700,0.00038517,0.07335485,
 0.04235151,-0.07469925,-0.00161186,-0.00093062,-0.00025158,-0.00980647
 ,-0.00415432,0.00408770,-0.08100305,-0.04676714,0.08747722,0.00373396,
 -0.00291123,-0.00369392,0.00015347,0.00044678,0.00177818,-0.21676104,0
 .09945910,-0.07173325,-0.00009211,-0.00004432,-0.00020714,0.00043839,-
 0.00020578,0.00130549,-0.02120654,0.01270249,-0.00850098,0.23382173,-0
 .00291121,0.00037235,0.00213278,0.00044676,0.00066936,-0.00102669,0.09
 945910,-0.10191570,0.04141522,-0.00004431,-0.00014328,0.00011959,0.025
 19920,-0.01399156,0.01056981,-0.01270249,0.00765337,-0.00641549,-0.109
 54791,0.10732670,-0.02786584,0.01608833,-0.02051135,0.00056640,-0.0003
 2700,0.00038517,-0.07335485,0.04235151,-0.07469925,0.00161186,-0.00093
 062,-0.00025158,0.00980647,-0.00415432,0.00408770,0.00850098,-0.006415
 49,0.00408770,0.08100305,-0.04676714,0.08747722,0.00092729,0.,0.,-0.00
 130842,0.,0.,-0.00016887,0.,0.,-0.04449283,0.,0.,0.00008602,0.,0.,0.00
 000048,-0.00005596,0.00011587,0.00000048,0.00005596,-0.00011587,0.0440
 7918,0.,-0.00010446,-0.00205366,0.,0.00541468,0.00426570,0.,-0.0000665
 4,0.00023917,0.,-0.27418412,0.08283073,0.,-0.00009425,-0.00009120,0.00
 001044,-0.00002579,0.00001749,-0.00001044,-0.00002579,0.00001749,0.,0.
 29706925,0.,-0.00065402,0.00038524,0.,0.03217677,-0.02051137,0.,-0.001
 86120,-0.00025158,0.,0.08470311,-0.07469938,0.,0.00009120,-0.00068527,
 -0.00004279,0.00010909,0.00005487,0.00004279,0.00010909,0.00005487,0.,
 -0.09353427,0.08747722,0.00015347,0.00044678,-0.00177818,0.00373396,-0
 .00291123,0.00369392,-0.00009211,-0.00004432,0.00020714,-0.21676104,0.
 09945910,0.07173325,0.00000048,-0.00001044,-0.00004279,-0.00003893,0.0
 0003320,0.00007308,-0.00004918,0.00007806,-0.00007898,0.00043839,-0.00
 020578,-0.00130549,0.23382173,0.00044676,0.00066936,0.00102669,-0.0029
 1121,0.00037235,-0.00213278,-0.00004431,-0.00014328,-0.00011959,0.0994
 5910,-0.10191570,-0.04141522,0.00005596,-0.00002579,-0.00010909,-0.000
 03320,0.00001362,0.00009160,0.00007806,0.00004095,0.00004560,0.0251992
 0,-0.01399156,-0.01056981,-0.10954791,0.10732670,-0.00056640,0.0003270
 0,0.00038517,0.02786584,-0.01608833,-0.02051135,-0.00161186,0.00093062
 ,-0.00025158,0.07335485,-0.04235151,-0.07469925,0.00011587,-0.00001749
 ,0.00005487,0.00007308,-0.00009160,0.00005487,0.00007898,-0.00004560,-
 0.00068527,-0.00980647,0.00415432,0.00408770,-0.08100305,0.04676714,0.
 08747722,0.00015347,-0.00044678,0.00177818,0.00373396,0.00291123,-0.00
 369392,-0.00009211,0.00004432,-0.00020714,-0.21676104,-0.09945910,-0.0
 7173325,0.00000048,0.00001044,0.00004279,-0.00004918,-0.00007806,0.000
 07898,-0.00003893,-0.00003320,-0.00007308,0.00043839,0.00020578,0.0013
 0549,-0.02120654,-0.01270249,-0.00850098,0.23382173,-0.00044676,0.0006
 6936,0.00102669,0.00291121,0.00037235,-0.00213278,0.00004431,-0.000143
 28,-0.00011959,-0.09945910,-0.10191570,-0.04141522,-0.00005596,-0.0000
 2579,-0.00010909,-0.00007806,0.00004095,0.00004560,0.00003320,0.000013
 62,0.00009160,-0.02519920,-0.01399156,-0.01056981,0.01270249,0.0076533
 7,0.00641549,0.10954791,0.10732670,0.00056640,0.00032700,0.00038517,-0
 .02786584,-0.01608833,-0.02051135,0.00161186,0.00093062,-0.00025158,-0
 .07335485,-0.04235151,-0.07469925,-0.00011587,-0.00001749,0.00005487,-
 0.00007898,-0.00004560,-0.00068527,-0.00007308,-0.00009160,0.00005487,
 0.00980647,0.00415432,0.00408770,0.00850098,0.00641549,0.00408770,0.08
 100305,0.04676714,0.08747722\\0.,0.,-0.00004527,0.,0.,0.00004527,0.,0.
 ,0.00001901,0.,0.,-0.00001901,0.,-0.00003172,-0.00000431,0.00002747,0.
 00001586,-0.00000431,-0.00002747,0.00001586,-0.00000431,0.,-0.00003172
 ,0.00000431,-0.00002747,0.00001586,0.00000431,0.00002747,0.00001586,0.
 00000431\\\@


 YOU ARE IN A MAZE OF TWISTY LITTLE PASSAGES.
 Job cpu time:       0 days  0 hours  5 minutes 42.4 seconds.
 Elapsed time:       0 days  0 hours  0 minutes 28.7 seconds.
 File lengths (MBytes):  RWF=     23 Int=      0 D2E=      0 Chk=      5 Scr=      1
 Normal termination of Gaussian 16 at Wed Jun 29 14:11:26 2022.
