 Entering Gaussian System, Link 0=g16
 AtFile(1): pcseg2.gbs
            -H     0
            S   4   1.00
                  0.754732D+02           0.427821D-02
                  0.113575D+02           0.328672D-01
                  0.260081D+01           0.159578D+00
                  0.735503D+00           0.500000D+00
            S   1   1.00
                  0.231761D+00           1.0000000
            S   1   1.00
                  0.741675D-01           1.0000000
            P   1   1.00
                  0.160000D+01           1.0000000
            P   1   1.00
                  0.450000D+00           1.0000000
            D   1   1.00
                  0.125000D+01           1.0000000
            ****
            -C     0
            S   7   1.00
                  0.731999D+04           0.695369D-03
                  0.109818D+04           0.537138D-02
                  0.250014D+03           0.274734D-01
                  0.707586D+02           0.105078D+00
                  0.228595D+02           0.291262D+00
                  0.803936D+01           0.500000D+00
                  0.289309D+01           0.362224D+00
            S   2   1.00
                  0.521640D+01          -0.957844D-01
                  0.556124D+00           0.500000D+00
            S   1   1.00
                  0.228813D+00           1.0000000
            S   1   1.00
                  0.936338D-01           1.0000000
            P   4   1.00
                  0.339855D+02           0.818395D-02
                  0.772957D+01           0.586921D-01
                  0.224954D+01           0.222514D+00
                  0.767681D+00           0.500000D+00
            P   1   1.00
                  0.263283D+00           1.0000000
            P   1   1.00
                  0.848744D-01           1.0000000
            D   1   1.00
                  0.140000D+01           1.0000000
            D   1   1.00
                  0.450000D+00           1.0000000
            F   1   1.00
                  0.950000D+00           1.0000000
            ****
            -O     0
            S   7   1.00
                  0.135887D+05           0.665492D-03
                  0.203847D+04           0.514222D-02
                  0.464041D+03           0.263472D-01
                  0.131339D+03           0.101500D+00
                  0.425340D+02           0.285877D+00
                  0.150429D+02           0.500000D+00
                  0.546616D+01           0.368211D+00
            S   2   1.00
                  0.100915D+02          -0.100084D+00
                  0.110429D+01           0.500000D+00
            S   1   1.00
                  0.448082D+00           1.0000000
            S   1   1.00
                  0.175325D+00           1.0000000
            P   4   1.00
                  0.608220D+02           0.908253D-02
                  0.140332D+02           0.645878D-01
                  0.418244D+01           0.241502D+00
                  0.142490D+01           0.500000D+00
            P   1   1.00
                  0.478741D+00           1.0000000
            P   1   1.00
                  0.146257D+00           1.0000000
            D   1   1.00
                  0.220000D+01           1.0000000
            D   1   1.00
                  0.650000D+00           1.0000000
            F   1   1.00
                  0.110000D+01           1.0000000
            ****
            -N     0
            S   7   1.00
                  0.101643D+05           0.682757D-03
                  0.152481D+04           0.527488D-02
                  0.347119D+03           0.270037D-01
                  0.982389D+02           0.103673D+00
                  0.317799D+02           0.289575D+00
                  0.112240D+02           0.500000D+00
                  0.406611D+01           0.364621D+00
            S   2   1.00
                  0.747898D+01          -0.975681D-01
                  0.805040D+00           0.500000D+00
            S   1   1.00
                  0.324626D+00           1.0000000
            S   1   1.00
                  0.128132D+00           1.0000000
            P   4   1.00
                  0.482704D+02           0.829547D-02
                  0.110815D+02           0.596223D-01
                  0.326643D+01           0.227889D+00
                  0.111680D+01           0.500000D+00
            P   1   1.00
                  0.382049D+00           1.0000000
            P   1   1.00
                  0.121222D+00           1.0000000
            D   1   1.00
                  0.180000D+01           1.0000000
            D   1   1.00
                  0.550000D+00           1.0000000
            F   1   1.00
                  0.102000D+01           1.0000000
            ****
            -F     0
            S   7   1.00
                  0.174507D+05           0.655972D-03
                  0.261768D+04           0.506944D-02
                  0.595857D+03           0.259899D-01
                  0.168651D+03           0.100353D+00
                  0.546654D+02           0.284095D+00
                  0.193717D+02           0.500000D+00
                  0.706202D+01           0.370721D+00
            S   2   1.00
                  0.131197D+02          -0.101997D+00
                  0.145046D+01           0.500000D+00
            S   1   1.00
                  0.588255D+00           1.0000000
            S   1   1.00
                  0.227960D+00           1.0000000
            P   4   1.00
                  0.779407D+02           0.931135D-02
                  0.180425D+02           0.663964D-01
                  0.542342D+01           0.246386D+00
                  0.184876D+01           0.500000D+00
            P   1   1.00
                  0.617455D+00           1.0000000
            P   1   1.00
                  0.185496D+00           1.0000000
            D   1   1.00
                  0.280000D+01           1.0000000
            D   1   1.00
                  0.800000D+00           1.0000000
            F   1   1.00
                  0.120000D+01           1.0000000
            ****
            -Cl     0
            S   8   1.00
                  0.154272D+06           0.222473D-03
                  0.231232D+05           0.172590D-02
                  0.526257D+04           0.899286D-02
                  0.148995D+04           0.367724D-01
                  0.485417D+03           0.121446D+00
                  0.174634D+03           0.304148D+00
                  0.672393D+02           0.500000D+00
                  0.265780D+02           0.360252D+00
            S   3   1.00
                  0.131826D+03          -0.531330D-01
                  0.400703D+02          -0.233346D+00
                  0.789448D+01           0.500000D+00
            S   2   1.00
                  0.427711D+01           0.500000D+00
                  0.196233D+01           0.370517D+00
            S   1   1.00
                  0.520793D+00           1.0000000
            S   1   1.00
                  0.181633D+00           1.0000000
            P   7   1.00
                  0.124440D+04           0.988206D-03
                  0.295109D+03           0.829674D-02
                  0.947224D+02           0.430906D-01
                  0.352588D+02           0.148443D+00
                  0.144211D+02           0.344744D+00
                  0.610371D+01           0.500000D+00
                  0.258886D+01           0.348278D+00
            P   2   1.00
                  0.109447D+02          -0.196768D-01
                  0.104413D+01           0.500000D+00
            P   1   1.00
                  0.376184D+00           1.0000000
            P   1   1.00
                  0.120613D+00           1.0000000
            D   1   1.00
                  0.231000D+01           1.0000000
            D   1   1.00
                  0.520000D+00           1.0000000
            F   1   1.00
                  0.720000D+00           1.0000000
            ****
            -S     0
            S   8   1.00
                  0.134700D+06           0.226231D-03
                  0.201904D+05           0.175488D-02
                  0.459528D+04           0.914190D-02
                  0.130109D+04           0.373551D-01
                  0.423902D+03           0.123121D+00
                  0.152485D+03           0.306801D+00
                  0.586925D+02           0.500000D+00
                  0.231461D+02           0.354358D+00
            S   3   1.00
                  0.116327D+03          -0.491772D-01
                  0.352841D+02          -0.215962D+00
                  0.677831D+01           0.500000D+00
            S   2   1.00
                  0.360404D+01           0.500000D+00
                  0.164871D+01           0.366278D+00
            S   1   1.00
                  0.421821D+00           1.0000000
            S   1   1.00
                  0.147554D+00           1.0000000
            P   7   1.00
                  0.104863D+04           0.105273D-02
                  0.248717D+03           0.879338D-02
                  0.797887D+02           0.453358D-01
                  0.296023D+02           0.154476D+00
                  0.120627D+02           0.352366D+00
                  0.507628D+01           0.500000D+00
                  0.213375D+01           0.346429D+00
            P   2   1.00
                  0.928958D+01          -0.185932D-01
                  0.837819D+00           0.500000D+00
            P   1   1.00
                  0.301495D+00           1.0000000
            P   1   1.00
                  0.974740D-01           1.0000000
            D   1   1.00
                  0.210000D+01           1.0000000
            D   1   1.00
                  0.480000D+00           1.0000000
            F   1   1.00
                  0.660000D+00           1.0000000
            ****
            -Br     0
            S    10   1.00
                  0.233625D+07           0.532336D-04
                  0.349961D+06           0.413715D-03
                  0.796444D+05           0.217123D-02
                  0.225555D+05           0.910109D-02
                  0.735546D+04           0.323789D-01
                  0.265352D+04           0.988755D-01
                  0.103517D+04           0.248138D+00
                  0.422205D+03           0.474328D+00
                  0.180035D+03           0.500000D+00
                  0.793308D+02           0.187769D+00
            S    4   1.00
                  0.620834D+03          -0.226511D-01
                  0.190829D+03          -0.109497D+00
                  0.312505D+02           0.500000D+00
                  0.135270D+02           0.492812D+00
            S    2   1.00
                  0.216097D+02          -0.165418D+00
                  0.372566D+01           0.500000D+00
            S    1   1.00
                  0.169770D+01           1.0000000
            S    1   1.00
                  0.489332D+00           1.0000000
            S    1   1.00
                  0.175712D+00           1.0000000
            P    8   1.00
                  0.960829D+04           0.478974D-03
                  0.227618D+04           0.417853D-02
                  0.736723D+03           0.229315D-01
                  0.281579D+03           0.892653D-01
                  0.118395D+03           0.255288D+00
                  0.527481D+02           0.479074D+00
                  0.245098D+02           0.500000D+00
                  0.112009D+02           0.200944D+00
            P    4   1.00
                  0.587849D+02          -0.189674D-01
                  0.918962D+01           0.264104D+00
                  0.413895D+01           0.500000D+00
                  0.184225D+01           0.319316D+00
            P    1   1.00
                  0.713862D+00           1.0000000
            P    1   1.00
                  0.274232D+00           1.0000000
            P    1   1.00
                  0.944411D-01           1.0000000
            D    7   1.00
                  0.398470D+03           0.204066D-02
                  0.118967D+03           0.175171D-01
                  0.450197D+02           0.829708D-01
                  0.190320D+02           0.236284D+00
                  0.855686D+01           0.428468D+00
                  0.382950D+01           0.500000D+00
                  0.166291D+01           0.349360D+00
            D    1   1.00
                  0.672953D+00           1.0000000
            D    1   1.00
                  0.252000D+00           1.0000000
            F    1   1.00
                  0.530000D+00           1.0000000
            ****
            -Si     0
            S    8   1.00
                  0.996133D+05           0.235546D-03
                  0.149311D+05           0.182707D-02
                  0.339820D+04           0.951425D-02
                  0.962140D+03           0.388172D-01
                  0.313430D+03           0.127328D+00
                  0.112683D+03           0.313522D+00
                  0.433372D+02           0.500000D+00
                  0.170029D+02           0.340347D+00
            S    3   1.00
                  0.884208D+02          -0.404451D-01
                  0.266756D+02          -0.178059D+00
                  0.479640D+01           0.500000D+00
            S    2   1.00
                  0.239385D+01           0.500000D+00
                  0.108333D+01           0.338016D+00
            S    1   1.00
                  0.252420D+00           1.0000000
            S    1   1.00
                  0.891210D-01           1.0000000
            P    7   1.00
                  0.709901D+03           0.123028D-02
                  0.168426D+03           0.101366D-01
                  0.539946D+02           0.511840D-01
                  0.198646D+02           0.169967D+00
                  0.801369D+01           0.370717D+00
                  0.331870D+01           0.500000D+00
                  0.136112D+01           0.344128D+00
            P    2   1.00
                  0.622158D+01          -0.166609D-01
                  0.503049D+00           0.500000D+00
            P    1   1.00
                  0.179848D+00           1.0000000
            P    1   1.00
                  0.591912D-01           1.0000000
            D    1   1.00
                  0.168000D+01           1.0000000
            D    1   1.00
                  0.380000D+00           1.0000000
            F    1   1.00
                  0.540000D+00           1.0000000
            ****
            -P     0
            S    8   1.00
                  0.116416D+06           0.230715D-03
                  0.174500D+05           0.178960D-02
                  0.397149D+04           0.932116D-02
                  0.112447D+04           0.380591D-01
                  0.366347D+03           0.125148D+00
                  0.131757D+03           0.310022D+00
                  0.506988D+02           0.500000D+00
                  0.199436D+02           0.347528D+00
            S    3   1.00
                  0.101878D+03          -0.446755D-01
                  0.308249D+02          -0.196376D+00
                  0.573688D+01           0.500000D+00
            S    2   1.00
                  0.296868D+01           0.500000D+00
                  0.135315D+01           0.355098D+00
            S    1   1.00
                  0.332196D+00           1.0000000
            S    1   1.00
                  0.116229D+00           1.0000000
            P    7   1.00
                  0.873928D+03           0.112375D-02
                  0.207298D+03           0.933330D-02
                  0.664628D+02           0.477213D-01
                  0.245665D+02           0.160733D+00
                  0.996820D+01           0.359760D+00
                  0.416536D+01           0.500000D+00
                  0.173022D+01           0.346593D+00
            P    2   1.00
                  0.772530D+01          -0.175718D-01
                  0.657252D+00           0.500000D+00
            P    1   1.00
                  0.239903D+00           1.0000000
            P    1   1.00
                  0.800988D-01           1.0000000
            D    1   1.00
                  0.189000D+01           1.0000000
            D    1   1.00
                  0.430000D+00           1.0000000
            F    1   1.00
                  0.600000D+00           1.0000000
            ****
            
 Initial command:
 /usr/local/apps/g16_b01_avx/g16/l1.exe "/wrk/irikura/Gau-26812.inp" -scrdir="/wrk/irikura/"
 Entering Link 1 = /usr/local/apps/g16_b01_avx/g16/l1.exe PID=     26814.
  
 Copyright (c) 1988-2017, Gaussian, Inc.  All Rights Reserved.
  
 This is part of the Gaussian(R) 16 program.  It is based on
 the Gaussian(R) 09 system (copyright 2009, Gaussian, Inc.),
 the Gaussian(R) 03 system (copyright 2003, Gaussian, Inc.),
 the Gaussian(R) 98 system (copyright 1998, Gaussian, Inc.),
 the Gaussian(R) 94 system (copyright 1995, Gaussian, Inc.),
 the Gaussian 92(TM) system (copyright 1992, Gaussian, Inc.),
 the Gaussian 90(TM) system (copyright 1990, Gaussian, Inc.),
 the Gaussian 88(TM) system (copyright 1988, Gaussian, Inc.),
 the Gaussian 86(TM) system (copyright 1986, Carnegie Mellon
 University), and the Gaussian 82(TM) system (copyright 1983,
 Carnegie Mellon University). Gaussian is a federally registered
 trademark of Gaussian, Inc.
  
 This software contains proprietary and confidential information,
 including trade secrets, belonging to Gaussian, Inc.
  
 This software is provided under written license and may be
 used, copied, transmitted, or stored only in accord with that
 written license.
  
 The following legend is applicable only to US Government
 contracts under FAR:
  
                    RESTRICTED RIGHTS LEGEND
  
 Use, reproduction and disclosure by the US Government is
 subject to restrictions as set forth in subparagraphs (a)
 and (c) of the Commercial Computer Software - Restricted
 Rights clause in FAR 52.227-19.
  
 Gaussian, Inc.
 340 Quinnipiac St., Bldg. 40, Wallingford CT 06492
  
  
 ---------------------------------------------------------------
 Warning -- This program may not be used in any manner that
 competes with the business of Gaussian, Inc. or will provide
 assistance to any competitor of Gaussian, Inc.  The licensee
 of this program is prohibited from giving any competitor of
 Gaussian, Inc. access to this program.  By using this program,
 the user acknowledges that Gaussian, Inc. is engaged in the
 business of creating and licensing software in the field of
 computational chemistry and represents and warrants to the
 licensee that it is not a competitor of Gaussian, Inc. and that
 it will not use this program in any manner prohibited above.
 ---------------------------------------------------------------
  

 Cite this work as:
 Gaussian 16, Revision B.01,
 M. J. Frisch, G. W. Trucks, H. B. Schlegel, G. E. Scuseria, 
 M. A. Robb, J. R. Cheeseman, G. Scalmani, V. Barone, 
 G. A. Petersson, H. Nakatsuji, X. Li, M. Caricato, A. V. Marenich, 
 J. Bloino, B. G. Janesko, R. Gomperts, B. Mennucci, H. P. Hratchian, 
 J. V. Ortiz, A. F. Izmaylov, J. L. Sonnenberg, D. Williams-Young, 
 F. Ding, F. Lipparini, F. Egidi, J. Goings, B. Peng, A. Petrone, 
 T. Henderson, D. Ranasinghe, V. G. Zakrzewski, J. Gao, N. Rega, 
 G. Zheng, W. Liang, M. Hada, M. Ehara, K. Toyota, R. Fukuda, 
 J. Hasegawa, M. Ishida, T. Nakajima, Y. Honda, O. Kitao, H. Nakai, 
 T. Vreven, K. Throssell, J. A. Montgomery, Jr., J. E. Peralta, 
 F. Ogliaro, M. J. Bearpark, J. J. Heyd, E. N. Brothers, K. N. Kudin, 
 V. N. Staroverov, T. A. Keith, R. Kobayashi, J. Normand, 
 K. Raghavachari, A. P. Rendell, J. C. Burant, S. S. Iyengar, 
 J. Tomasi, M. Cossi, J. M. Millam, M. Klene, C. Adamo, R. Cammi, 
 J. W. Ochterski, R. L. Martin, K. Morokuma, O. Farkas, 
 J. B. Foresman, and D. J. Fox, Gaussian, Inc., Wallingford CT, 2016.
 
 ******************************************
 Gaussian 16:  ES64L-G16RevB.01 20-Dec-2017
                21-Jun-2022 
 ******************************************
 %mem=1000mw
 %nprocs=12
 Will use up to   12 processors via shared memory.
 --------------------
 # b3lyp/gen opt freq
 --------------------
 1/18=20,19=15,26=3,38=1/1,3;
 2/9=110,12=2,17=6,18=5,40=1/2;
 3/5=7,11=2,25=1,30=1,71=1,74=-5/1,2,3;
 4//1;
 5/5=2,38=5/2;
 6/7=2,8=2,9=2,10=2,28=1/1;
 7//1,2,3,16;
 1/18=20,19=15,26=3/3(2);
 2/9=110/2;
 99//99;
 2/9=110/2;
 3/5=7,6=1,11=2,25=1,30=1,71=1,74=-5,82=7/1,2,3;
 4/5=5,16=3,69=1/1;
 5/5=2,38=5/2;
 7//1,2,3,16;
 1/18=20,19=15,26=3/3(-5);
 2/9=110/2;
 6/7=2,8=2,9=2,10=2,19=2,28=1/1;
 99/9=1/99;
 ----------------------------
 1-methylallyl, B3LYP/pcseg-2
 ----------------------------
 Symbolic Z-matrix:
 Charge =  0 Multiplicity = 2
 C                     1.35505  -1.41823   0. 
 C                     0.14976  -0.74412   0. 
 C                     0.        0.63148   0. 
 C                    -1.31263   1.34063   0. 
 H                     2.29712  -0.88291   0. 
 H                     1.39621  -2.49883   0. 
 H                    -0.75976  -1.34214   0. 
 H                     0.89637   1.24642   0. 
 H                    -2.14869   0.63865   0. 
 H                    -1.41714   1.99014   0.87676 
 H                    -1.41714   1.99014  -0.87676 
 

 GradGradGradGradGradGradGradGradGradGradGradGradGradGradGradGradGradGrad
 Berny optimization.
 Initialization pass.
                           ----------------------------
                           !    Initial Parameters    !
                           ! (Angstroms and Degrees)  !
 --------------------------                            --------------------------
 ! Name  Definition              Value          Derivative Info.                !
 --------------------------------------------------------------------------------
 ! R1    R(1,2)                  1.381          estimate D2E/DX2                !
 ! R2    R(1,5)                  1.0835         estimate D2E/DX2                !
 ! R3    R(1,6)                  1.0814         estimate D2E/DX2                !
 ! R4    R(2,3)                  1.3837         estimate D2E/DX2                !
 ! R5    R(2,7)                  1.0885         estimate D2E/DX2                !
 ! R6    R(3,4)                  1.4919         estimate D2E/DX2                !
 ! R7    R(3,8)                  1.087          estimate D2E/DX2                !
 ! R8    R(4,9)                  1.0917         estimate D2E/DX2                !
 ! R9    R(4,10)                 1.0961         estimate D2E/DX2                !
 ! R10   R(4,11)                 1.0961         estimate D2E/DX2                !
 ! A1    A(2,1,5)              121.1753         estimate D2E/DX2                !
 ! A2    A(2,1,6)              121.3993         estimate D2E/DX2                !
 ! A3    A(5,1,6)              117.4254         estimate D2E/DX2                !
 ! A4    A(1,2,3)              125.431          estimate D2E/DX2                !
 ! A5    A(1,2,7)              117.4563         estimate D2E/DX2                !
 ! A6    A(3,2,7)              117.1127         estimate D2E/DX2                !
 ! A7    A(2,3,4)              124.5935         estimate D2E/DX2                !
 ! A8    A(2,3,8)              118.2387         estimate D2E/DX2                !
 ! A9    A(4,3,8)              117.1678         estimate D2E/DX2                !
 ! A10   A(3,4,9)              111.6018         estimate D2E/DX2                !
 ! A11   A(3,4,10)             111.4408         estimate D2E/DX2                !
 ! A12   A(3,4,11)             111.4408         estimate D2E/DX2                !
 ! A13   A(9,4,10)             107.9389         estimate D2E/DX2                !
 ! A14   A(9,4,11)             107.9389         estimate D2E/DX2                !
 ! A15   A(10,4,11)            106.2358         estimate D2E/DX2                !
 ! D1    D(5,1,2,3)              0.0            estimate D2E/DX2                !
 ! D2    D(5,1,2,7)            180.0            estimate D2E/DX2                !
 ! D3    D(6,1,2,3)            180.0            estimate D2E/DX2                !
 ! D4    D(6,1,2,7)              0.0            estimate D2E/DX2                !
 ! D5    D(1,2,3,4)            180.0            estimate D2E/DX2                !
 ! D6    D(1,2,3,8)              0.0            estimate D2E/DX2                !
 ! D7    D(7,2,3,4)              0.0            estimate D2E/DX2                !
 ! D8    D(7,2,3,8)            180.0            estimate D2E/DX2                !
 ! D9    D(2,3,4,9)              0.0            estimate D2E/DX2                !
 ! D10   D(2,3,4,10)           120.7572         estimate D2E/DX2                !
 ! D11   D(2,3,4,11)          -120.7572         estimate D2E/DX2                !
 ! D12   D(8,3,4,9)            180.0            estimate D2E/DX2                !
 ! D13   D(8,3,4,10)           -59.2428         estimate D2E/DX2                !
 ! D14   D(8,3,4,11)            59.2428         estimate D2E/DX2                !
 --------------------------------------------------------------------------------
 Trust Radius=3.00D-01 FncErr=1.00D-07 GrdErr=1.00D-06 EigMax=2.50D+02 EigMin=1.00D-04
 Number of steps in this run=     49 maximum allowed number of steps=    100.
 GradGradGradGradGradGradGradGradGradGradGradGradGradGradGradGradGradGrad

                          Input orientation:                          
 ---------------------------------------------------------------------
 Center     Atomic      Atomic             Coordinates (Angstroms)
 Number     Number       Type             X           Y           Z
 ---------------------------------------------------------------------
      1          6           0        1.355047   -1.418232    0.000000
      2          6           0        0.149755   -0.744121    0.000000
      3          6           0        0.000000    0.631477    0.000000
      4          6           0       -1.312630    1.340633    0.000000
      5          1           0        2.297124   -0.882912    0.000000
      6          1           0        1.396207   -2.498834    0.000000
      7          1           0       -0.759758   -1.342144    0.000000
      8          1           0        0.896369    1.246424    0.000000
      9          1           0       -2.148690    0.638652    0.000000
     10          1           0       -1.417143    1.990141    0.876761
     11          1           0       -1.417143    1.990141   -0.876761
 ---------------------------------------------------------------------
                    Distance matrix (angstroms):
                    1          2          3          4          5
     1  C    0.000000
     2  C    1.380998   0.000000
     3  C    2.457124   1.383726   0.000000
     4  C    3.837686   2.546521   1.491945   0.000000
     5  H    1.083548   2.151850   2.751391   4.239632   0.000000
     6  H    1.081386   2.152362   3.427571   4.698862   1.850096
     7  H    2.116173   1.088506   2.114808   2.739153   3.091184
     8  H    2.703845   2.125959   1.087031   2.211007   2.548762
     9  H    4.062874   2.682333   2.148702   1.091684   4.698981
    10  H    4.480039   3.271096   2.150110   1.096127   4.776916
    11  H    4.480039   3.271096   2.150110   1.096127   4.776916
                    6          7          8          9         10
     6  H    0.000000
     7  H    2.446654   0.000000
     8  H    3.778465   3.073018   0.000000
     9  H    4.733932   2.419232   3.105120   0.000000
    10  H    5.369781   3.507847   2.583440   1.769292   0.000000
    11  H    5.369781   3.507847   2.583440   1.769292   1.753522
                   11
    11  H    0.000000
 Stoichiometry    C4H7(2)
 Framework group  CS[SG(C4H5),X(H2)]
 Deg. of freedom    18
 Full point group                 CS      NOp   2
 Largest Abelian subgroup         CS      NOp   2
 Largest concise Abelian subgroup CS      NOp   2
                         Standard orientation:                         
 ---------------------------------------------------------------------
 Center     Atomic      Atomic             Coordinates (Angstroms)
 Number     Number       Type             X           Y           Z
 ---------------------------------------------------------------------
      1          6           0        1.355047   -1.418232    0.000000
      2          6           0        0.149755   -0.744121    0.000000
      3          6           0        0.000000    0.631477    0.000000
      4          6           0       -1.312630    1.340633    0.000000
      5          1           0        2.297124   -0.882912    0.000000
      6          1           0        1.396207   -2.498834    0.000000
      7          1           0       -0.759758   -1.342144    0.000000
      8          1           0        0.896369    1.246424    0.000000
      9          1           0       -2.148690    0.638651    0.000000
     10          1           0       -1.417143    1.990141    0.876761
     11          1           0       -1.417143    1.990141   -0.876761
 ---------------------------------------------------------------------
 Rotational constants (GHZ):          38.3227780           4.0043762           3.7079734
 General basis read from cards:  (5D, 7F)
 There are   166 symmetry adapted cartesian basis functions of A'  symmetry.
 There are    79 symmetry adapted cartesian basis functions of A"  symmetry.
 There are   144 symmetry adapted basis functions of A'  symmetry.
 There are    74 symmetry adapted basis functions of A"  symmetry.
   218 basis functions,   330 primitive gaussians,   245 cartesian basis functions
    16 alpha electrons       15 beta electrons
       nuclear repulsion energy       109.2468790957 Hartrees.
 NAtoms=   11 NActive=   11 NUniq=   10 SFac= 1.21D+00 NAtFMM=   60 NAOKFM=F Big=F
 Integral buffers will be    131072 words long.
 Raffenetti 2 integral format.
 Two-electron integral symmetry is turned on.
 One-electron integrals computed using PRISM.
 NBasis=   218 RedAO= T EigKep=  2.10D-04  NBF=   144    74
 NBsUse=   218 1.00D-06 EigRej= -1.00D+00 NBFU=   144    74
 ExpMin= 7.42D-02 ExpMax= 7.32D+03 ExpMxC= 2.50D+02 IAcc=3 IRadAn=         5 AccDes= 0.00D+00
 Harris functional with IExCor=  402 and IRadAn=       5 diagonalized for initial guess.
 HarFok:  IExCor=  402 AccDes= 0.00D+00 IRadAn=         5 IDoV= 1 UseB2=F ITyADJ=14
 ICtDFT=  3500011 ScaDFX=  1.000000  1.000000  1.000000  1.000000
 FoFCou: FMM=F IPFlag=           0 FMFlag=      100000 FMFlg1=           0
         NFxFlg=           0 DoJE=T BraDBF=F KetDBF=T FulRan=T
         wScrn=  0.000000 ICntrl=       500 IOpCl=  0 I1Cent=   200000004 NGrid=           0
         NMat0=    1 NMatS0=      1 NMatT0=    0 NMatD0=    1 NMtDS0=    0 NMtDT0=    0
 Petite list used in FoFCou.
 Initial guess orbital symmetries:
 Alpha Orbitals:
       Occupied  (A') (A') (A') (A') (A') (A') (A') (A') (A') (A')
                 (A") (A') (A') (A') (A") (A")
       Virtual   (A") (A') (A') (A') (A") (A') (A') (A') (A') (A")
                 (A') (A') (A") (A') (A') (A') (A') (A") (A') (A")
                 (A') (A') (A") (A') (A') (A') (A') (A') (A') (A')
                 (A') (A') (A') (A') (A") (A") (A") (A") (A') (A')
                 (A') (A") (A') (A') (A") (A') (A') (A") (A') (A')
                 (A") (A') (A') (A") (A') (A") (A') (A') (A") (A')
                 (A") (A") (A') (A") (A') (A') (A") (A') (A') (A")
                 (A') (A") (A') (A') (A') (A") (A') (A') (A') (A")
                 (A') (A') (A") (A') (A') (A') (A') (A') (A') (A')
                 (A') (A') (A") (A') (A') (A') (A") (A") (A') (A")
                 (A') (A') (A") (A") (A") (A') (A") (A') (A") (A')
                 (A') (A') (A") (A') (A') (A') (A") (A') (A") (A')
                 (A") (A') (A') (A") (A") (A') (A") (A") (A') (A")
                 (A') (A') (A") (A") (A') (A') (A") (A') (A') (A')
                 (A") (A') (A') (A") (A") (A') (A") (A') (A") (A')
                 (A") (A") (A") (A') (A') (A") (A") (A') (A') (A")
                 (A') (A') (A") (A') (A') (A") (A") (A') (A') (A')
                 (A') (A") (A') (A") (A') (A') (A') (A') (A") (A')
                 (A') (A") (A') (A') (A") (A') (A') (A") (A") (A')
                 (A") (A') (A') (A') (A') (A") (A') (A') (A') (A')
                 (A') (A')
 Beta  Orbitals:
       Occupied  (A') (A') (A') (A') (A') (A') (A') (A') (A') (A')
                 (A") (A') (A') (A') (A")
       Virtual   (A") (A") (A') (A') (A') (A") (A') (A') (A') (A')
                 (A") (A') (A') (A") (A') (A') (A') (A') (A") (A')
                 (A") (A') (A') (A") (A') (A') (A') (A') (A') (A')
                 (A') (A') (A') (A') (A') (A") (A") (A") (A") (A')
                 (A') (A') (A") (A') (A') (A") (A') (A') (A") (A')
                 (A') (A") (A') (A') (A") (A') (A") (A') (A') (A")
                 (A') (A") (A") (A') (A") (A') (A') (A") (A') (A')
                 (A") (A') (A") (A') (A') (A') (A") (A') (A') (A')
                 (A") (A') (A') (A") (A') (A') (A') (A') (A') (A')
                 (A') (A') (A') (A") (A') (A') (A') (A") (A") (A')
                 (A") (A') (A') (A") (A") (A") (A') (A") (A') (A")
                 (A') (A') (A') (A") (A') (A') (A') (A") (A') (A")
                 (A') (A") (A') (A') (A") (A") (A') (A") (A") (A')
                 (A") (A') (A') (A") (A") (A') (A') (A") (A') (A')
                 (A') (A") (A') (A') (A") (A") (A') (A") (A') (A")
                 (A') (A") (A") (A") (A') (A') (A") (A") (A') (A')
                 (A") (A') (A') (A") (A') (A') (A") (A") (A') (A')
                 (A') (A') (A") (A') (A") (A') (A') (A') (A') (A")
                 (A') (A') (A") (A') (A') (A") (A') (A') (A") (A")
                 (A') (A") (A') (A') (A') (A') (A") (A') (A') (A')
                 (A') (A') (A')
 The electronic state of the initial guess is 2-A".
 Initial guess <Sx>= 0.0000 <Sy>= 0.0000 <Sz>= 0.5000 <S**2>= 0.7500 S= 0.5000
 Keep R1 and R2 ints in memory in symmetry-blocked form, NReq=432368027.
 Requested convergence on RMS density matrix=1.00D-08 within 128 cycles.
 Requested convergence on MAX density matrix=1.00D-06.
 Requested convergence on             energy=1.00D-06.
 No special actions if energy rises.
 Integral accuracy reduced to 1.0D-05 until final iterations.
 Initial convergence to 1.0D-05 achieved.  Increase integral accuracy.
 SCF Done:  E(UB3LYP) =  -156.647764422     A.U. after   15 cycles
            NFock= 15  Conv=0.32D-08     -V/T= 2.0045
 <Sx>= 0.0000 <Sy>= 0.0000 <Sz>= 0.5000 <S**2>= 0.7765 S= 0.5132
 <L.S>=  0.00000000000    
 Annihilation of the first spin contaminant:
 S**2 before annihilation     0.7765,   after     0.7502

 **********************************************************************

            Population analysis using the SCF Density.

 **********************************************************************

 Orbital symmetries:
 Alpha Orbitals:
       Occupied  (A') (A') (A') (A') (A') (A') (A') (A') (A') (A')
                 (A") (A') (A') (A') (A") (A")
       Virtual   (A') (A") (A') (A') (A") (A') (A') (A') (A') (A")
                 (A') (A") (A') (A') (A') (A") (A') (A') (A") (A')
                 (A') (A') (A') (A') (A") (A') (A') (A') (A') (A')
                 (A') (A') (A') (A') (A") (A") (A") (A") (A') (A')
                 (A') (A") (A') (A') (A") (A') (A") (A') (A') (A")
                 (A') (A') (A") (A') (A") (A') (A') (A') (A") (A')
                 (A") (A') (A") (A") (A') (A') (A") (A') (A') (A')
                 (A") (A") (A') (A') (A') (A") (A') (A') (A') (A")
                 (A') (A') (A") (A') (A') (A') (A') (A') (A') (A')
                 (A') (A') (A') (A") (A') (A') (A") (A") (A') (A")
                 (A') (A') (A") (A") (A") (A') (A") (A') (A") (A')
                 (A') (A') (A") (A') (A') (A') (A") (A") (A') (A")
                 (A') (A') (A") (A') (A") (A') (A") (A") (A') (A")
                 (A') (A') (A") (A') (A") (A') (A') (A") (A') (A')
                 (A") (A') (A') (A") (A") (A') (A") (A') (A") (A")
                 (A') (A") (A') (A") (A') (A") (A') (A") (A') (A")
                 (A') (A") (A') (A') (A") (A') (A") (A') (A') (A')
                 (A') (A") (A') (A") (A') (A') (A') (A') (A") (A')
                 (A') (A") (A') (A') (A") (A') (A') (A") (A") (A')
                 (A") (A') (A') (A') (A') (A") (A') (A') (A') (A')
                 (A') (A')
 Beta  Orbitals:
       Occupied  (A') (A') (A') (A') (A') (A') (A') (A') (A') (A')
                 (A") (A') (A') (A') (A")
       Virtual   (A") (A') (A') (A') (A") (A") (A') (A') (A') (A')
                 (A") (A') (A') (A") (A') (A') (A') (A") (A') (A")
                 (A') (A') (A') (A') (A') (A") (A') (A') (A') (A')
                 (A') (A') (A') (A') (A') (A") (A") (A") (A") (A')
                 (A') (A') (A") (A') (A') (A") (A') (A") (A') (A')
                 (A") (A') (A') (A') (A") (A') (A") (A') (A') (A")
                 (A') (A") (A') (A") (A") (A') (A') (A") (A') (A')
                 (A') (A") (A") (A') (A') (A') (A") (A') (A') (A')
                 (A") (A') (A') (A") (A') (A') (A') (A') (A') (A')
                 (A') (A') (A') (A') (A") (A') (A') (A") (A") (A')
                 (A") (A') (A') (A") (A") (A") (A') (A") (A') (A")
                 (A') (A') (A') (A") (A') (A') (A') (A") (A") (A')
                 (A") (A') (A') (A") (A') (A") (A') (A") (A") (A')
                 (A") (A') (A') (A") (A') (A") (A') (A') (A") (A')
                 (A') (A") (A') (A') (A") (A") (A') (A") (A') (A")
                 (A') (A") (A") (A') (A") (A') (A") (A') (A") (A')
                 (A") (A') (A') (A") (A') (A') (A") (A") (A') (A')
                 (A') (A') (A") (A') (A") (A') (A') (A') (A') (A")
                 (A') (A') (A") (A') (A') (A") (A') (A') (A") (A')
                 (A") (A") (A') (A') (A') (A') (A") (A') (A') (A')
                 (A') (A') (A')
 The electronic state is 2-A".
 Alpha  occ. eigenvalues --  -10.18269 -10.17292 -10.17228 -10.17133  -0.80891
 Alpha  occ. eigenvalues --   -0.73611  -0.63646  -0.55520  -0.46273  -0.45747
 Alpha  occ. eigenvalues --   -0.42331  -0.38618  -0.37841  -0.35529  -0.31520
 Alpha  occ. eigenvalues --   -0.19001
 Alpha virt. eigenvalues --    0.02160   0.02675   0.03709   0.03802   0.07641
 Alpha virt. eigenvalues --    0.07829   0.08719   0.10710   0.13464   0.16033
 Alpha virt. eigenvalues --    0.16758   0.18863   0.19066   0.21319   0.23271
 Alpha virt. eigenvalues --    0.24429   0.25732   0.27899   0.30853   0.30917
 Alpha virt. eigenvalues --    0.32944   0.33266   0.34537   0.34824   0.34878
 Alpha virt. eigenvalues --    0.36957   0.38224   0.40124   0.45478   0.49713
 Alpha virt. eigenvalues --    0.51793   0.52733   0.57943   0.58733   0.62158
 Alpha virt. eigenvalues --    0.68571   0.77006   0.77424   0.79364   0.87997
 Alpha virt. eigenvalues --    0.89876   0.91307   0.93846   0.96535   0.97211
 Alpha virt. eigenvalues --    0.99071   0.99836   1.00708   1.03692   1.07307
 Alpha virt. eigenvalues --    1.08253   1.09009   1.11502   1.11555   1.14238
 Alpha virt. eigenvalues --    1.14491   1.18552   1.20623   1.24610   1.25947
 Alpha virt. eigenvalues --    1.27264   1.29892   1.30533   1.34649   1.37300
 Alpha virt. eigenvalues --    1.41542   1.43202   1.47906   1.51465   1.55761
 Alpha virt. eigenvalues --    1.56193   1.61528   1.61594   1.68806   1.71016
 Alpha virt. eigenvalues --    1.71148   1.74870   1.75783   1.79005   1.79254
 Alpha virt. eigenvalues --    1.83933   1.87864   1.88306   1.94210   1.98141
 Alpha virt. eigenvalues --    2.09549   2.11345   2.13353   2.24826   2.32269
 Alpha virt. eigenvalues --    2.41188   2.49883   2.53120   2.53500   2.64839
 Alpha virt. eigenvalues --    2.80215   2.96876   3.00041   3.08652   3.15961
 Alpha virt. eigenvalues --    3.21520   3.25214   3.25618   3.27071   3.31933
 Alpha virt. eigenvalues --    3.34298   3.36962   3.40276   3.43694   3.46191
 Alpha virt. eigenvalues --    3.49602   3.54826   3.59601   3.61901   3.70618
 Alpha virt. eigenvalues --    3.71755   3.74768   3.81653   3.81995   3.84847
 Alpha virt. eigenvalues --    3.85716   3.91011   3.95053   3.97951   3.99916
 Alpha virt. eigenvalues --    4.01677   4.03511   4.06760   4.11316   4.11873
 Alpha virt. eigenvalues --    4.15189   4.17403   4.17948   4.20298   4.20663
 Alpha virt. eigenvalues --    4.24008   4.26035   4.27776   4.30500   4.31604
 Alpha virt. eigenvalues --    4.33148   4.36630   4.36957   4.38382   4.41783
 Alpha virt. eigenvalues --    4.42654   4.43445   4.47187   4.49802   4.51306
 Alpha virt. eigenvalues --    4.51687   4.53339   4.55141   4.55863   4.60457
 Alpha virt. eigenvalues --    4.63243   4.66484   4.66585   4.70539   4.73154
 Alpha virt. eigenvalues --    4.80310   4.86545   4.86926   4.88754   4.91881
 Alpha virt. eigenvalues --    4.92341   4.95008   5.01627   5.05380   5.15300
 Alpha virt. eigenvalues --    5.18568   5.19206   5.22326   5.28834   5.31803
 Alpha virt. eigenvalues --    5.35321   5.37368   5.39177   5.44461   5.50084
 Alpha virt. eigenvalues --    5.55606   5.55641   5.57513   5.65229   5.68738
 Alpha virt. eigenvalues --    5.74364   5.76808   5.77295   5.82196   5.82266
 Alpha virt. eigenvalues --    5.85760   5.90643   5.92158   6.02723   6.07942
 Alpha virt. eigenvalues --    6.13387   6.13583   6.15796   6.27446   6.35886
 Alpha virt. eigenvalues --    6.81373   7.03904
  Beta  occ. eigenvalues --  -10.17587 -10.17333 -10.17186 -10.16343  -0.79800
  Beta  occ. eigenvalues --   -0.72699  -0.62090  -0.54923  -0.45751  -0.45343
  Beta  occ. eigenvalues --   -0.41277  -0.38389  -0.37327  -0.35286  -0.28804
  Beta virt. eigenvalues --   -0.07714   0.02216   0.03832   0.03910   0.04598
  Beta virt. eigenvalues --    0.07752   0.07977   0.08758   0.10811   0.13524
  Beta virt. eigenvalues --    0.16075   0.16802   0.19367   0.20907   0.21559
  Beta virt. eigenvalues --    0.23543   0.25982   0.26450   0.28162   0.31235
  Beta virt. eigenvalues --    0.32076   0.33372   0.33554   0.34776   0.35104
  Beta virt. eigenvalues --    0.35153   0.37354   0.38582   0.40760   0.45848
  Beta virt. eigenvalues --    0.50070   0.51959   0.52935   0.58551   0.58957
  Beta virt. eigenvalues --    0.62852   0.69883   0.77382   0.78722   0.79558
  Beta virt. eigenvalues --    0.88050   0.90117   0.91957   0.93944   0.96651
  Beta virt. eigenvalues --    0.97466   0.99284   1.00797   1.01705   1.04573
  Beta virt. eigenvalues --    1.07637   1.08586   1.09256   1.11776   1.12386
  Beta virt. eigenvalues --    1.14784   1.15466   1.18570   1.21062   1.25794
  Beta virt. eigenvalues --    1.26221   1.28718   1.30309   1.32589   1.38459
  Beta virt. eigenvalues --    1.38861   1.41848   1.44368   1.48235   1.51661
  Beta virt. eigenvalues --    1.56400   1.57506   1.62199   1.62223   1.69087
  Beta virt. eigenvalues --    1.71714   1.71832   1.75583   1.76206   1.79159
  Beta virt. eigenvalues --    1.80757   1.84307   1.88270   1.89292   1.94631
  Beta virt. eigenvalues --    1.98510   2.10057   2.11877   2.13777   2.25280
  Beta virt. eigenvalues --    2.32728   2.41548   2.50310   2.53726   2.54000
  Beta virt. eigenvalues --    2.65517   2.80630   2.97869   3.01013   3.09324
  Beta virt. eigenvalues --    3.17426   3.21926   3.25276   3.26200   3.27558
  Beta virt. eigenvalues --    3.33444   3.34926   3.38849   3.41161   3.44218
  Beta virt. eigenvalues --    3.46935   3.49993   3.54958   3.60416   3.63459
  Beta virt. eigenvalues --    3.71266   3.73572   3.75473   3.82024   3.83651
  Beta virt. eigenvalues --    3.85188   3.86606   3.91674   3.95333   3.98532
  Beta virt. eigenvalues --    4.01435   4.02034   4.04273   4.08307   4.11979
  Beta virt. eigenvalues --    4.12680   4.15573   4.17835   4.19255   4.21592
  Beta virt. eigenvalues --    4.22540   4.24884   4.26623   4.29684   4.31679
  Beta virt. eigenvalues --    4.32428   4.34603   4.36989   4.37275   4.38807
  Beta virt. eigenvalues --    4.42246   4.43069   4.43981   4.47286   4.50078
  Beta virt. eigenvalues --    4.51815   4.52334   4.53771   4.55184   4.56353
  Beta virt. eigenvalues --    4.60670   4.63596   4.66909   4.67618   4.71046
  Beta virt. eigenvalues --    4.73791   4.80486   4.87209   4.87357   4.89082
  Beta virt. eigenvalues --    4.92700   4.93104   4.96582   5.01798   5.05529
  Beta virt. eigenvalues --    5.15689   5.18919   5.20016   5.22481   5.29942
  Beta virt. eigenvalues --    5.32196   5.35517   5.37511   5.39294   5.45457
  Beta virt. eigenvalues --    5.50237   5.55815   5.56659   5.57983   5.65325
  Beta virt. eigenvalues --    5.69835   5.74615   5.77193   5.77585   5.82492
  Beta virt. eigenvalues --    5.82711   5.86090   5.90749   5.92363   6.03194
  Beta virt. eigenvalues --    6.08354   6.13690   6.13813   6.16100   6.27638
  Beta virt. eigenvalues --    6.36105   6.81573   7.04285
          Condensed to atoms (all electrons):
               1          2          3          4          5          6
     1  C    4.894823   0.511209  -0.106890   0.007222   0.434706   0.428997
     2  C    0.511209   4.741963   0.522874  -0.049630  -0.052280  -0.037312
     3  C   -0.106890   0.522874   5.053655   0.323558  -0.006312   0.008539
     4  C    0.007222  -0.049630   0.323558   4.539899   0.000415  -0.000717
     5  H    0.434706  -0.052280  -0.006312   0.000415   0.601197  -0.030631
     6  H    0.428997  -0.037312   0.008539  -0.000717  -0.030631   0.589454
     7  H   -0.036095   0.432388  -0.051998  -0.004090   0.007182  -0.007828
     8  H   -0.002839  -0.046749   0.429839  -0.034160   0.003159   0.000307
     9  H    0.000874  -0.000565  -0.050927   0.429782   0.000012  -0.000031
    10  H   -0.000246   0.001027  -0.048145   0.421321  -0.000028   0.000029
    11  H   -0.000246   0.001027  -0.048145   0.421321  -0.000028   0.000029
               7          8          9         10         11
     1  C   -0.036095  -0.002839   0.000874  -0.000246  -0.000246
     2  C    0.432388  -0.046749  -0.000565   0.001027   0.001027
     3  C   -0.051998   0.429839  -0.050927  -0.048145  -0.048145
     4  C   -0.004090  -0.034160   0.429782   0.421321   0.421321
     5  H    0.007182   0.003159   0.000012  -0.000028  -0.000028
     6  H   -0.007828   0.000307  -0.000031   0.000029   0.000029
     7  H    0.631524   0.006165   0.004803   0.000169   0.000169
     8  H    0.006165   0.614464   0.006618  -0.003002  -0.003002
     9  H    0.004803   0.006618   0.635243  -0.024733  -0.024733
    10  H    0.000169  -0.003002  -0.024733   0.658552  -0.042045
    11  H    0.000169  -0.003002  -0.024733  -0.042045   0.658552
          Atomic-Atomic Spin Densities.
               1          2          3          4          5          6
     1  C    0.738394  -0.025648  -0.064170   0.000739   0.008482   0.012596
     2  C   -0.025648  -0.218691   0.009559   0.000270  -0.003250  -0.006882
     3  C   -0.064170   0.009559   0.744426  -0.026415   0.000800  -0.001204
     4  C    0.000739   0.000270  -0.026415  -0.036970  -0.000359   0.000074
     5  H    0.008482  -0.003250   0.000800  -0.000359  -0.034640   0.004240
     6  H    0.012596  -0.006882  -0.001204   0.000074   0.004240  -0.036503
     7  H    0.000470  -0.002068   0.002038  -0.000400  -0.000505   0.000866
     8  H    0.001243  -0.001297   0.008363   0.000234   0.000710  -0.000173
     9  H    0.000017   0.000766  -0.001335   0.001170   0.000010  -0.000010
    10  H    0.000811   0.000082  -0.022406   0.008791   0.000002  -0.000000
    11  H    0.000811   0.000082  -0.022406   0.008791   0.000002  -0.000000
               7          8          9         10         11
     1  C    0.000470   0.001243   0.000017   0.000811   0.000811
     2  C   -0.002068  -0.001297   0.000766   0.000082   0.000082
     3  C    0.002038   0.008363  -0.001335  -0.022406  -0.022406
     4  C   -0.000400   0.000234   0.001170   0.008791   0.008791
     5  H   -0.000505   0.000710   0.000010   0.000002   0.000002
     6  H    0.000866  -0.000173  -0.000010  -0.000000  -0.000000
     7  H    0.007403  -0.000248  -0.000001   0.000000   0.000000
     8  H   -0.000248  -0.033165  -0.000303   0.000103   0.000103
     9  H   -0.000001  -0.000303   0.001032   0.000024   0.000024
    10  H    0.000000   0.000103   0.000024   0.061625  -0.020463
    11  H    0.000000   0.000103   0.000024  -0.020463   0.061625
 Mulliken charges and spin densities:
               1          2
     1  C   -0.131514   0.673747
     2  C   -0.023952  -0.247077
     3  C   -0.026051   0.627251
     4  C   -0.054922  -0.044075
     5  H    0.042608  -0.024507
     6  H    0.049164  -0.026997
     7  H    0.017610   0.007555
     8  H    0.029199  -0.024429
     9  H    0.023656   0.001394
    10  H    0.037100   0.028569
    11  H    0.037100   0.028569
 Sum of Mulliken charges =  -0.00000   1.00000
 Mulliken charges and spin densities with hydrogens summed into heavy atoms:
               1          2
     1  C   -0.039742   0.622243
     2  C   -0.006342  -0.239522
     3  C    0.003149   0.602822
     4  C    0.042935   0.014457
 Electronic spatial extent (au):  <R**2>=            371.0851
 Charge=             -0.0000 electrons
 Dipole moment (field-independent basis, Debye):
    X=             -0.3808    Y=              0.4421    Z=             -0.0000  Tot=              0.5835
 Quadrupole moment (field-independent basis, Debye-Ang):
   XX=            -25.1324   YY=            -24.7170   ZZ=            -28.7908
   XY=              0.3008   XZ=              0.0000   YZ=              0.0000
 Traceless Quadrupole moment (field-independent basis, Debye-Ang):
   XX=              1.0810   YY=              1.4964   ZZ=             -2.5774
   XY=              0.3008   XZ=              0.0000   YZ=              0.0000
 Octapole moment (field-independent basis, Debye-Ang**2):
  XXX=              0.7645  YYY=             -1.1236  ZZZ=             -0.0000  XYY=             -0.3127
  XXY=              0.2314  XXZ=              0.0000  XZZ=             -2.3846  YZZ=              3.1025
  YYZ=             -0.0000  XYZ=              0.0000
 Hexadecapole moment (field-independent basis, Debye-Ang**3):
 XXXX=           -218.3556 YYYY=           -254.2364 ZZZZ=            -42.2244 XXXY=             87.7520
 XXXZ=              0.0000 YYYX=             81.4569 YYYZ=              0.0000 ZZZX=              0.0000
 ZZZY=             -0.0000 XXYY=            -80.9414 XXZZ=            -47.3741 YYZZ=            -53.0308
 XXYZ=              0.0000 YYXZ=              0.0000 ZZXY=             29.5549
 N-N= 1.092468790957D+02 E-N=-5.810777204790D+02  KE= 1.559468618743D+02
 Symmetry A'   KE= 1.507111761057D+02
 Symmetry A"   KE= 5.235685768607D+00
 Symmetry A'   SP=-3.592923815114D-15
 Symmetry A"   SP= 1.000000000000D+00
                          Isotropic Fermi Contact Couplings
        Atom                 a.u.       MegaHertz       Gauss      10(-4) cm-1
     1  C(13)              0.08166      91.79859      32.75602      30.62071
     2  C(13)             -0.05165     -58.06841     -20.72025     -19.36954
     3  C(13)              0.08076      90.79274      32.39711      30.28520
     4  C(13)             -0.02260     -25.40765      -9.06608      -8.47508
     5  H(1)              -0.00866     -38.69847     -13.80858     -12.90842
     6  H(1)              -0.00926     -41.37848     -14.76487     -13.80238
     7  H(1)               0.00258      11.51412       4.10852       3.84070
     8  H(1)              -0.00855     -38.21870     -13.63738     -12.74839
     9  H(1)               0.00041       1.81969       0.64931       0.60698
    10  H(1)               0.01600      71.53837      25.52667      23.86263
    11  H(1)               0.01600      71.53837      25.52667      23.86263
 --------------------------------------------------------
       Center         ----  Spin Dipole Couplings  ----
                      3XX-RR        3YY-RR        3ZZ-RR
 --------------------------------------------------------
     1   Atom       -0.374026     -0.362804      0.736830
     2   Atom        0.093565      0.111320     -0.204885
     3   Atom       -0.372067     -0.378539      0.750606
     4   Atom        0.001864     -0.008695      0.006830
     5   Atom        0.021259     -0.020766     -0.000493
     6   Atom       -0.047508      0.044794      0.002714
     7   Atom        0.001743      0.008488     -0.010230
     8   Atom        0.014227     -0.012457     -0.001770
     9   Atom        0.010107     -0.005630     -0.004477
    10   Atom        0.002087      0.001680     -0.003767
    11   Atom        0.002087      0.001680     -0.003767
 --------------------------------------------------------
                        XY            XZ            YZ
 --------------------------------------------------------
     1   Atom        0.000722      0.000000     -0.000000
     2   Atom       -0.020246     -0.000000      0.000000
     3   Atom       -0.001480      0.000000      0.000000
     4   Atom       -0.007533      0.000000     -0.000000
     5   Atom        0.035290      0.000000      0.000000
     6   Atom       -0.002497     -0.000000      0.000000
     7   Atom       -0.006410      0.000000     -0.000000
     8   Atom        0.038812     -0.000000     -0.000000
     9   Atom       -0.000393     -0.000000      0.000000
    10   Atom       -0.007094     -0.003511      0.004888
    11   Atom       -0.007094      0.003511     -0.004888
 --------------------------------------------------------


 ---------------------------------------------------------------------------------
              Anisotropic Spin Dipole Couplings in Principal Axis System
 ---------------------------------------------------------------------------------

       Atom             a.u.   MegaHertz   Gauss  10(-4) cm-1        Axes

              Baa    -0.3741   -50.197   -17.912   -16.744  0.9980 -0.0639  0.0000
     1 C(13)  Bbb    -0.3628   -48.679   -17.370   -16.237  0.0639  0.9980 -0.0000
              Bcc     0.7368    98.875    35.281    32.981  0.0000  0.0000  1.0000
 
              Baa    -0.2049   -27.494    -9.810    -9.171  0.0000  0.0000  1.0000
     2 C(13)  Bbb     0.0803    10.780     3.847     3.596  0.8371  0.5470 -0.0000
              Bcc     0.1245    16.713     5.964     5.575 -0.5470  0.8371 -0.0000
 
              Baa    -0.3789   -50.840   -18.141   -16.958  0.2129  0.9771  0.0000
     3 C(13)  Bbb    -0.3717   -49.884   -17.800   -16.640  0.9771 -0.2129 -0.0000
              Bcc     0.7506   100.724    35.941    33.598  0.0000  0.0000  1.0000
 
              Baa    -0.0126    -1.693    -0.604    -0.565  0.4615  0.8871  0.0000
     4 C(13)  Bbb     0.0058     0.776     0.277     0.259  0.8871 -0.4615 -0.0000
              Bcc     0.0068     0.917     0.327     0.306  0.0000 -0.0000  1.0000
 
              Baa    -0.0408   -21.782    -7.772    -7.266 -0.4942  0.8694 -0.0000
     5 H(1)   Bbb    -0.0005    -0.263    -0.094    -0.088  0.0000  0.0000  1.0000
              Bcc     0.0413    22.045     7.866     7.354  0.8694  0.4942  0.0000
 
              Baa    -0.0476   -25.384    -9.058    -8.467  0.9996  0.0270  0.0000
     6 H(1)   Bbb     0.0027     1.448     0.517     0.483  0.0000  0.0000  1.0000
              Bcc     0.0449    23.936     8.541     7.984 -0.0270  0.9996  0.0000
 
              Baa    -0.0102    -5.458    -1.948    -1.821  0.0000  0.0000  1.0000
     7 H(1)   Bbb    -0.0021    -1.135    -0.405    -0.379  0.8560  0.5169 -0.0000
              Bcc     0.0124     6.594     2.353     2.199 -0.5169  0.8560 -0.0000
 
              Baa    -0.0402   -21.425    -7.645    -7.147 -0.5809  0.8140  0.0000
     8 H(1)   Bbb    -0.0018    -0.944    -0.337    -0.315  0.0000  0.0000  1.0000
              Bcc     0.0419    22.370     7.982     7.462  0.8140  0.5809 -0.0000
 
              Baa    -0.0056    -3.009    -1.074    -1.004  0.0249  0.9997  0.0000
     9 H(1)   Bbb    -0.0045    -2.389    -0.852    -0.797  0.0000  0.0000  1.0000
              Bcc     0.0101     5.398     1.926     1.801  0.9997 -0.0249  0.0000
 
              Baa    -0.0067    -3.594    -1.283    -1.199 -0.1680 -0.5971  0.7843
    10 H(1)   Bbb    -0.0046    -2.445    -0.872    -0.815  0.7406  0.4486  0.5002
              Bcc     0.0113     6.039     2.155     2.014 -0.6506  0.6649  0.3669
 
              Baa    -0.0067    -3.594    -1.283    -1.199  0.1680  0.5971  0.7843
    11 H(1)   Bbb    -0.0046    -2.445    -0.872    -0.815  0.7406  0.4486 -0.5002
              Bcc     0.0113     6.039     2.155     2.014 -0.6506  0.6649 -0.3669
 

 ---------------------------------------------------------------------------------

 Calling FoFJK, ICntrl=      2127 FMM=F ISym2X=1 I1Cent= 0 IOpClX= 1 NMat=1 NMatS=1 NMatT=0.
 ***** Axes restored to original set *****
 -------------------------------------------------------------------
 Center     Atomic                   Forces (Hartrees/Bohr)
 Number     Number              X              Y              Z
 -------------------------------------------------------------------
      1        6          -0.000287346    0.000063924    0.000000000
      2        6           0.000422580   -0.000156458   -0.000000000
      3        6          -0.000246976    0.000168574    0.000000000
      4        6           0.000165850   -0.000558111    0.000000000
      5        1          -0.000890155   -0.000554226   -0.000000000
      6        1          -0.000030204    0.001175046   -0.000000000
      7        1           0.000766386    0.000599683   -0.000000000
      8        1          -0.000771082   -0.000626217   -0.000000000
      9        1           0.000715890    0.000687687   -0.000000000
     10        1           0.000077528   -0.000399951   -0.000779817
     11        1           0.000077528   -0.000399951    0.000779817
 -------------------------------------------------------------------
 Cartesian Forces:  Max     0.001175046 RMS     0.000481996

 GradGradGradGradGradGradGradGradGradGradGradGradGradGradGradGradGradGrad
 Berny optimization.
 FormGI is forming the generalized inverse of G from B-inverse, IUseBI=4.
 Internal  Forces:  Max     0.001388514 RMS     0.000547595
 Search for a local minimum.
 Step number   1 out of a maximum of   49
 All quantities printed in internal units (Hartrees-Bohrs-Radians)
 Mixed Optimization -- En-DIIS/RFO-DIIS
 Second derivative matrix not updated -- first step.
 ITU=  0
     Eigenvalues ---    0.00873   0.01452   0.02304   0.02322   0.02340
     Eigenvalues ---    0.02340   0.07143   0.07257   0.16000   0.16000
     Eigenvalues ---    0.16000   0.16000   0.16000   0.16000   0.16000
     Eigenvalues ---    0.22000   0.22000   0.33237   0.34114   0.34114
     Eigenvalues ---    0.34619   0.34986   0.35158   0.35569   0.35827
     Eigenvalues ---    0.48427   0.48920
 RFO step:  Lambda=-3.16659642D-05 EMin= 8.72500326D-03
 Linear search not attempted -- first point.
 Iteration  1 RMS(Cart)=  0.00230471 RMS(Int)=  0.00000066
 Iteration  2 RMS(Cart)=  0.00000074 RMS(Int)=  0.00000013
 ClnCor:  largest displacement from symmetrization is 1.24D-10 for atom     1.
 Variable       Old X    -DE/DX   Delta X   Delta X   Delta X     New X
                                 (Linear)    (Quad)   (Total)
    R1        2.60971  -0.00139   0.00000  -0.00284  -0.00284   2.60687
    R2        2.04761  -0.00105   0.00000  -0.00295  -0.00295   2.04466
    R3        2.04352  -0.00118   0.00000  -0.00328  -0.00328   2.04024
    R4        2.61486  -0.00112   0.00000  -0.00232  -0.00232   2.61254
    R5        2.05698  -0.00097   0.00000  -0.00277  -0.00277   2.05421
    R6        2.81937  -0.00123   0.00000  -0.00370  -0.00370   2.81566
    R7        2.05419  -0.00099   0.00000  -0.00282  -0.00282   2.05138
    R8        2.06298  -0.00099   0.00000  -0.00286  -0.00286   2.06012
    R9        2.07138  -0.00087   0.00000  -0.00254  -0.00254   2.06883
   R10        2.07138  -0.00087   0.00000  -0.00254  -0.00254   2.06883
    A1        2.11491   0.00005   0.00000   0.00030   0.00030   2.11521
    A2        2.11882  -0.00001   0.00000  -0.00006  -0.00006   2.11876
    A3        2.04946  -0.00004   0.00000  -0.00024  -0.00024   2.04922
    A4        2.18918   0.00008   0.00000   0.00037   0.00037   2.18955
    A5        2.05000   0.00004   0.00000   0.00033   0.00033   2.05033
    A6        2.04400  -0.00012   0.00000  -0.00070  -0.00070   2.04330
    A7        2.17457  -0.00001   0.00000  -0.00005  -0.00005   2.17451
    A8        2.06365  -0.00008   0.00000  -0.00049  -0.00049   2.06317
    A9        2.04496   0.00009   0.00000   0.00054   0.00054   2.04551
   A10        1.94782   0.00011   0.00000   0.00105   0.00105   1.94887
   A11        1.94501   0.00004   0.00000   0.00006   0.00006   1.94507
   A12        1.94501   0.00004   0.00000   0.00006   0.00006   1.94507
   A13        1.88389  -0.00002   0.00000   0.00018   0.00018   1.88407
   A14        1.88389  -0.00002   0.00000   0.00018   0.00018   1.88407
   A15        1.85416  -0.00015   0.00000  -0.00164  -0.00164   1.85253
    D1        0.00000  -0.00000   0.00000  -0.00000   0.00000   0.00000
    D2        3.14159  -0.00000   0.00000  -0.00000   0.00000   3.14159
    D3        3.14159  -0.00000   0.00000  -0.00000   0.00000   3.14159
    D4        0.00000  -0.00000   0.00000  -0.00000   0.00000   0.00000
    D5        3.14159  -0.00000   0.00000  -0.00000   0.00000   3.14159
    D6        0.00000  -0.00000   0.00000  -0.00000   0.00000   0.00000
    D7        0.00000  -0.00000   0.00000  -0.00000   0.00000   0.00000
    D8        3.14159  -0.00000   0.00000  -0.00000   0.00000   3.14159
    D9        0.00000  -0.00000   0.00000  -0.00000   0.00000   0.00000
   D10        2.10761   0.00007   0.00000   0.00099   0.00099   2.10860
   D11       -2.10761  -0.00007   0.00000  -0.00099  -0.00099  -2.10860
   D12        3.14159  -0.00000   0.00000  -0.00000   0.00000   3.14159
   D13       -1.03398   0.00007   0.00000   0.00099   0.00099  -1.03299
   D14        1.03398  -0.00007   0.00000  -0.00099  -0.00099   1.03299
         Item               Value     Threshold  Converged?
 Maximum Force            0.001389     0.000450     NO 
 RMS     Force            0.000548     0.000300     NO 
 Maximum Displacement     0.006070     0.001800     NO 
 RMS     Displacement     0.002305     0.001200     NO 
 Predicted change in Energy=-1.583302D-05
 GradGradGradGradGradGradGradGradGradGradGradGradGradGradGradGradGradGrad

                          Input orientation:                          
 ---------------------------------------------------------------------
 Center     Atomic      Atomic             Coordinates (Angstroms)
 Number     Number       Type             X           Y           Z
 ---------------------------------------------------------------------
      1          6           0        1.353718   -1.416749    0.000000
      2          6           0        0.149776   -0.743301    0.000000
      3          6           0       -0.000270    0.631031    0.000000
      4          6           0       -1.311433    1.338779    0.000000
      5          1           0        2.294631   -0.882537    0.000000
      6          1           0        1.394685   -2.495622    0.000000
      7          1           0       -0.758744   -1.340164    0.000000
      8          1           0        0.894981    1.244974    0.000000
      9          1           0       -2.146813    0.638345    0.000000
     10          1           0       -1.415697    1.988235    0.875146
     11          1           0       -1.415697    1.988235   -0.875146
 ---------------------------------------------------------------------
                    Distance matrix (angstroms):
                    1          2          3          4          5
     1  C    0.000000
     2  C    1.379496   0.000000
     3  C    2.454931   1.382499   0.000000
     4  C    3.833532   2.543657   1.489985   0.000000
     5  H    1.081989   2.149370   2.749083   4.235321   0.000000
     6  H    1.079650   2.149518   3.423720   4.693155   1.847145
     7  H    2.113850   1.087039   2.112082   2.735361   3.087479
     8  H    2.700965   2.123339   1.085541   2.208407   2.546630
     9  H    4.059203   2.680162   2.146556   1.090170   4.694626
    10  H    4.475428   3.267702   2.147398   1.094780   4.772185
    11  H    4.475428   3.267702   2.147398   1.094780   4.772185
                    6          7          8          9         10
     6  H    0.000000
     7  H    2.443837   0.000000
     8  H    3.773826   3.068834   0.000000
     9  H    4.729055   2.416864   3.101695   0.000000
    10  H    5.363683   3.503670   2.580223   1.767092   0.000000
    11  H    5.363683   3.503670   2.580223   1.767092   1.750292
                   11
    11  H    0.000000
 Stoichiometry    C4H7(2)
 Framework group  CS[SG(C4H5),X(H2)]
 Deg. of freedom    18
 Full point group                 CS      NOp   2
 Largest Abelian subgroup         CS      NOp   2
 Largest concise Abelian subgroup CS      NOp   2
                         Standard orientation:                         
 ---------------------------------------------------------------------
 Center     Atomic      Atomic             Coordinates (Angstroms)
 Number     Number       Type             X           Y           Z
 ---------------------------------------------------------------------
      1          6           0        1.353311   -1.417197    0.000000
      2          6           0        0.149592   -0.743351    0.000000
      3          6           0        0.000000    0.631030    0.000000
      4          6           0       -1.310929    1.339212    0.000000
      5          1           0        2.294401   -0.883296    0.000000
      6          1           0        1.393922   -2.496083    0.000000
      7          1           0       -0.759126   -1.339914    0.000000
      8          1           0        0.895454    1.244677    0.000000
      9          1           0       -2.146541    0.639053    0.000000
     10          1           0       -1.414979    1.988702    0.875146
     11          1           0       -1.414979    1.988702   -0.875146
 ---------------------------------------------------------------------
 Rotational constants (GHZ):          38.4245788           4.0128437           3.7158755
 Basis read from rwf:  (5D, 7F)
 There are   166 symmetry adapted cartesian basis functions of A'  symmetry.
 There are    79 symmetry adapted cartesian basis functions of A"  symmetry.
 There are   144 symmetry adapted basis functions of A'  symmetry.
 There are    74 symmetry adapted basis functions of A"  symmetry.
   218 basis functions,   330 primitive gaussians,   245 cartesian basis functions
    16 alpha electrons       15 beta electrons
       nuclear repulsion energy       109.3719979384 Hartrees.
 NAtoms=   11 NActive=   11 NUniq=   10 SFac= 1.21D+00 NAtFMM=   60 NAOKFM=F Big=F
 Integral buffers will be    131072 words long.
 Raffenetti 2 integral format.
 Two-electron integral symmetry is turned on.
 One-electron integrals computed using PRISM.
 NBasis=   218 RedAO= T EigKep=  2.09D-04  NBF=   144    74
 NBsUse=   218 1.00D-06 EigRej= -1.00D+00 NBFU=   144    74
 Initial guess from the checkpoint file:  "/wrk/irikura/Gau-26814.chk"
 B after Tr=     0.000000    0.000000   -0.000000
         Rot=    1.000000    0.000000   -0.000000    0.000129 Ang=   0.01 deg.
 Initial guess orbital symmetries:
 Alpha Orbitals:
       Occupied  (A') (A') (A') (A') (A') (A') (A') (A') (A') (A')
                 (A") (A') (A') (A') (A") (A")
       Virtual   (A') (A") (A') (A') (A") (A') (A') (A') (A') (A")
                 (A') (A") (A') (A') (A') (A") (A') (A') (A") (A')
                 (A') (A') (A') (A') (A") (A') (A') (A') (A') (A')
                 (A') (A') (A') (A') (A") (A") (A") (A") (A') (A')
                 (A') (A") (A') (A') (A") (A') (A") (A') (A') (A")
                 (A') (A') (A") (A') (A") (A') (A') (A') (A") (A')
                 (A") (A') (A") (A") (A') (A') (A") (A') (A') (A')
                 (A") (A") (A') (A') (A') (A") (A') (A') (A') (A")
                 (A') (A') (A") (A') (A') (A') (A') (A') (A') (A')
                 (A') (A') (A') (A") (A') (A') (A") (A") (A') (A")
                 (A') (A') (A") (A") (A") (A') (A") (A') (A") (A')
                 (A') (A') (A") (A') (A') (A') (A") (A") (A') (A")
                 (A') (A') (A") (A') (A") (A') (A") (A") (A') (A")
                 (A') (A') (A") (A') (A") (A') (A') (A") (A') (A')
                 (A") (A') (A') (A") (A") (A') (A") (A') (A") (A")
                 (A') (A") (A') (A") (A') (A") (A') (A") (A') (A")
                 (A') (A") (A') (A') (A") (A') (A") (A') (A') (A')
                 (A') (A") (A') (A") (A') (A') (A') (A') (A") (A')
                 (A') (A") (A') (A') (A") (A') (A') (A") (A") (A')
                 (A") (A') (A') (A') (A') (A") (A') (A') (A') (A')
                 (A') (A')
 Beta  Orbitals:
       Occupied  (A') (A') (A') (A') (A') (A') (A') (A') (A') (A')
                 (A") (A') (A') (A') (A")
       Virtual   (A") (A') (A') (A') (A") (A") (A') (A') (A') (A')
                 (A") (A') (A') (A") (A') (A') (A') (A") (A') (A")
                 (A') (A') (A') (A') (A') (A") (A') (A') (A') (A')
                 (A') (A') (A') (A') (A') (A") (A") (A") (A") (A')
                 (A') (A') (A") (A') (A') (A") (A') (A") (A') (A')
                 (A") (A') (A') (A') (A") (A') (A") (A') (A') (A")
                 (A') (A") (A') (A") (A") (A') (A') (A") (A') (A')
                 (A') (A") (A") (A') (A') (A') (A") (A') (A') (A')
                 (A") (A') (A') (A") (A') (A') (A') (A') (A') (A')
                 (A') (A') (A') (A') (A") (A') (A') (A") (A") (A')
                 (A") (A') (A') (A") (A") (A") (A') (A") (A') (A")
                 (A') (A') (A') (A") (A') (A') (A') (A") (A") (A')
                 (A") (A') (A') (A") (A') (A") (A') (A") (A") (A')
                 (A") (A') (A') (A") (A') (A") (A') (A') (A") (A')
                 (A') (A") (A') (A') (A") (A") (A') (A") (A') (A")
                 (A') (A") (A") (A') (A") (A') (A") (A') (A") (A')
                 (A") (A') (A') (A") (A') (A') (A") (A") (A') (A')
                 (A') (A') (A") (A') (A") (A') (A') (A') (A') (A")
                 (A') (A') (A") (A') (A') (A") (A') (A') (A") (A')
                 (A") (A") (A') (A') (A') (A') (A") (A') (A') (A')
                 (A') (A') (A')
 Initial guess <Sx>= 0.0000 <Sy>= 0.0000 <Sz>= 0.5000 <S**2>= 0.7765 S= 0.5132
 Keep R1 and R2 ints in memory in symmetry-blocked form, NReq=432368027.
 Requested convergence on RMS density matrix=1.00D-08 within 128 cycles.
 Requested convergence on MAX density matrix=1.00D-06.
 Requested convergence on             energy=1.00D-06.
 No special actions if energy rises.
 SCF Done:  E(UB3LYP) =  -156.647779969     A.U. after    9 cycles
            NFock=  9  Conv=0.31D-08     -V/T= 2.0043
 <Sx>= 0.0000 <Sy>= 0.0000 <Sz>= 0.5000 <S**2>= 0.7763 S= 0.5131
 <L.S>=  0.00000000000    
 Annihilation of the first spin contaminant:
 S**2 before annihilation     0.7763,   after     0.7502
 Calling FoFJK, ICntrl=      2127 FMM=F ISym2X=1 I1Cent= 0 IOpClX= 1 NMat=1 NMatS=1 NMatT=0.
 ***** Axes restored to original set *****
 -------------------------------------------------------------------
 Center     Atomic                   Forces (Hartrees/Bohr)
 Number     Number              X              Y              Z
 -------------------------------------------------------------------
      1        6          -0.000038919   -0.000015347    0.000000000
      2        6           0.000126837   -0.000143866   -0.000000000
      3        6          -0.000200671    0.000208605   -0.000000000
      4        6           0.000138831   -0.000188030   -0.000000000
      5        1           0.000035000   -0.000011389   -0.000000000
      6        1           0.000029743   -0.000031013   -0.000000000
      7        1          -0.000036068   -0.000002182   -0.000000000
      8        1           0.000028198   -0.000000158    0.000000000
      9        1          -0.000006655    0.000039567    0.000000000
     10        1          -0.000038148    0.000071906   -0.000004656
     11        1          -0.000038148    0.000071906    0.000004656
 -------------------------------------------------------------------
 Cartesian Forces:  Max     0.000208605 RMS     0.000077294

 GradGradGradGradGradGradGradGradGradGradGradGradGradGradGradGradGradGrad
 Berny optimization.
 Using GEDIIS/GDIIS optimizer.
 FormGI is forming the generalized inverse of G from B-inverse, IUseBI=4.
 Internal  Forces:  Max     0.000215735 RMS     0.000049295
 Search for a local minimum.
 Step number   2 out of a maximum of   49
 All quantities printed in internal units (Hartrees-Bohrs-Radians)
 Mixed Optimization -- En-DIIS/RFO-DIIS
 Swapping is turned off.
 Update second derivatives using D2CorX and points    1    2
 DE= -1.55D-05 DEPred=-1.58D-05 R= 9.82D-01
 TightC=F SS=  1.41D+00  RLast= 9.62D-03 DXNew= 5.0454D-01 2.8861D-02
 Trust test= 9.82D-01 RLast= 9.62D-03 DXMaxT set to 3.00D-01
 ITU=  1  0
     Eigenvalues ---    0.00873   0.01451   0.02304   0.02322   0.02340
     Eigenvalues ---    0.02340   0.07132   0.07195   0.15778   0.16000
     Eigenvalues ---    0.16000   0.16000   0.16000   0.16000   0.16014
     Eigenvalues ---    0.21886   0.22006   0.32707   0.34114   0.34321
     Eigenvalues ---    0.34502   0.35051   0.35262   0.35645   0.36116
     Eigenvalues ---    0.48556   0.51005
 En-DIIS/RFO-DIIS/Sim-DIIS IScMMF=       -3 using points:     2    1
 RFO step:  Lambda=-3.34935601D-07.
 Use linear search instead of GDIIS.
 RFO step:  Lambda=-3.23698482D-07 EMin= 8.72500326D-03
 Quartic linear search produced a step of -0.01873.
 Iteration  1 RMS(Cart)=  0.00034168 RMS(Int)=  0.00000005
 Iteration  2 RMS(Cart)=  0.00000005 RMS(Int)=  0.00000002
 ClnCor:  largest displacement from symmetrization is 5.83D-11 for atom     1.
 Variable       Old X    -DE/DX   Delta X   Delta X   Delta X     New X
                                 (Linear)    (Quad)   (Total)
    R1        2.60687   0.00005   0.00005   0.00002   0.00007   2.60694
    R2        2.04466   0.00002   0.00006  -0.00002   0.00004   2.04470
    R3        2.04024   0.00003   0.00006  -0.00001   0.00005   2.04030
    R4        2.61254   0.00022   0.00004   0.00037   0.00041   2.61296
    R5        2.05421   0.00003   0.00005   0.00001   0.00006   2.05427
    R6        2.81566  -0.00005   0.00007  -0.00026  -0.00019   2.81547
    R7        2.05138   0.00002   0.00005  -0.00002   0.00004   2.05141
    R8        2.06012  -0.00002   0.00005  -0.00014  -0.00009   2.06003
    R9        2.06883   0.00004   0.00005   0.00005   0.00010   2.06893
   R10        2.06883   0.00004   0.00005   0.00005   0.00010   2.06893
    A1        2.11521   0.00002  -0.00001   0.00012   0.00011   2.11532
    A2        2.11876   0.00002   0.00000   0.00012   0.00012   2.11888
    A3        2.04922  -0.00004   0.00000  -0.00024  -0.00023   2.04898
    A4        2.18955   0.00008  -0.00001   0.00036   0.00035   2.18991
    A5        2.05033  -0.00002  -0.00001  -0.00005  -0.00006   2.05027
    A6        2.04330  -0.00006   0.00001  -0.00031  -0.00030   2.04301
    A7        2.17451   0.00006   0.00000   0.00026   0.00027   2.17478
    A8        2.06317  -0.00005   0.00001  -0.00025  -0.00024   2.06293
    A9        2.04551  -0.00001  -0.00001  -0.00001  -0.00003   2.04548
   A10        1.94887   0.00004  -0.00002   0.00034   0.00032   1.94919
   A11        1.94507   0.00005  -0.00000   0.00028   0.00028   1.94535
   A12        1.94507   0.00005  -0.00000   0.00028   0.00028   1.94535
   A13        1.88407  -0.00003  -0.00000  -0.00011  -0.00012   1.88395
   A14        1.88407  -0.00003  -0.00000  -0.00011  -0.00012   1.88395
   A15        1.85253  -0.00009   0.00003  -0.00075  -0.00072   1.85181
    D1        0.00000   0.00000   0.00000   0.00000   0.00000   0.00000
    D2        3.14159   0.00000   0.00000   0.00000   0.00000   3.14159
    D3        3.14159   0.00000   0.00000   0.00000   0.00000   3.14159
    D4        0.00000   0.00000   0.00000   0.00000   0.00000   0.00000
    D5        3.14159   0.00000   0.00000  -0.00000   0.00000   3.14159
    D6        0.00000   0.00000   0.00000   0.00000   0.00000   0.00000
    D7        0.00000   0.00000   0.00000   0.00000   0.00000   0.00000
    D8        3.14159   0.00000   0.00000   0.00000   0.00000   3.14159
    D9        0.00000   0.00000   0.00000   0.00000   0.00000   0.00000
   D10        2.10860   0.00002  -0.00002   0.00029   0.00027   2.10887
   D11       -2.10860  -0.00002   0.00002  -0.00029  -0.00027  -2.10887
   D12        3.14159  -0.00000   0.00000   0.00000   0.00000   3.14159
   D13       -1.03299   0.00002  -0.00002   0.00029   0.00027  -1.03272
   D14        1.03299  -0.00002   0.00002  -0.00029  -0.00027   1.03272
         Item               Value     Threshold  Converged?
 Maximum Force            0.000216     0.000450     YES
 RMS     Force            0.000049     0.000300     YES
 Maximum Displacement     0.000793     0.001800     YES
 RMS     Displacement     0.000342     0.001200     YES
 Predicted change in Energy=-1.674734D-07
 Optimization completed.
    -- Stationary point found.
                           ----------------------------
                           !   Optimized Parameters   !
                           ! (Angstroms and Degrees)  !
 --------------------------                            --------------------------
 ! Name  Definition              Value          Derivative Info.                !
 --------------------------------------------------------------------------------
 ! R1    R(1,2)                  1.3795         -DE/DX =    0.0001              !
 ! R2    R(1,5)                  1.082          -DE/DX =    0.0                 !
 ! R3    R(1,6)                  1.0797         -DE/DX =    0.0                 !
 ! R4    R(2,3)                  1.3825         -DE/DX =    0.0002              !
 ! R5    R(2,7)                  1.087          -DE/DX =    0.0                 !
 ! R6    R(3,4)                  1.49           -DE/DX =   -0.0001              !
 ! R7    R(3,8)                  1.0855         -DE/DX =    0.0                 !
 ! R8    R(4,9)                  1.0902         -DE/DX =    0.0                 !
 ! R9    R(4,10)                 1.0948         -DE/DX =    0.0                 !
 ! R10   R(4,11)                 1.0948         -DE/DX =    0.0                 !
 ! A1    A(2,1,5)              121.1925         -DE/DX =    0.0                 !
 ! A2    A(2,1,6)              121.3959         -DE/DX =    0.0                 !
 ! A3    A(5,1,6)              117.4116         -DE/DX =    0.0                 !
 ! A4    A(1,2,3)              125.452          -DE/DX =    0.0001              !
 ! A5    A(1,2,7)              117.4753         -DE/DX =    0.0                 !
 ! A6    A(3,2,7)              117.0726         -DE/DX =   -0.0001              !
 ! A7    A(2,3,4)              124.5903         -DE/DX =    0.0001              !
 ! A8    A(2,3,8)              118.2107         -DE/DX =    0.0                 !
 ! A9    A(4,3,8)              117.1989         -DE/DX =    0.0                 !
 ! A10   A(3,4,9)              111.6619         -DE/DX =    0.0                 !
 ! A11   A(3,4,10)             111.4441         -DE/DX =    0.0001              !
 ! A12   A(3,4,11)             111.4441         -DE/DX =    0.0001              !
 ! A13   A(9,4,10)             107.949          -DE/DX =    0.0                 !
 ! A14   A(9,4,11)             107.949          -DE/DX =    0.0                 !
 ! A15   A(10,4,11)            106.142          -DE/DX =   -0.0001              !
 ! D1    D(5,1,2,3)              0.0            -DE/DX =    0.0                 !
 ! D2    D(5,1,2,7)            180.0            -DE/DX =    0.0                 !
[...]
 -------------------------------------------------------------------
      1        6          -0.000038907   -0.000015364    0.000000000
      2        6           0.000126833   -0.000143924   -0.000000000
      3        6          -0.000200724    0.000208715    0.000000000
      4        6           0.000138784   -0.000188002   -0.000000000
      5        1           0.000035034   -0.000011369   -0.000000000
      6        1           0.000029742   -0.000031039    0.000000000
      7        1          -0.000036093   -0.000002200    0.000000000
      8        1           0.000028223   -0.000000151   -0.000000000
      9        1          -0.000006620    0.000039595   -0.000000000
     10        1          -0.000038136    0.000071870   -0.000004700
     11        1          -0.000038136    0.000071870    0.000004700
 -------------------------------------------------------------------
 Cartesian Forces:  Max     0.000208715 RMS     0.000077305
 FormGI is forming the generalized inverse of G from B-inverse, IUseBI=4.

 GradGradGradGradGradGradGradGradGradGradGradGradGradGradGradGradGradGrad
 Berny optimization.
 Internal  Forces:  Max     0.000215838 RMS     0.000049308
 Search for a local minimum.
 Step number   1 out of a maximum of    2
 All quantities printed in internal units (Hartrees-Bohrs-Radians)
 Second derivative matrix not updated -- analytic derivatives used.
 ITU=  0
     Eigenvalues ---    0.00130   0.01338   0.01709   0.01798   0.02403
     Eigenvalues ---    0.02959   0.05574   0.05705   0.10284   0.10890
     Eigenvalues ---    0.11070   0.11943   0.12640   0.13794   0.14150
     Eigenvalues ---    0.16807   0.18448   0.31066   0.32043   0.33189
     Eigenvalues ---    0.33584   0.34322   0.34659   0.35164   0.35905
     Eigenvalues ---    0.36429   0.51903
 Angle between quadratic step and forces=  37.61 degrees.
 Linear search not attempted -- first point.
 Iteration  1 RMS(Cart)=  0.00037719 RMS(Int)=  0.00000010
 Iteration  2 RMS(Cart)=  0.00000009 RMS(Int)=  0.00000005
 ClnCor:  largest displacement from symmetrization is 3.72D-12 for atom     9.
 Variable       Old X    -DE/DX   Delta X   Delta X   Delta X     New X
                                 (Linear)    (Quad)   (Total)
    R1        2.60687   0.00005   0.00000  -0.00008  -0.00008   2.60679
    R2        2.04466   0.00002   0.00000   0.00008   0.00008   2.04475
    R3        2.04024   0.00003   0.00000   0.00009   0.00009   2.04033
    R4        2.61254   0.00022   0.00000   0.00054   0.00054   2.61308
    R5        2.05421   0.00003   0.00000   0.00011   0.00011   2.05432
    R6        2.81566  -0.00005   0.00000  -0.00041  -0.00041   2.81525
    R7        2.05138   0.00002   0.00000   0.00008   0.00008   2.05146
    R8        2.06012  -0.00002   0.00000  -0.00006  -0.00006   2.06006
    R9        2.06883   0.00004   0.00000   0.00019   0.00019   2.06902
   R10        2.06883   0.00004   0.00000   0.00019   0.00019   2.06902
    A1        2.11521   0.00002   0.00000   0.00023   0.00023   2.11543
    A2        2.11876   0.00002   0.00000   0.00013   0.00013   2.11888
    A3        2.04922  -0.00004   0.00000  -0.00035  -0.00035   2.04887
    A4        2.18955   0.00008   0.00000   0.00039   0.00039   2.18994
    A5        2.05033  -0.00002   0.00000  -0.00001  -0.00001   2.05032
    A6        2.04330  -0.00006   0.00000  -0.00038  -0.00038   2.04292
    A7        2.17451   0.00006   0.00000   0.00026   0.00026   2.17477
    A8        2.06317  -0.00005   0.00000  -0.00032  -0.00032   2.06284
    A9        2.04551  -0.00001   0.00000   0.00006   0.00006   2.04557
   A10        1.94887   0.00004   0.00000   0.00048   0.00048   1.94934
   A11        1.94507   0.00005   0.00000   0.00037   0.00037   1.94544
   A12        1.94507   0.00005   0.00000   0.00037   0.00037   1.94544
   A13        1.88407  -0.00003   0.00000  -0.00017  -0.00017   1.88389
   A14        1.88407  -0.00003   0.00000  -0.00017  -0.00017   1.88389
   A15        1.85253  -0.00009   0.00000  -0.00097  -0.00097   1.85156
    D1        0.00000  -0.00000   0.00000  -0.00000   0.00000   0.00000
    D2        3.14159  -0.00000   0.00000  -0.00000   0.00000   3.14159
    D3        3.14159   0.00000   0.00000   0.00000   0.00000   3.14159
    D4        0.00000   0.00000   0.00000   0.00000   0.00000   0.00000
    D5        3.14159  -0.00000   0.00000  -0.00000   0.00000   3.14159
    D6        0.00000  -0.00000   0.00000  -0.00000   0.00000   0.00000
    D7        0.00000  -0.00000   0.00000  -0.00000   0.00000   0.00000
    D8        3.14159  -0.00000   0.00000  -0.00000   0.00000   3.14159
    D9        0.00000   0.00000   0.00000   0.00000   0.00000   0.00000
   D10        2.10860   0.00002   0.00000   0.00037   0.00037   2.10897
   D11       -2.10860  -0.00002   0.00000  -0.00037  -0.00037  -2.10897
   D12        3.14159   0.00000   0.00000   0.00000   0.00000   3.14159
   D13       -1.03299   0.00002   0.00000   0.00037   0.00037  -1.03262
   D14        1.03299  -0.00002   0.00000  -0.00037  -0.00037   1.03262
         Item               Value     Threshold  Converged?
 Maximum Force            0.000216     0.000450     YES
 RMS     Force            0.000049     0.000300     YES
 Maximum Displacement     0.000917     0.001800     YES
 RMS     Displacement     0.000377     0.001200     YES
 Predicted change in Energy=-2.209332D-07
 Optimization completed.
    -- Stationary point found.
                           ----------------------------
                           !   Optimized Parameters   !
                           ! (Angstroms and Degrees)  !
 --------------------------                            --------------------------
 ! Name  Definition              Value          Derivative Info.                !
 --------------------------------------------------------------------------------
 ! R1    R(1,2)                  1.3795         -DE/DX =    0.0001              !
 ! R2    R(1,5)                  1.082          -DE/DX =    0.0                 !
 ! R3    R(1,6)                  1.0797         -DE/DX =    0.0                 !
 ! R4    R(2,3)                  1.3825         -DE/DX =    0.0002              !
 ! R5    R(2,7)                  1.087          -DE/DX =    0.0                 !
 ! R6    R(3,4)                  1.49           -DE/DX =   -0.0001              !
 ! R7    R(3,8)                  1.0855         -DE/DX =    0.0                 !
 ! R8    R(4,9)                  1.0902         -DE/DX =    0.0                 !
 ! R9    R(4,10)                 1.0948         -DE/DX =    0.0                 !
 ! R10   R(4,11)                 1.0948         -DE/DX =    0.0                 !
 ! A1    A(2,1,5)              121.1925         -DE/DX =    0.0                 !
 ! A2    A(2,1,6)              121.3959         -DE/DX =    0.0                 !
 ! A3    A(5,1,6)              117.4116         -DE/DX =    0.0                 !
 ! A4    A(1,2,3)              125.452          -DE/DX =    0.0001              !
 ! A5    A(1,2,7)              117.4753         -DE/DX =    0.0                 !
 ! A6    A(3,2,7)              117.0726         -DE/DX =   -0.0001              !
 ! A7    A(2,3,4)              124.5903         -DE/DX =    0.0001              !
 ! A8    A(2,3,8)              118.2107         -DE/DX =    0.0                 !
 ! A9    A(4,3,8)              117.1989         -DE/DX =    0.0                 !
 ! A10   A(3,4,9)              111.6619         -DE/DX =    0.0                 !
 ! A11   A(3,4,10)             111.4441         -DE/DX =    0.0001              !
 ! A12   A(3,4,11)             111.4441         -DE/DX =    0.0001              !
 ! A13   A(9,4,10)             107.949          -DE/DX =    0.0                 !
 ! A14   A(9,4,11)             107.949          -DE/DX =    0.0                 !
 ! A15   A(10,4,11)            106.142          -DE/DX =   -0.0001              !
 ! D1    D(5,1,2,3)              0.0            -DE/DX =    0.0                 !
 ! D2    D(5,1,2,7)            180.0            -DE/DX =    0.0                 !
 ! D3    D(6,1,2,3)            180.0            -DE/DX =    0.0                 !
 ! D4    D(6,1,2,7)              0.0            -DE/DX =    0.0                 !
 ! D5    D(1,2,3,4)            180.0            -DE/DX =    0.0                 !
 ! D6    D(1,2,3,8)              0.0            -DE/DX =    0.0                 !
 ! D7    D(7,2,3,4)              0.0            -DE/DX =    0.0                 !
 ! D8    D(7,2,3,8)            180.0            -DE/DX =    0.0                 !
 ! D9    D(2,3,4,9)              0.0            -DE/DX =    0.0                 !
 ! D10   D(2,3,4,10)           120.8141         -DE/DX =    0.0                 !
 ! D11   D(2,3,4,11)          -120.8141         -DE/DX =    0.0                 !
 ! D12   D(8,3,4,9)            180.0            -DE/DX =    0.0                 !
 ! D13   D(8,3,4,10)           -59.1859         -DE/DX =    0.0                 !
 ! D14   D(8,3,4,11)            59.1859         -DE/DX =    0.0                 !
 --------------------------------------------------------------------------------
 GradGradGradGradGradGradGradGradGradGradGradGradGradGradGradGradGradGrad


 ----------------------------------------------------------------------

 Electric dipole moment (input orientation):
 (Debye = 10**-18 statcoulomb cm , SI units = C m)
                  (au)            (Debye)         (10**-30 SI)
   Tot        0.230647D+00      0.586247D+00      0.195551D+01
   x         -0.150401D+00     -0.382281D+00     -0.127515D+01
   y          0.174865D+00      0.444463D+00      0.148257D+01
   z          0.000000D+00      0.000000D+00      0.000000D+00

 Dipole polarizability, Alpha (input orientation).
 (esu units = cm**3 , SI units = C**2 m**2 J**-1)
 Alpha(0;0):
               (au)            (10**-24 esu)      (10**-40 SI)
   iso        0.532426D+02      0.788973D+01      0.877851D+01
   aniso      0.397242D+02      0.588652D+01      0.654963D+01
   xx         0.583297D+02      0.864357D+01      0.961727D+01
   yx        -0.166194D+02     -0.246274D+01     -0.274017D+01
   yy         0.658776D+02      0.976205D+01      0.108617D+02
   zx         0.000000D+00      0.000000D+00      0.000000D+00
   zy         0.000000D+00      0.000000D+00      0.000000D+00
   zz         0.355204D+02      0.526357D+01      0.585652D+01

 ----------------------------------------------------------------------

 Dipole orientation:
     6          0.14682910          0.12628716         -3.69789446
     6         -0.53173009         -0.45733905         -1.24948585
     6          0.58923679          0.50680034          0.90440681
     6         -0.17374081         -0.14943381          3.53408073
     1          1.66792396          1.43457512         -4.09197614
     1         -0.81659093         -0.70234679         -5.29407063
     1         -2.07617018         -1.78570616         -0.98507865
     1          2.13522030          1.83649494          0.68082220
     1         -1.73549721         -1.49269462          3.55997367
     1          1.39815306         -0.97880046          4.59303188
     1         -0.75865255          1.52883243          4.59303188

 Electric dipole moment (dipole orientation):
 (Debye = 10**-18 statcoulomb cm , SI units = C m)
                  (au)            (Debye)         (10**-30 SI)
   Tot        0.230647D+00      0.586247D+00      0.195551D+01
   x          0.000000D+00      0.000000D+00      0.000000D+00
   y          0.000000D+00      0.000000D+00      0.000000D+00
   z          0.230647D+00      0.586247D+00      0.195551D+01

 Dipole polarizability, Alpha (dipole orientation).
 (esu units = cm**3 , SI units = C**2 m**2 J**-1)
 Alpha(0;0):
               (au)            (10**-24 esu)      (10**-40 SI)
   iso        0.532426D+02      0.788973D+01      0.877851D+01
   aniso      0.397242D+02      0.588652D+01      0.654963D+01
   xx         0.410305D+02      0.608009D+01      0.676502D+01
   yx         0.473926D+01      0.702286D+00      0.781398D+00
   yy         0.395966D+02      0.586761D+01      0.652859D+01
   zx         0.944303D+00      0.139931D+00      0.155695D+00
   zy         0.812192D+00      0.120354D+00      0.133912D+00
   zz         0.791006D+02      0.117215D+02      0.130419D+02

 ----------------------------------------------------------------------
 1\1\GINC-GAMBA\Freq\UB3LYP\Gen\C4H7(2)\IRIKURA\21-Jun-2022\0\\#N Geom=
 AllCheck Guess=TCheck SCRF=Check GenChk UB3LYP/ChkBas Freq\\1-methylal
 lyl, B3LYP/pcseg-2\\0,2\C,1.3537181704,-1.4167493686,0.\C,0.1497762836
 ,-0.7433011777,0.\C,-0.0002698297,0.6310308996,0.\C,-1.3114325989,1.33
 87793968,0.\H,2.2946312981,-0.8825368839,0.\H,1.3946851943,-2.49562185
 02,0.\H,-0.7587442866,-1.3401638668,0.\H,0.8949809746,1.2449738983,0.\
 H,-2.1468132834,0.6383445141,0.\H,-1.4156969613,1.9882347192,0.8751458
 885\H,-1.4156969613,1.9882347192,-0.8751458885\\Version=ES64L-G16RevB.
 01\State=2-A"\HF=-156.64778\S2=0.776342\S2-1=0.\S2A=0.750154\RMSD=2.04
 2e-09\RMSF=7.731e-05\ZeroPoint=0.0940843\Thermal=0.0993737\Dipole=-0.1
 504009,0.1748652,0.\DipoleDeriv=-0.0139201,0.1371017,0.,0.0791297,0.03
 92916,0.,0.,0.,-0.3247185,0.0348421,0.0439844,0.,0.0668976,0.0211715,0
 .,0.,0.,-0.1433799,0.263599,-0.1588043,0.,-0.056345,0.1435111,0.,0.,0.
 ,-0.2106737,0.0345882,0.0257511,0.,0.1102347,-0.0328682,0.,0.,0.,0.143
 4982,-0.0597104,-0.0241922,0.,-0.0903849,-0.0159636,0.,0.,0.,0.1481151
 ,0.0353672,-0.0131661,0.,0.0269018,-0.0832469,0.,0.,0.,0.1520481,-0.09
 07015,-0.0838989,0.,-0.0645679,0.0129873,0.,0.,0.,0.1366936,-0.1162026
 ,-0.0599767,0.,-0.0260183,-0.0245458,0.,0.,0.,0.1309746,-0.0777547,-0.
 0311236,0.,-0.1261475,-0.0358869,0.,0.,0.,0.0703534,-0.0050535,0.08216
 24,-0.0054882,0.0401499,-0.012225,-0.0894793,0.0439811,-0.1309687,-0.0
 514555,-0.0050535,0.0821624,0.0054882,0.0401499,-0.012225,0.0894793,-0
 .0439811,0.1309687,-0.0514555\Polar=58.329726,-16.619391,65.8775811,0.
 ,0.,35.5203623\Quadrupole=0.8016225,1.1087192,-1.9103417,0.2233785,0.,
 0.\PG=CS [SG(C4H5),X(H2)]\NImag=0\\0.64300833,-0.01107943,0.65578123,0
 .,0.,0.07857938,-0.29264451,0.10053083,0.,0.65798447,0.04312781,-0.135
 11975,0.,0.04281722,0.60634536,0.,0.,-0.04557128,0.,0.,0.12002721,-0.0
 0689383,0.04107494,0.,-0.10543598,0.01699747,0.,0.58156832,0.07164298,
 -0.05531878,0.,-0.04369612,-0.30393991,0.,0.01946927,0.64601637,0.,0.,
 0.00803270,0.,0.,-0.04933736,0.,0.,0.11684366,0.00278974,-0.00309825,0
 .,-0.00466642,0.00970130,0.,-0.19801548,0.05518960,0.,0.50904279,-0.00
 383140,-0.00255485,0.,0.03364596,-0.01801337,0.,0.04643769,-0.11239433
 ,0.,0.04350929,0.53811986,0.,0.,0.00582580,0.,0.,0.00755072,0.,0.,-0.0
 5840722,0.,0.,0.50401720,-0.26548295,-0.11989948,0.,-0.02064535,-0.016
 89403,0.,0.00150681,-0.00164778,0.,0.00020443,0.00041342,0.,0.28300365
 ,-0.12269448,-0.12934287,0.,0.01262647,0.01172776,0.,0.00103205,0.0009
 9064,0.,0.00010147,-0.00005152,0.,0.13089941,0.12654341,0.,0.,-0.02522
 985,0.,0.,0.00331646,0.,0.,-0.00376581,0.,0.,-0.00020737,0.,0.,0.01532
 240,-0.05778292,0.00421217,0.,0.00362836,0.02834934,0.,-0.00463633,0.0
 0150895,0.,0.00046693,0.00111456,0.,0.00391160,-0.02419663,0.,0.053360
 29,0.00882359,-0.34454479,0.,-0.00352673,-0.01013066,0.,0.00292626,0.0
 0055383,0.,-0.00037148,-0.00023985,0.,0.00277265,-0.00909656,0.,-0.011
 18696,0.36237853,0.,0.,-0.02185184,0.,0.,0.00428119,0.,0.,0.00533029,0
 .,0.,-0.00010592,0.,0.,0.00288493,0.,0.,0.01386057,-0.02247617,-0.0168
 4394,0.,-0.23926828,-0.11922209,0.,0.00195348,0.00056415,0.,0.00135585
 ,0.00144883,0.,-0.00302467,0.00291631,0.,0.00131196,0.00038767,0.,0.25
 842749,0.01325734,0.01128664,0.,-0.11858920,-0.13864741,0.,-0.02843584
 ,-0.01659578,0.,-0.00197541,0.00126706,0.,0.00309173,-0.00066945,0.,-0
 .00034548,0.00094928,0.,0.13010416,0.14688011,0.,0.,0.00420766,0.,0.,-
 0.04248688,0.,0.,0.00462020,0.,0.,-0.00422695,0.,0.,0.00752684,0.,0.,-
 0.00445306,0.,0.,0.02776831,0.00082219,0.00142033,0.,0.00371163,0.0012
 4433,0.,-0.23886924,-0.12567729,0.,-0.01852296,-0.01627697,0.,0.000296
 15,-0.00057897,0.,0.00014742,-0.00004746,0.,0.00087923,0.00111493,0.,0
 .25391632,-0.00120783,0.00157012,0.,-0.02872010,-0.01624305,0.,-0.1233
 1014,-0.14296659,0.,0.01352084,0.01055300,0.,0.00124034,0.00008447,0.,
 0.00036763,0.00031914,0.,0.00103909,-0.00515655,0.,0.13523966,0.151897
 76,0.,0.,-0.00332552,0.,0.,0.00480363,0.,0.,-0.03070506,0.,0.,0.002296
 39,0.,0.,0.00008394,0.,0.,-0.00021944,0.,0.,0.00679835,0.,0.,0.0175828
 2,-0.00014899,0.00070961,0.,0.00224875,-0.00309030,0.,-0.02491822,-0.0
 1968552,0.,-0.19706252,-0.12738906,0.,0.00029341,-0.00010918,0.,0.0000
 4052,0.00004493,0.,0.00056240,0.00148026,0.,-0.00359177,0.00349730,0.,
 0.21756449,0.00028815,0.00015050,0.,0.00134516,0.00153244,0.,0.0126147
 7,0.01137724,0.,-0.13043415,-0.15967058,0.,-0.00010589,-0.00015980,0.,
 -0.00012041,0.00002127,0.,-0.00049231,0.00018695,0.,0.00310414,-0.0010
 1377,0.,0.14016457,0.17178426,0.,0.,-0.00017903,0.,0.,-0.00054090,0.,0
 .,-0.00087310,0.,0.,-0.04717245,0.,0.,0.00004889,0.,0.,0.00001438,0.,0
 .,0.00018837,0.,0.,0.00192797,0.,0.,0.04502641,-0.00059545,0.00148661,
 -0.00088833,-0.00245634,-0.00151553,0.00033953,-0.00312976,0.02116588,
 0.02167312,-0.04779618,0.01046385,0.01934743,-0.00003154,0.00000177,0.
 00003275,-0.00022392,0.00008876,-0.00002662,0.00013935,0.00014875,0.00
 024795,0.00060552,-0.00083339,-0.00086509,0.00250597,-0.01318202,-0.02
 035520,0.05055620,0.00083664,-0.00095372,0.00076362,0.00178325,0.00124
 430,-0.00047702,0.00559677,-0.01386134,-0.01004111,0.00692840,-0.12850
 771,-0.12084429,0.00006481,-0.00001304,-0.00001325,0.00014842,-0.00010
 510,0.00003068,0.00004907,0.00024957,-0.00067323,0.00022865,0.00047774
 ,0.00048523,0.00218869,-0.01210426,-0.01664196,-0.01609083,0.14253368,
 0.00038491,-0.00033504,-0.00024401,-0.00045288,0.00160043,-0.00102139,
 0.00187737,0.00046361,0.00413085,0.01518946,-0.11959130,-0.20478510,0.
 00000834,-0.00000771,0.00000979,0.00001560,0.00000223,0.00012945,-0.00
 002025,0.00004427,0.00002857,0.00056017,-0.00025311,0.00037846,-0.0008
 8847,0.00125251,0.00077973,-0.01808989,0.13211772,0.22461696,-0.000595
 45,0.00148661,0.00088833,-0.00245634,-0.00151553,-0.00033953,-0.003129
 76,0.02116588,-0.02167312,-0.04779618,0.01046385,-0.01934743,-0.000031
 54,0.00000177,-0.00003275,-0.00022392,0.00008876,0.00002662,0.00013935
 ,0.00014875,-0.00024795,0.00060552,-0.00083339,0.00086509,0.00250597,-
 0.01318202,0.02035520,0.00042616,-0.00173385,0.00141564,0.05055620,0.0
 0083664,-0.00095372,-0.00076362,0.00178325,0.00124430,0.00047702,0.005
 59677,-0.01386134,0.01004111,0.00692840,-0.12850771,0.12084429,0.00006
 481,-0.00001304,0.00001325,0.00014842,-0.00010510,-0.00003068,0.000049
 07,0.00024957,0.00067323,0.00022865,0.00047774,-0.00048523,0.00218869,
 -0.01210426,0.01664196,-0.00173385,0.01103988,-0.01529361,-0.01609083,
 0.14253368,-0.00038491,0.00033504,-0.00024401,0.00045288,-0.00160043,-
 0.00102139,-0.00187737,-0.00046361,0.00413085,-0.01518946,0.11959130,-
 0.20478510,-0.00000834,0.00000771,0.00000979,-0.00001560,-0.00000223,0
 .00012945,0.00002025,-0.00004427,0.00002857,-0.00056017,0.00025311,0.0
 0037846,0.00088847,-0.00125251,0.00077973,-0.00141564,0.01529361,-0.02
 402330,0.01808989,-0.13211772,0.22461696\\0.00003891,0.00001536,0.,-0.
 00012683,0.00014392,0.,0.00020072,-0.00020871,0.,-0.00013878,0.0001880
 0,0.,-0.00003503,0.00001137,0.,-0.00002974,0.00003104,0.,0.00003609,0.
 00000220,0.,-0.00002822,0.00000015,0.,0.00000662,-0.00003960,0.,0.0000
 3814,-0.00007187,0.00000470,0.00003814,-0.00007187,-0.00000470\\\@


 A people that values its privileges above its principles soon loses both.
 -- Dwight D. Eisenhower
 Job cpu time:       0 days  0 hours 27 minutes 44.7 seconds.
 Elapsed time:       0 days  0 hours  2 minutes 19.5 seconds.
 File lengths (MBytes):  RWF=     76 Int=      0 D2E=      0 Chk=      6 Scr=      1
 Normal termination of Gaussian 16 at Tue Jun 21 10:28:46 2022.
