 Entering Gaussian System, Link 0=g16
 AtFile(1): pcseg2.gbs
            -H     0
            S   4   1.00
                  0.754732D+02           0.427821D-02
                  0.113575D+02           0.328672D-01
                  0.260081D+01           0.159578D+00
                  0.735503D+00           0.500000D+00
            S   1   1.00
                  0.231761D+00           1.0000000
            S   1   1.00
                  0.741675D-01           1.0000000
            P   1   1.00
                  0.160000D+01           1.0000000
            P   1   1.00
                  0.450000D+00           1.0000000
            D   1   1.00
                  0.125000D+01           1.0000000
            ****
            -C     0
            S   7   1.00
                  0.731999D+04           0.695369D-03
                  0.109818D+04           0.537138D-02
                  0.250014D+03           0.274734D-01
                  0.707586D+02           0.105078D+00
                  0.228595D+02           0.291262D+00
                  0.803936D+01           0.500000D+00
                  0.289309D+01           0.362224D+00
            S   2   1.00
                  0.521640D+01          -0.957844D-01
                  0.556124D+00           0.500000D+00
            S   1   1.00
                  0.228813D+00           1.0000000
            S   1   1.00
                  0.936338D-01           1.0000000
            P   4   1.00
                  0.339855D+02           0.818395D-02
                  0.772957D+01           0.586921D-01
                  0.224954D+01           0.222514D+00
                  0.767681D+00           0.500000D+00
            P   1   1.00
                  0.263283D+00           1.0000000
            P   1   1.00
                  0.848744D-01           1.0000000
            D   1   1.00
                  0.140000D+01           1.0000000
            D   1   1.00
                  0.450000D+00           1.0000000
            F   1   1.00
                  0.950000D+00           1.0000000
            ****
            -O     0
            S   7   1.00
                  0.135887D+05           0.665492D-03
                  0.203847D+04           0.514222D-02
                  0.464041D+03           0.263472D-01
                  0.131339D+03           0.101500D+00
                  0.425340D+02           0.285877D+00
                  0.150429D+02           0.500000D+00
                  0.546616D+01           0.368211D+00
            S   2   1.00
                  0.100915D+02          -0.100084D+00
                  0.110429D+01           0.500000D+00
            S   1   1.00
                  0.448082D+00           1.0000000
            S   1   1.00
                  0.175325D+00           1.0000000
            P   4   1.00
                  0.608220D+02           0.908253D-02
                  0.140332D+02           0.645878D-01
                  0.418244D+01           0.241502D+00
                  0.142490D+01           0.500000D+00
            P   1   1.00
                  0.478741D+00           1.0000000
            P   1   1.00
                  0.146257D+00           1.0000000
            D   1   1.00
                  0.220000D+01           1.0000000
            D   1   1.00
                  0.650000D+00           1.0000000
            F   1   1.00
                  0.110000D+01           1.0000000
            ****
            -N     0
            S   7   1.00
                  0.101643D+05           0.682757D-03
                  0.152481D+04           0.527488D-02
                  0.347119D+03           0.270037D-01
                  0.982389D+02           0.103673D+00
                  0.317799D+02           0.289575D+00
                  0.112240D+02           0.500000D+00
                  0.406611D+01           0.364621D+00
            S   2   1.00
                  0.747898D+01          -0.975681D-01
                  0.805040D+00           0.500000D+00
            S   1   1.00
                  0.324626D+00           1.0000000
            S   1   1.00
                  0.128132D+00           1.0000000
            P   4   1.00
                  0.482704D+02           0.829547D-02
                  0.110815D+02           0.596223D-01
                  0.326643D+01           0.227889D+00
                  0.111680D+01           0.500000D+00
            P   1   1.00
                  0.382049D+00           1.0000000
            P   1   1.00
                  0.121222D+00           1.0000000
            D   1   1.00
                  0.180000D+01           1.0000000
            D   1   1.00
                  0.550000D+00           1.0000000
            F   1   1.00
                  0.102000D+01           1.0000000
            ****
            -F     0
            S   7   1.00
                  0.174507D+05           0.655972D-03
                  0.261768D+04           0.506944D-02
                  0.595857D+03           0.259899D-01
                  0.168651D+03           0.100353D+00
                  0.546654D+02           0.284095D+00
                  0.193717D+02           0.500000D+00
                  0.706202D+01           0.370721D+00
            S   2   1.00
                  0.131197D+02          -0.101997D+00
                  0.145046D+01           0.500000D+00
            S   1   1.00
                  0.588255D+00           1.0000000
            S   1   1.00
                  0.227960D+00           1.0000000
            P   4   1.00
                  0.779407D+02           0.931135D-02
                  0.180425D+02           0.663964D-01
                  0.542342D+01           0.246386D+00
                  0.184876D+01           0.500000D+00
            P   1   1.00
                  0.617455D+00           1.0000000
            P   1   1.00
                  0.185496D+00           1.0000000
            D   1   1.00
                  0.280000D+01           1.0000000
            D   1   1.00
                  0.800000D+00           1.0000000
            F   1   1.00
                  0.120000D+01           1.0000000
            ****
            -Cl     0
            S   8   1.00
                  0.154272D+06           0.222473D-03
                  0.231232D+05           0.172590D-02
                  0.526257D+04           0.899286D-02
                  0.148995D+04           0.367724D-01
                  0.485417D+03           0.121446D+00
                  0.174634D+03           0.304148D+00
                  0.672393D+02           0.500000D+00
                  0.265780D+02           0.360252D+00
            S   3   1.00
                  0.131826D+03          -0.531330D-01
                  0.400703D+02          -0.233346D+00
                  0.789448D+01           0.500000D+00
            S   2   1.00
                  0.427711D+01           0.500000D+00
                  0.196233D+01           0.370517D+00
            S   1   1.00
                  0.520793D+00           1.0000000
            S   1   1.00
                  0.181633D+00           1.0000000
            P   7   1.00
                  0.124440D+04           0.988206D-03
                  0.295109D+03           0.829674D-02
                  0.947224D+02           0.430906D-01
                  0.352588D+02           0.148443D+00
                  0.144211D+02           0.344744D+00
                  0.610371D+01           0.500000D+00
                  0.258886D+01           0.348278D+00
            P   2   1.00
                  0.109447D+02          -0.196768D-01
                  0.104413D+01           0.500000D+00
            P   1   1.00
                  0.376184D+00           1.0000000
            P   1   1.00
                  0.120613D+00           1.0000000
            D   1   1.00
                  0.231000D+01           1.0000000
            D   1   1.00
                  0.520000D+00           1.0000000
            F   1   1.00
                  0.720000D+00           1.0000000
            ****
            -S     0
            S   8   1.00
                  0.134700D+06           0.226231D-03
                  0.201904D+05           0.175488D-02
                  0.459528D+04           0.914190D-02
                  0.130109D+04           0.373551D-01
                  0.423902D+03           0.123121D+00
                  0.152485D+03           0.306801D+00
                  0.586925D+02           0.500000D+00
                  0.231461D+02           0.354358D+00
            S   3   1.00
                  0.116327D+03          -0.491772D-01
                  0.352841D+02          -0.215962D+00
                  0.677831D+01           0.500000D+00
            S   2   1.00
                  0.360404D+01           0.500000D+00
                  0.164871D+01           0.366278D+00
            S   1   1.00
                  0.421821D+00           1.0000000
            S   1   1.00
                  0.147554D+00           1.0000000
            P   7   1.00
                  0.104863D+04           0.105273D-02
                  0.248717D+03           0.879338D-02
                  0.797887D+02           0.453358D-01
                  0.296023D+02           0.154476D+00
                  0.120627D+02           0.352366D+00
                  0.507628D+01           0.500000D+00
                  0.213375D+01           0.346429D+00
            P   2   1.00
                  0.928958D+01          -0.185932D-01
                  0.837819D+00           0.500000D+00
            P   1   1.00
                  0.301495D+00           1.0000000
            P   1   1.00
                  0.974740D-01           1.0000000
            D   1   1.00
                  0.210000D+01           1.0000000
            D   1   1.00
                  0.480000D+00           1.0000000
            F   1   1.00
                  0.660000D+00           1.0000000
            ****
            -Br     0
            S    10   1.00
                  0.233625D+07           0.532336D-04
                  0.349961D+06           0.413715D-03
                  0.796444D+05           0.217123D-02
                  0.225555D+05           0.910109D-02
                  0.735546D+04           0.323789D-01
                  0.265352D+04           0.988755D-01
                  0.103517D+04           0.248138D+00
                  0.422205D+03           0.474328D+00
                  0.180035D+03           0.500000D+00
                  0.793308D+02           0.187769D+00
            S    4   1.00
                  0.620834D+03          -0.226511D-01
                  0.190829D+03          -0.109497D+00
                  0.312505D+02           0.500000D+00
                  0.135270D+02           0.492812D+00
            S    2   1.00
                  0.216097D+02          -0.165418D+00
                  0.372566D+01           0.500000D+00
            S    1   1.00
                  0.169770D+01           1.0000000
            S    1   1.00
                  0.489332D+00           1.0000000
            S    1   1.00
                  0.175712D+00           1.0000000
            P    8   1.00
                  0.960829D+04           0.478974D-03
                  0.227618D+04           0.417853D-02
                  0.736723D+03           0.229315D-01
                  0.281579D+03           0.892653D-01
                  0.118395D+03           0.255288D+00
                  0.527481D+02           0.479074D+00
                  0.245098D+02           0.500000D+00
                  0.112009D+02           0.200944D+00
            P    4   1.00
                  0.587849D+02          -0.189674D-01
                  0.918962D+01           0.264104D+00
                  0.413895D+01           0.500000D+00
                  0.184225D+01           0.319316D+00
            P    1   1.00
                  0.713862D+00           1.0000000
            P    1   1.00
                  0.274232D+00           1.0000000
            P    1   1.00
                  0.944411D-01           1.0000000
            D    7   1.00
                  0.398470D+03           0.204066D-02
                  0.118967D+03           0.175171D-01
                  0.450197D+02           0.829708D-01
                  0.190320D+02           0.236284D+00
                  0.855686D+01           0.428468D+00
                  0.382950D+01           0.500000D+00
                  0.166291D+01           0.349360D+00
            D    1   1.00
                  0.672953D+00           1.0000000
            D    1   1.00
                  0.252000D+00           1.0000000
            F    1   1.00
                  0.530000D+00           1.0000000
            ****
            -Si     0
            S    8   1.00
                  0.996133D+05           0.235546D-03
                  0.149311D+05           0.182707D-02
                  0.339820D+04           0.951425D-02
                  0.962140D+03           0.388172D-01
                  0.313430D+03           0.127328D+00
                  0.112683D+03           0.313522D+00
                  0.433372D+02           0.500000D+00
                  0.170029D+02           0.340347D+00
            S    3   1.00
                  0.884208D+02          -0.404451D-01
                  0.266756D+02          -0.178059D+00
                  0.479640D+01           0.500000D+00
            S    2   1.00
                  0.239385D+01           0.500000D+00
                  0.108333D+01           0.338016D+00
            S    1   1.00
                  0.252420D+00           1.0000000
            S    1   1.00
                  0.891210D-01           1.0000000
            P    7   1.00
                  0.709901D+03           0.123028D-02
                  0.168426D+03           0.101366D-01
                  0.539946D+02           0.511840D-01
                  0.198646D+02           0.169967D+00
                  0.801369D+01           0.370717D+00
                  0.331870D+01           0.500000D+00
                  0.136112D+01           0.344128D+00
            P    2   1.00
                  0.622158D+01          -0.166609D-01
                  0.503049D+00           0.500000D+00
            P    1   1.00
                  0.179848D+00           1.0000000
            P    1   1.00
                  0.591912D-01           1.0000000
            D    1   1.00
                  0.168000D+01           1.0000000
            D    1   1.00
                  0.380000D+00           1.0000000
            F    1   1.00
                  0.540000D+00           1.0000000
            ****
            -P     0
            S    8   1.00
                  0.116416D+06           0.230715D-03
                  0.174500D+05           0.178960D-02
                  0.397149D+04           0.932116D-02
                  0.112447D+04           0.380591D-01
                  0.366347D+03           0.125148D+00
                  0.131757D+03           0.310022D+00
                  0.506988D+02           0.500000D+00
                  0.199436D+02           0.347528D+00
            S    3   1.00
                  0.101878D+03          -0.446755D-01
                  0.308249D+02          -0.196376D+00
                  0.573688D+01           0.500000D+00
            S    2   1.00
                  0.296868D+01           0.500000D+00
                  0.135315D+01           0.355098D+00
            S    1   1.00
                  0.332196D+00           1.0000000
            S    1   1.00
                  0.116229D+00           1.0000000
            P    7   1.00
                  0.873928D+03           0.112375D-02
                  0.207298D+03           0.933330D-02
                  0.664628D+02           0.477213D-01
                  0.245665D+02           0.160733D+00
                  0.996820D+01           0.359760D+00
                  0.416536D+01           0.500000D+00
                  0.173022D+01           0.346593D+00
            P    2   1.00
                  0.772530D+01          -0.175718D-01
                  0.657252D+00           0.500000D+00
            P    1   1.00
                  0.239903D+00           1.0000000
            P    1   1.00
                  0.800988D-01           1.0000000
            D    1   1.00
                  0.189000D+01           1.0000000
            D    1   1.00
                  0.430000D+00           1.0000000
            F    1   1.00
                  0.600000D+00           1.0000000
            ****
            
 Initial command:
 /usr/local/apps/g16_b01_avx/g16/l1.exe "/wrk/irikura/Gau-474.inp" -scrdir="/wrk/irikura/"
 Entering Link 1 = /usr/local/apps/g16_b01_avx/g16/l1.exe PID=       478.
  
 Copyright (c) 1988-2017, Gaussian, Inc.  All Rights Reserved.
  
 This is part of the Gaussian(R) 16 program.  It is based on
 the Gaussian(R) 09 system (copyright 2009, Gaussian, Inc.),
 the Gaussian(R) 03 system (copyright 2003, Gaussian, Inc.),
 the Gaussian(R) 98 system (copyright 1998, Gaussian, Inc.),
 the Gaussian(R) 94 system (copyright 1995, Gaussian, Inc.),
 the Gaussian 92(TM) system (copyright 1992, Gaussian, Inc.),
 the Gaussian 90(TM) system (copyright 1990, Gaussian, Inc.),
 the Gaussian 88(TM) system (copyright 1988, Gaussian, Inc.),
 the Gaussian 86(TM) system (copyright 1986, Carnegie Mellon
 University), and the Gaussian 82(TM) system (copyright 1983,
 Carnegie Mellon University). Gaussian is a federally registered
 trademark of Gaussian, Inc.
  
 This software contains proprietary and confidential information,
 including trade secrets, belonging to Gaussian, Inc.
  
 This software is provided under written license and may be
 used, copied, transmitted, or stored only in accord with that
 written license.
  
 The following legend is applicable only to US Government
 contracts under FAR:
  
                    RESTRICTED RIGHTS LEGEND
  
 Use, reproduction and disclosure by the US Government is
 subject to restrictions as set forth in subparagraphs (a)
 and (c) of the Commercial Computer Software - Restricted
 Rights clause in FAR 52.227-19.
  
 Gaussian, Inc.
 340 Quinnipiac St., Bldg. 40, Wallingford CT 06492
  
  
 ---------------------------------------------------------------
 Warning -- This program may not be used in any manner that
 competes with the business of Gaussian, Inc. or will provide
 assistance to any competitor of Gaussian, Inc.  The licensee
 of this program is prohibited from giving any competitor of
 Gaussian, Inc. access to this program.  By using this program,
 the user acknowledges that Gaussian, Inc. is engaged in the
 business of creating and licensing software in the field of
 computational chemistry and represents and warrants to the
 licensee that it is not a competitor of Gaussian, Inc. and that
 it will not use this program in any manner prohibited above.
 ---------------------------------------------------------------
  

 Cite this work as:
 Gaussian 16, Revision B.01,
 M. J. Frisch, G. W. Trucks, H. B. Schlegel, G. E. Scuseria, 
 M. A. Robb, J. R. Cheeseman, G. Scalmani, V. Barone, 
 G. A. Petersson, H. Nakatsuji, X. Li, M. Caricato, A. V. Marenich, 
 J. Bloino, B. G. Janesko, R. Gomperts, B. Mennucci, H. P. Hratchian, 
 J. V. Ortiz, A. F. Izmaylov, J. L. Sonnenberg, D. Williams-Young, 
 F. Ding, F. Lipparini, F. Egidi, J. Goings, B. Peng, A. Petrone, 
 T. Henderson, D. Ranasinghe, V. G. Zakrzewski, J. Gao, N. Rega, 
 G. Zheng, W. Liang, M. Hada, M. Ehara, K. Toyota, R. Fukuda, 
 J. Hasegawa, M. Ishida, T. Nakajima, Y. Honda, O. Kitao, H. Nakai, 
 T. Vreven, K. Throssell, J. A. Montgomery, Jr., J. E. Peralta, 
 F. Ogliaro, M. J. Bearpark, J. J. Heyd, E. N. Brothers, K. N. Kudin, 
 V. N. Staroverov, T. A. Keith, R. Kobayashi, J. Normand, 
 K. Raghavachari, A. P. Rendell, J. C. Burant, S. S. Iyengar, 
 J. Tomasi, M. Cossi, J. M. Millam, M. Klene, C. Adamo, R. Cammi, 
 J. W. Ochterski, R. L. Martin, K. Morokuma, O. Farkas, 
 J. B. Foresman, and D. J. Fox, Gaussian, Inc., Wallingford CT, 2016.
 
 ******************************************
 Gaussian 16:  ES64L-G16RevB.01 20-Dec-2017
                16-Jun-2022 
 ******************************************
 %mem=1000mw
 %nprocs=12
 Will use up to   12 processors via shared memory.
 --------------------
 # b3lyp/gen opt freq
 --------------------
 1/18=20,19=15,26=3,38=1/1,3;
 2/9=110,12=2,17=6,18=5,40=1/2;
 3/5=7,11=2,25=1,30=1,71=1,74=-5/1,2,3;
 4//1;
 5/5=2,38=5/2;
 6/7=2,8=2,9=2,10=2,28=1/1;
 7//1,2,3,16;
 1/18=20,19=15,26=3/3(2);
 2/9=110/2;
 99//99;
 2/9=110/2;
 3/5=7,6=1,11=2,25=1,30=1,71=1,74=-5,82=7/1,2,3;
 4/5=5,16=3,69=1/1;
 5/5=2,38=5/2;
 7//1,2,3,16;
 1/18=20,19=15,26=3/3(-5);
 2/9=110/2;
 6/7=2,8=2,9=2,10=2,19=2,28=1/1;
 99/9=1/99;
 -------------------------
 ethylidyne, B3LYP/pcseg-2
 -------------------------
 Symbolic Z-matrix:
 Charge =  0 Multiplicity = 2
 C                    -0.60092   0.       -0.01412 
 C                     0.84604   0.       -0.01595 
 H                    -0.69537   0.        1.09955 
 H                    -1.11161  -0.90838  -0.37076 
 H                    -1.11161   0.90838  -0.37076 
 

 GradGradGradGradGradGradGradGradGradGradGradGradGradGradGradGradGradGrad
 Berny optimization.
 Initialization pass.
                           ----------------------------
                           !    Initial Parameters    !
                           ! (Angstroms and Degrees)  !
 --------------------------                            --------------------------
 ! Name  Definition              Value          Derivative Info.                !
 --------------------------------------------------------------------------------
 ! R1    R(1,2)                  1.447          estimate D2E/DX2                !
 ! R2    R(1,3)                  1.1177         estimate D2E/DX2                !
 ! R3    R(1,4)                  1.1014         estimate D2E/DX2                !
 ! R4    R(1,5)                  1.1014         estimate D2E/DX2                !
 ! A1    A(2,1,3)               94.9205         estimate D2E/DX2                !
 ! A2    A(2,1,4)              117.5972         estimate D2E/DX2                !
 ! A3    A(2,1,5)              117.5972         estimate D2E/DX2                !
 ! A4    A(3,1,4)              106.4667         estimate D2E/DX2                !
 ! A5    A(3,1,5)              106.4667         estimate D2E/DX2                !
 ! A6    A(4,1,5)              111.1209         estimate D2E/DX2                !
 ! D1    D(2,1,4,3)            104.7992         estimate D2E/DX2                !
 ! D2    D(2,1,5,3)           -104.7992         estimate D2E/DX2                !
 ! D3    D(2,1,5,4)            139.6667         estimate D2E/DX2                !
 ! D4    D(3,1,5,4)           -115.5341         estimate D2E/DX2                !
 --------------------------------------------------------------------------------
 Trust Radius=3.00D-01 FncErr=1.00D-07 GrdErr=1.00D-06 EigMax=2.50D+02 EigMin=1.00D-04
 Number of steps in this run=     24 maximum allowed number of steps=    100.
 GradGradGradGradGradGradGradGradGradGradGradGradGradGradGradGradGradGrad

                          Input orientation:                          
 ---------------------------------------------------------------------
 Center     Atomic      Atomic             Coordinates (Angstroms)
 Number     Number       Type             X           Y           Z
 ---------------------------------------------------------------------
      1          6           0       -0.600917    0.000000   -0.014117
      2          6           0        0.846037    0.000000   -0.015952
      3          1           0       -0.695371    0.000000    1.099554
      4          1           0       -1.111611   -0.908377   -0.370762
      5          1           0       -1.111611    0.908377   -0.370762
 ---------------------------------------------------------------------
                    Distance matrix (angstroms):
                    1          2          3          4          5
     1  C    0.000000
     2  C    1.446955   0.000000
     3  H    1.117669   1.902707   0.000000
     4  H    1.101432   2.187104   1.777705   0.000000
     5  H    1.101432   2.187104   1.777705   1.816754   0.000000
 Stoichiometry    C2H3(2)
 Framework group  CS[SG(C2H),X(H2)]
 Deg. of freedom     6
 Full point group                 CS      NOp   2
 Largest Abelian subgroup         CS      NOp   2
 Largest concise Abelian subgroup CS      NOp   2
                         Standard orientation:                         
 ---------------------------------------------------------------------
 Center     Atomic      Atomic             Coordinates (Angstroms)
 Number     Number       Type             X           Y           Z
 ---------------------------------------------------------------------
      1          6           0        0.026598   -0.504359   -0.000000
      2          6           0        0.026598    0.942596    0.000000
      3          1           0       -1.086953   -0.600225   -0.000000
      4          1           0        0.383890   -1.014600    0.908377
      5          1           0        0.383890   -1.014600   -0.908377
 ---------------------------------------------------------------------
 Rotational constants (GHZ):         159.7169690          29.0421266          28.7739148
 General basis read from cards:  (5D, 7F)
 There are    74 symmetry adapted cartesian basis functions of A'  symmetry.
 There are    41 symmetry adapted cartesian basis functions of A"  symmetry.
 There are    64 symmetry adapted basis functions of A'  symmetry.
 There are    38 symmetry adapted basis functions of A"  symmetry.
   102 basis functions,   156 primitive gaussians,   115 cartesian basis functions
     8 alpha electrons        7 beta electrons
       nuclear repulsion energy        27.2307395267 Hartrees.
 NAtoms=    5 NActive=    5 NUniq=    4 SFac= 1.56D+00 NAtFMM=   60 NAOKFM=F Big=F
 Integral buffers will be    131072 words long.
 Raffenetti 2 integral format.
 Two-electron integral symmetry is turned on.
 One-electron integrals computed using PRISM.
 NBasis=   102 RedAO= T EigKep=  9.33D-04  NBF=    64    38
 NBsUse=   102 1.00D-06 EigRej= -1.00D+00 NBFU=    64    38
 ExpMin= 7.42D-02 ExpMax= 7.32D+03 ExpMxC= 2.50D+02 IAcc=3 IRadAn=         5 AccDes= 0.00D+00
 Harris functional with IExCor=  402 and IRadAn=       5 diagonalized for initial guess.
 HarFok:  IExCor=  402 AccDes= 0.00D+00 IRadAn=         5 IDoV= 1 UseB2=F ITyADJ=14
 ICtDFT=  3500011 ScaDFX=  1.000000  1.000000  1.000000  1.000000
 FoFCou: FMM=F IPFlag=           0 FMFlag=      100000 FMFlg1=           0
         NFxFlg=           0 DoJE=T BraDBF=F KetDBF=T FulRan=T
         wScrn=  0.000000 ICntrl=       500 IOpCl=  0 I1Cent=   200000004 NGrid=           0
         NMat0=    1 NMatS0=      1 NMatT0=    0 NMatD0=    1 NMtDS0=    0 NMtDT0=    0
 Petite list used in FoFCou.
 Initial guess orbital symmetries:
 Alpha Orbitals:
       Occupied  (A') (A') (A') (A') (A") (A') (A') (A")
       Virtual   (A') (A') (A') (A") (A') (A') (A') (A") (A") (A')
                 (A') (A') (A") (A') (A') (A') (A") (A') (A') (A')
                 (A") (A") (A') (A") (A') (A") (A') (A") (A') (A')
                 (A") (A') (A') (A') (A") (A') (A") (A') (A') (A")
                 (A') (A') (A') (A") (A') (A') (A') (A") (A") (A')
                 (A') (A") (A") (A') (A") (A') (A") (A') (A') (A")
                 (A') (A") (A") (A') (A') (A") (A') (A') (A") (A")
                 (A') (A") (A') (A') (A") (A") (A') (A') (A') (A")
                 (A') (A') (A') (A") (A') (A') (A") (A') (A") (A')
                 (A") (A') (A') (A")
 Beta  Orbitals:
       Occupied  (A') (A') (A') (A') (A") (A') (A')
       Virtual   (A") (A') (A') (A') (A") (A') (A') (A') (A") (A")
                 (A') (A') (A') (A") (A') (A') (A') (A") (A') (A')
                 (A') (A") (A") (A') (A") (A') (A") (A') (A") (A')
                 (A') (A") (A') (A') (A') (A") (A') (A") (A') (A')
                 (A") (A') (A') (A') (A") (A') (A') (A') (A") (A")
                 (A') (A') (A") (A") (A') (A") (A') (A") (A') (A')
                 (A") (A') (A") (A") (A') (A') (A") (A') (A') (A")
                 (A") (A') (A") (A') (A') (A") (A") (A') (A') (A')
                 (A") (A') (A') (A') (A") (A') (A') (A") (A') (A")
                 (A') (A") (A') (A') (A")
 The electronic state of the initial guess is 2-A".
 Initial guess <Sx>= 0.0000 <Sy>= 0.0000 <Sz>= 0.5000 <S**2>= 0.7500 S= 0.5000
 Keep R1 and R2 ints in memory in symmetry-blocked form, NReq=25159656.
 Requested convergence on RMS density matrix=1.00D-08 within 128 cycles.
 Requested convergence on MAX density matrix=1.00D-06.
 Requested convergence on             energy=1.00D-06.
 No special actions if energy rises.
 Integral accuracy reduced to 1.0D-05 until final iterations.
 Initial convergence to 1.0D-05 achieved.  Increase integral accuracy.
 SCF Done:  E(UB3LYP) =  -77.8601673998     A.U. after   15 cycles
            NFock= 15  Conv=0.58D-08     -V/T= 2.0044
 <Sx>= 0.0000 <Sy>= 0.0000 <Sz>= 0.5000 <S**2>= 0.7543 S= 0.5021
 <L.S>=  0.00000000000    
 Annihilation of the first spin contaminant:
 S**2 before annihilation     0.7543,   after     0.7500

 **********************************************************************

            Population analysis using the SCF Density.

 **********************************************************************

 Orbital symmetries:
 Alpha Orbitals:
       Occupied  (A') (A') (A') (A') (A") (A') (A') (A")
       Virtual   (A') (A') (A') (A") (A') (A') (A') (A") (A") (A')
                 (A') (A') (A') (A") (A') (A') (A") (A') (A') (A")
                 (A') (A") (A') (A") (A") (A') (A') (A") (A') (A')
                 (A") (A') (A') (A') (A") (A') (A") (A') (A') (A")
                 (A') (A') (A') (A") (A') (A') (A') (A") (A") (A')
                 (A') (A") (A") (A') (A") (A') (A") (A') (A') (A")
                 (A') (A") (A") (A') (A') (A") (A') (A") (A') (A")
                 (A') (A") (A') (A") (A') (A") (A') (A') (A') (A")
                 (A') (A') (A') (A") (A') (A') (A") (A') (A") (A')
                 (A") (A') (A') (A")
 Beta  Orbitals:
       Occupied  (A') (A') (A') (A') (A') (A") (A')
       Virtual   (A') (A") (A') (A') (A") (A') (A') (A') (A") (A')
                 (A") (A') (A') (A') (A") (A') (A') (A") (A') (A')
                 (A") (A') (A") (A') (A") (A') (A") (A') (A") (A')
                 (A') (A') (A") (A') (A') (A") (A') (A") (A') (A')
                 (A") (A') (A') (A') (A") (A') (A') (A') (A") (A")
                 (A') (A') (A") (A") (A') (A") (A') (A") (A') (A')
                 (A") (A') (A") (A") (A') (A') (A") (A') (A') (A")
                 (A") (A') (A") (A') (A") (A') (A") (A') (A') (A')
                 (A") (A') (A') (A') (A") (A') (A') (A") (A') (A")
                 (A') (A") (A') (A') (A")
 The electronic state is 2-A".
 Alpha  occ. eigenvalues --  -10.24037 -10.19901  -0.79281  -0.55763  -0.45760
 Alpha  occ. eigenvalues --   -0.44816  -0.30205  -0.21370
 Alpha virt. eigenvalues --   -0.09903   0.01179   0.05803   0.06365   0.09834
 Alpha virt. eigenvalues --    0.15046   0.17947   0.20258   0.21684   0.22569
 Alpha virt. eigenvalues --    0.29391   0.31175   0.32119   0.32866   0.41090
 Alpha virt. eigenvalues --    0.44679   0.60421   0.68698   0.87184   0.89794
 Alpha virt. eigenvalues --    0.90381   0.92465   0.94873   0.96991   1.03658
 Alpha virt. eigenvalues --    1.03668   1.07565   1.10501   1.16787   1.25056
 Alpha virt. eigenvalues --    1.25205   1.30166   1.36959   1.39529   1.54491
 Alpha virt. eigenvalues --    1.58923   1.63716   1.68479   1.73822   1.78758
 Alpha virt. eigenvalues --    1.81768   2.02989   2.20451   2.41432   2.50033
 Alpha virt. eigenvalues --    2.96090   3.06585   3.08295   3.17344   3.19415
 Alpha virt. eigenvalues --    3.21454   3.28311   3.33612   3.35158   3.50239
 Alpha virt. eigenvalues --    3.55225   3.66106   3.69591   3.76833   3.79242
 Alpha virt. eigenvalues --    3.82365   3.88071   3.95399   3.99770   4.09506
 Alpha virt. eigenvalues --    4.13454   4.18981   4.24879   4.25946   4.38274
 Alpha virt. eigenvalues --    4.43565   4.46648   4.48419   4.56925   4.58360
 Alpha virt. eigenvalues --    4.60351   4.61631   4.68703   4.83820   4.88884
 Alpha virt. eigenvalues --    4.98701   5.07951   5.19986   5.25984   5.33815
 Alpha virt. eigenvalues --    5.56313   5.65651   5.67565   5.76730   5.77838
 Alpha virt. eigenvalues --    5.85416   5.86557   6.03928   6.05208
  Beta  occ. eigenvalues --  -10.22557 -10.19998  -0.78006  -0.53049  -0.44575
  Beta  occ. eigenvalues --   -0.44266  -0.28137
  Beta virt. eigenvalues --   -0.08402  -0.05966   0.01238   0.05879   0.06563
  Beta virt. eigenvalues --    0.10166   0.15136   0.18182   0.21485   0.23026
  Beta virt. eigenvalues --    0.24314   0.29820   0.31755   0.32498   0.33714
  Beta virt. eigenvalues --    0.42352   0.44956   0.61302   0.69002   0.88741
  Beta virt. eigenvalues --    0.91726   0.92243   0.93298   0.95147   0.99855
  Beta virt. eigenvalues --    1.04057   1.04527   1.08322   1.13305   1.17803
  Beta virt. eigenvalues --    1.26169   1.30862   1.32021   1.37724   1.40249
  Beta virt. eigenvalues --    1.55016   1.59497   1.64344   1.69735   1.74199
  Beta virt. eigenvalues --    1.80980   1.82183   2.04536   2.20840   2.42451
  Beta virt. eigenvalues --    2.50370   2.96873   3.07684   3.10264   3.18674
  Beta virt. eigenvalues --    3.20437   3.22115   3.29983   3.38673   3.40744
  Beta virt. eigenvalues --    3.52492   3.57538   3.67552   3.71294   3.77908
  Beta virt. eigenvalues --    3.80305   3.82762   3.89233   4.01039   4.04722
  Beta virt. eigenvalues --    4.10136   4.16206   4.20340   4.26743   4.27749
  Beta virt. eigenvalues --    4.40097   4.43864   4.47685   4.49127   4.57505
  Beta virt. eigenvalues --    4.58943   4.61651   4.62538   4.69388   4.84272
  Beta virt. eigenvalues --    4.90560   4.99386   5.08644   5.20470   5.27421
  Beta virt. eigenvalues --    5.34430   5.56884   5.66145   5.67826   5.77252
  Beta virt. eigenvalues --    5.78047   5.86059   5.86766   6.04363   6.05811
          Condensed to atoms (all electrons):
               1          2          3          4          5
     1  C    4.730540   0.156584   0.339623   0.385221   0.385221
     2  C    0.156584   6.064927   0.024331  -0.038560  -0.038560
     3  H    0.339623   0.024331   0.605177  -0.009954  -0.009954
     4  H    0.385221  -0.038560  -0.009954   0.671623  -0.065898
     5  H    0.385221  -0.038560  -0.009954  -0.065898   0.671623
          Atomic-Atomic Spin Densities.
               1          2          3          4          5
     1  C   -0.042744  -0.007713   0.005378  -0.006324  -0.006324
     2  C   -0.007713   1.039902  -0.008012  -0.038327  -0.038327
     3  H    0.005378  -0.008012  -0.007799  -0.000031  -0.000031
     4  H   -0.006324  -0.038327  -0.000031   0.160699  -0.055667
     5  H   -0.006324  -0.038327  -0.000031  -0.055667   0.160699
 Mulliken charges and spin densities:
               1          2
     1  C    0.002811  -0.057727
     2  C   -0.168724   0.947522
     3  H    0.050776  -0.010496
     4  H    0.057568   0.060350
     5  H    0.057568   0.060350
 Sum of Mulliken charges =  -0.00000   1.00000
 Mulliken charges and spin densities with hydrogens summed into heavy atoms:
               1          2
     1  C    0.168724   0.052478
     2  C   -0.168724   0.947522
 Electronic spatial extent (au):  <R**2>=             76.5867
 Charge=             -0.0000 electrons
 Dipole moment (field-independent basis, Debye):
    X=             -0.1545    Y=             -2.6706    Z=             -0.0000  Tot=              2.6751
 Quadrupole moment (field-independent basis, Debye-Ang):
   XX=            -12.1951   YY=            -17.2918   ZZ=            -13.9109
   XY=              0.2544   XZ=              0.0000   YZ=             -0.0000
 Traceless Quadrupole moment (field-independent basis, Debye-Ang):
   XX=              2.2708   YY=             -2.8259   ZZ=              0.5550
   XY=              0.2544   XZ=              0.0000   YZ=             -0.0000
 Octapole moment (field-independent basis, Debye-Ang**2):
  XXX=             -0.9792  YYY=            -11.6287  ZZZ=             -0.0000  XYY=              0.5652
  XXY=             -1.5039  XXZ=             -0.0000  XZZ=              0.5815  YZZ=             -3.5138
  YYZ=              0.0000  XYZ=              0.0000
 Hexadecapole moment (field-independent basis, Debye-Ang**3):
 XXXX=            -19.4871 YYYY=            -87.1019 ZZZZ=            -24.4433 XXXY=              1.3331
 XXXZ=             -0.0000 YYYX=              0.3014 YYYZ=              0.0000 ZZZX=             -0.0000
 ZZZY=             -0.0000 XXYY=            -15.5028 XXZZ=             -7.6944 YYZZ=            -17.3940
 XXYZ=              0.0000 YYXZ=              0.0000 ZZXY=             -0.4857
 N-N= 2.723073952668D+01 E-N=-2.346944006778D+02  KE= 7.752103733982D+01
 Symmetry A'   KE= 7.428914502089D+01
 Symmetry A"   KE= 3.231892318930D+00
 Symmetry A'   SP= 2.478864705326D-14
 Symmetry A"   SP= 1.000000000000D+00
                          Isotropic Fermi Contact Couplings
        Atom                 a.u.       MegaHertz       Gauss      10(-4) cm-1
     1  C(13)             -0.03112     -34.98008     -12.48176     -11.66810
     2  C(13)              0.11189     125.78661      44.88379      41.95790
     3  H(1)              -0.00208      -9.29215      -3.31567      -3.09953
     4  H(1)               0.03014     134.71221      48.06867      44.93516
     5  H(1)               0.03014     134.71221      48.06867      44.93516
 --------------------------------------------------------
       Center         ----  Spin Dipole Couplings  ----
                      3XX-RR        3YY-RR        3ZZ-RR
 --------------------------------------------------------
     1   Atom       -0.028625      0.038086     -0.009461
     2   Atom       -0.661820     -0.661676      1.323495
     3   Atom       -0.004183      0.014181     -0.009997
     4   Atom       -0.008116      0.013021     -0.004905
     5   Atom       -0.008116      0.013021     -0.004905
 --------------------------------------------------------
                        XY            XZ            YZ
 --------------------------------------------------------
     1   Atom       -0.008223      0.000000     -0.000000
     2   Atom       -0.034210     -0.000000      0.000000
     3   Atom        0.019070     -0.000000     -0.000000
     4   Atom       -0.003879      0.002542     -0.008173
     5   Atom       -0.003879     -0.002542      0.008173
 --------------------------------------------------------


 ---------------------------------------------------------------------------------
              Anisotropic Spin Dipole Couplings in Principal Axis System
 ---------------------------------------------------------------------------------

       Atom             a.u.   MegaHertz   Gauss  10(-4) cm-1        Axes

              Baa    -0.0296    -3.975    -1.418    -1.326  0.9927  0.1206 -0.0000
     1 C(13)  Bbb    -0.0095    -1.270    -0.453    -0.424  0.0000  0.0000  1.0000
              Bcc     0.0391     5.245     1.871     1.749 -0.1206  0.9927 -0.0000
 
              Baa    -0.6960   -93.391   -33.324   -31.152  0.7078  0.7064 -0.0000
     2 C(13)  Bbb    -0.6275   -84.209   -30.048   -28.089 -0.7064  0.7078 -0.0000
              Bcc     1.3235   177.600    63.372    59.241 -0.0000  0.0000  1.0000
 
              Baa    -0.0162    -8.626    -3.078    -2.877  0.8467 -0.5321 -0.0000
     3 H(1)   Bbb    -0.0100    -5.334    -1.903    -1.779  0.0000  0.0000  1.0000
              Bcc     0.0262    13.960     4.981     4.656  0.5321  0.8467 -0.0000
 
              Baa    -0.0095    -5.095    -1.818    -1.700  0.8276 -0.0599 -0.5582
     4 H(1)   Bbb    -0.0075    -3.979    -1.420    -1.327  0.5324  0.3988  0.7466
              Bcc     0.0170     9.074     3.238     3.027 -0.1779  0.9151 -0.3619
 
              Baa    -0.0095    -5.095    -1.818    -1.700  0.8276 -0.0599  0.5582
     5 H(1)   Bbb    -0.0075    -3.979    -1.420    -1.327 -0.5324 -0.3988  0.7466
              Bcc     0.0170     9.074     3.238     3.027 -0.1779  0.9151  0.3619
 

 ---------------------------------------------------------------------------------

 Calling FoFJK, ICntrl=      2127 FMM=F ISym2X=1 I1Cent= 0 IOpClX= 1 NMat=1 NMatS=1 NMatT=0.
 ***** Axes restored to original set *****
 -------------------------------------------------------------------
 Center     Atomic                   Forces (Hartrees/Bohr)
 Number     Number              X              Y              Z
 -------------------------------------------------------------------
      1        6           0.003396849    0.000000000    0.000611979
      2        6          -0.007604175    0.000000000   -0.000481712
      3        1           0.000134460   -0.000000000   -0.001580955
      4        1           0.002036433    0.001531404    0.000725344
      5        1           0.002036433   -0.001531404    0.000725344
 -------------------------------------------------------------------
 Cartesian Forces:  Max     0.007604175 RMS     0.002401706

 GradGradGradGradGradGradGradGradGradGradGradGradGradGradGradGradGradGrad
 Berny optimization.
 FormGI is forming the generalized inverse of G from B-inverse, IUseBI=4.
 Internal  Forces:  Max     0.007603564 RMS     0.002320185
 Search for a local minimum.
 Step number   1 out of a maximum of   24
 All quantities printed in internal units (Hartrees-Bohrs-Radians)
 Mixed Optimization -- RFO/linear search
 Second derivative matrix not updated -- first step.
 The second derivative matrix:
                          R1        R2        R3        R4        A1
           R1           0.38647
           R2           0.00000   0.31801
           R3           0.00000   0.00000   0.33524
           R4           0.00000   0.00000   0.00000   0.33524
           A1           0.00000   0.00000   0.00000   0.00000   0.16000
           A2           0.00000   0.00000   0.00000   0.00000   0.00000
           A3           0.00000   0.00000   0.00000   0.00000   0.00000
           A4           0.00000   0.00000   0.00000   0.00000   0.00000
           A5           0.00000   0.00000   0.00000   0.00000   0.00000
           A6           0.00000   0.00000   0.00000   0.00000   0.00000
           D1           0.00000   0.00000   0.00000   0.00000   0.00000
           D2           0.00000   0.00000   0.00000   0.00000   0.00000
           D3           0.00000   0.00000   0.00000   0.00000   0.00000
           D4           0.00000   0.00000   0.00000   0.00000   0.00000
                          A2        A3        A4        A5        A6
           A2           0.16000
           A3           0.00000   0.16000
           A4           0.00000   0.00000   0.16000
           A5           0.00000   0.00000   0.00000   0.16000
           A6           0.00000   0.00000   0.00000   0.00000   0.16000
           D1           0.00000   0.00000   0.00000   0.00000   0.00000
           D2           0.00000   0.00000   0.00000   0.00000   0.00000
           D3           0.00000   0.00000   0.00000   0.00000   0.00000
           D4           0.00000   0.00000   0.00000   0.00000   0.00000
                          D1        D2        D3        D4
           D1           0.00230
           D2           0.00000   0.00230
           D3           0.00000   0.00000   0.00230
           D4           0.00000   0.00000   0.00000   0.00230
 ITU=  0
     Eigenvalues ---    0.03664   0.05801   0.09676   0.16000   0.16000
     Eigenvalues ---    0.31801   0.33524   0.33524   0.38647
 RFO step:  Lambda=-2.21251594D-04 EMin= 3.66439768D-02
 Linear search not attempted -- first point.
 Iteration  1 RMS(Cart)=  0.00762862 RMS(Int)=  0.00003515
 Iteration  2 RMS(Cart)=  0.00002365 RMS(Int)=  0.00001554
 Iteration  3 RMS(Cart)=  0.00000000 RMS(Int)=  0.00001554
 ClnCor:  largest displacement from symmetrization is 1.17D-04 for atom     5.
 Variable       Old X    -DE/DX   Delta X   Delta X   Delta X     New X
                                 (Linear)    (Quad)   (Total)
    R1        2.73435  -0.00760   0.00000  -0.01966  -0.01966   2.71469
    R2        2.11209  -0.00159   0.00000  -0.00499  -0.00499   2.10710
    R3        2.08141  -0.00244   0.00000  -0.00728  -0.00728   2.07413
    R4        2.08141  -0.00244   0.00000  -0.00728  -0.00728   2.07413
    A1        1.65668   0.00031   0.00000   0.00302   0.00304   1.65972
    A2        2.05246  -0.00061   0.00000  -0.00694  -0.00696   2.04550
    A3        2.05246  -0.00083   0.00000  -0.00701  -0.00696   2.04550
    A4        1.85820  -0.00019   0.00000   0.00287   0.00286   1.86106
    A5        1.85820   0.00005   0.00000   0.00295   0.00286   1.86106
    A6        1.93943   0.00123   0.00000   0.00706   0.00702   1.94645
    D1        1.82909  -0.00001   0.00000   0.00236   0.00235   1.83144
    D2       -1.82909  -0.00003   0.00000  -0.00238  -0.00235  -1.83144
    D3        2.43764  -0.00047   0.00000  -0.01108  -0.01106   2.42659
    D4       -2.01645  -0.00044   0.00000  -0.00870  -0.00871  -2.02516
         Item               Value     Threshold  Converged?
 Maximum Force            0.007604     0.000450     NO 
 RMS     Force            0.002320     0.000300     NO 
 Maximum Displacement     0.021551     0.001800     NO 
 RMS     Displacement     0.007628     0.001200     NO 
 Predicted change in Energy=-1.107530D-04
 GradGradGradGradGradGradGradGradGradGradGradGradGradGradGradGradGradGrad

                          Input orientation:                          
 ---------------------------------------------------------------------
 Center     Atomic      Atomic             Coordinates (Angstroms)
 Number     Number       Type             X           Y           Z
 ---------------------------------------------------------------------
      1          6           0       -0.601901    0.000000   -0.012171
      2          6           0        0.834633   -0.000000   -0.018854
      3          1           0       -0.695752    0.000000    1.098904
      4          1           0       -1.105249   -0.907374   -0.369937
      5          1           0       -1.105249    0.907374   -0.369937
 ---------------------------------------------------------------------
                    Distance matrix (angstroms):
                    1          2          3          4          5
     1  C    0.000000
     2  C    1.436550   0.000000
     3  H    1.115031   1.895114   0.000000
     4  H    1.097580   2.170191   1.774404   0.000000
     5  H    1.097580   2.170191   1.774404   1.814748   0.000000
 Stoichiometry    C2H3(2)
 Framework group  CS[SG(C2H),X(H2)]
 Deg. of freedom     6
 Full point group                 CS      NOp   2
 Largest Abelian subgroup         CS      NOp   2
 Largest concise Abelian subgroup CS      NOp   2
                         Standard orientation:                         
 ---------------------------------------------------------------------
 Center     Atomic      Atomic             Coordinates (Angstroms)
 Number     Number       Type             X           Y           Z
 ---------------------------------------------------------------------
      1          6           0        0.026028   -0.501128    0.000000
      2          6           0        0.026028    0.935421   -0.000000
      3          1           0       -1.084598   -0.600147    0.000000
      4          1           0        0.386132   -1.002806    0.907374
      5          1           0        0.386132   -1.002806   -0.907374
 ---------------------------------------------------------------------
 Rotational constants (GHZ):         160.0157480          29.4593477          29.1858286
 Basis read from rwf:  (5D, 7F)
 There are    74 symmetry adapted cartesian basis functions of A'  symmetry.
 There are    41 symmetry adapted cartesian basis functions of A"  symmetry.
 There are    64 symmetry adapted basis functions of A'  symmetry.
 There are    38 symmetry adapted basis functions of A"  symmetry.
   102 basis functions,   156 primitive gaussians,   115 cartesian basis functions
     8 alpha electrons        7 beta electrons
       nuclear repulsion energy        27.3838008208 Hartrees.
 NAtoms=    5 NActive=    5 NUniq=    4 SFac= 1.56D+00 NAtFMM=   60 NAOKFM=F Big=F
 Integral buffers will be    131072 words long.
 Raffenetti 2 integral format.
 Two-electron integral symmetry is turned on.
 One-electron integrals computed using PRISM.
 NBasis=   102 RedAO= T EigKep=  9.09D-04  NBF=    64    38
 NBsUse=   102 1.00D-06 EigRej= -1.00D+00 NBFU=    64    38
 Initial guess from the checkpoint file:  "/wrk/irikura/Gau-478.chk"
 B after Tr=    -0.000000    0.000000   -0.000000
         Rot=    1.000000   -0.000000    0.000000   -0.000739 Ang=  -0.08 deg.
 Initial guess orbital symmetries:
 Alpha Orbitals:
       Occupied  (A') (A') (A') (A') (A") (A') (A') (A")
       Virtual   (A') (A') (A') (A") (A') (A') (A') (A") (A") (A')
                 (A') (A') (A') (A") (A') (A') (A") (A') (A') (A")
                 (A') (A") (A') (A") (A") (A') (A') (A") (A') (A')
                 (A") (A') (A') (A') (A") (A') (A") (A') (A') (A")
                 (A') (A') (A') (A") (A') (A') (A') (A") (A") (A')
                 (A') (A") (A") (A') (A") (A') (A") (A') (A') (A")
                 (A') (A") (A") (A') (A') (A") (A') (A") (A') (A")
                 (A') (A") (A') (A") (A') (A") (A') (A') (A') (A")
                 (A') (A') (A') (A") (A') (A') (A") (A') (A") (A')
                 (A") (A') (A') (A")
 Beta  Orbitals:
       Occupied  (A') (A') (A') (A') (A') (A") (A')
       Virtual   (A') (A") (A') (A') (A") (A') (A') (A') (A") (A')
                 (A") (A') (A') (A') (A") (A') (A') (A") (A') (A')
                 (A") (A') (A") (A') (A") (A') (A") (A') (A") (A')
                 (A') (A') (A") (A') (A') (A") (A') (A") (A') (A')
                 (A") (A') (A') (A') (A") (A') (A') (A') (A") (A")
                 (A') (A') (A") (A") (A') (A") (A') (A") (A') (A')
                 (A") (A') (A") (A") (A') (A') (A") (A') (A') (A")
                 (A") (A') (A") (A') (A") (A') (A") (A') (A') (A')
                 (A") (A') (A') (A') (A") (A') (A') (A") (A') (A")
                 (A') (A") (A') (A') (A")
 Initial guess <Sx>= 0.0000 <Sy>= 0.0000 <Sz>= 0.5000 <S**2>= 0.7542 S= 0.5021
 ExpMin= 7.42D-02 ExpMax= 7.32D+03 ExpMxC= 2.50D+02 IAcc=3 IRadAn=         5 AccDes= 0.00D+00
 Harris functional with IExCor=  402 and IRadAn=       5 diagonalized for initial guess.
 HarFok:  IExCor=  402 AccDes= 0.00D+00 IRadAn=         5 IDoV= 1 UseB2=F ITyADJ=14
 ICtDFT=  3500011 ScaDFX=  1.000000  1.000000  1.000000  1.000000
 FoFCou: FMM=F IPFlag=           0 FMFlag=      100000 FMFlg1=           0
         NFxFlg=           0 DoJE=T BraDBF=F KetDBF=T FulRan=T
         wScrn=  0.000000 ICntrl=       500 IOpCl=  0 I1Cent=   200000004 NGrid=           0
         NMat0=    1 NMatS0=      1 NMatT0=    0 NMatD0=    1 NMtDS0=    0 NMtDT0=    0
 Petite list used in FoFCou.
 Keep R1 and R2 ints in memory in symmetry-blocked form, NReq=25159656.
 Requested convergence on RMS density matrix=1.00D-08 within 128 cycles.
 Requested convergence on MAX density matrix=1.00D-06.
 Requested convergence on             energy=1.00D-06.
 No special actions if energy rises.
 Integral accuracy reduced to 1.0D-05 until final iterations.
 Initial convergence to 1.0D-05 achieved.  Increase integral accuracy.
 SCF Done:  E(UB3LYP) =  -77.8602889952     A.U. after   13 cycles
            NFock= 13  Conv=0.34D-08     -V/T= 2.0039
 <Sx>= 0.0000 <Sy>= 0.0000 <Sz>= 0.5000 <S**2>= 0.7542 S= 0.5021
 <L.S>=  0.00000000000    
 Annihilation of the first spin contaminant:
 S**2 before annihilation     0.7542,   after     0.7500
 Calling FoFJK, ICntrl=      2127 FMM=F ISym2X=1 I1Cent= 0 IOpClX= 1 NMat=1 NMatS=1 NMatT=0.
 ***** Axes restored to original set *****
 -------------------------------------------------------------------
 Center     Atomic                   Forces (Hartrees/Bohr)
 Number     Number              X              Y              Z
 -------------------------------------------------------------------
      1        6           0.000972163   -0.000000000    0.000048856
      2        6          -0.000990362   -0.000000000   -0.000026681
      3        1          -0.000064033   -0.000000000   -0.000162325
      4        1           0.000041116   -0.000216558    0.000070075
      5        1           0.000041116    0.000216558    0.000070075
 -------------------------------------------------------------------
 Cartesian Forces:  Max     0.000990362 RMS     0.000371166

 GradGradGradGradGradGradGradGradGradGradGradGradGradGradGradGradGradGrad
 Berny optimization.
 Using GEDIIS/GDIIS optimizer.
 FormGI is forming the generalized inverse of G from B-inverse, IUseBI=4.
 Internal  Forces:  Max     0.000990233 RMS     0.000286778
 Search for a local minimum.
 Step number   2 out of a maximum of   24
 All quantities printed in internal units (Hartrees-Bohrs-Radians)
 Mixed Optimization -- En-DIIS/RFO-DIIS
 Update second derivatives using D2CorX and points    1    2
 DE= -1.22D-04 DEPred=-1.11D-04 R= 1.10D+00
 TightC=F SS=  1.41D+00  RLast= 3.00D-02 DXNew= 5.0454D-01 8.9913D-02
 Trust test= 1.10D+00 RLast= 3.00D-02 DXMaxT set to 3.00D-01
 The second derivative matrix:
                          R1        R2        R3        R4        A1
           R1           0.34290
           R2          -0.00743   0.31682
           R3           0.00103   0.00086   0.34143
           R4           0.00103   0.00086   0.00619   0.34143
           A1           0.00907   0.00183   0.00238   0.00238   0.15920
           A2          -0.02185  -0.00443  -0.00588  -0.00588   0.00187
           A3          -0.01379  -0.00269  -0.00274  -0.00274   0.00159
           A4           0.01917   0.00403   0.00639   0.00639  -0.00113
           A5           0.01081   0.00222   0.00313   0.00313  -0.00084
           A6           0.00672   0.00116  -0.00004  -0.00004  -0.00135
           D1           0.00030   0.00006   0.00010   0.00010  -0.00002
           D2           0.00129   0.00028   0.00052   0.00052  -0.00004
           D3           0.01570   0.00340   0.00618   0.00618  -0.00053
           D4           0.01441   0.00312   0.00567   0.00567  -0.00049
                          A2        A3        A4        A5        A6
           A2           0.15563
           A3          -0.00376   0.15715
           A4           0.00257   0.00269   0.15910
           A5           0.00194   0.00175  -0.00103   0.15916
           A6           0.00325   0.00207  -0.00283  -0.00160   0.15897
           D1           0.00004   0.00004  -0.00001  -0.00001  -0.00004
           D2           0.00008   0.00014   0.00003  -0.00002  -0.00019
           D3           0.00112   0.00174   0.00031  -0.00032  -0.00230
           D4           0.00104   0.00160   0.00028  -0.00030  -0.00211
                          D1        D2        D3        D4
           D1           0.00230
           D2           0.00000   0.00231
           D3           0.00001   0.00011   0.00356
           D4           0.00001   0.00010   0.00115   0.00334
 ITU=  1  0
 Use linear search instead of GDIIS.
     Eigenvalues ---    0.03743   0.05767   0.09711   0.15581   0.16016
     Eigenvalues ---    0.31496   0.33524   0.34503   0.34832
 RFO step:  Lambda=-1.92938119D-06 EMin= 3.74349348D-02
 Quartic linear search produced a step of  0.09962.
 Iteration  1 RMS(Cart)=  0.00109412 RMS(Int)=  0.00000143
 Iteration  2 RMS(Cart)=  0.00000038 RMS(Int)=  0.00000133
 ClnCor:  largest displacement from symmetrization is 5.64D-06 for atom     5.
 Variable       Old X    -DE/DX   Delta X   Delta X   Delta X     New X
                                 (Linear)    (Quad)   (Total)
    R1        2.71469  -0.00099  -0.00196  -0.00100  -0.00296   2.71173
    R2        2.10710  -0.00016  -0.00050  -0.00008  -0.00057   2.10653
    R3        2.07413   0.00014  -0.00073   0.00112   0.00040   2.07453
    R4        2.07413   0.00014  -0.00073   0.00112   0.00040   2.07453
    A1        1.65972   0.00007   0.00030  -0.00005   0.00025   1.65997
    A2        2.04550  -0.00011  -0.00069   0.00022  -0.00047   2.04503
    A3        2.04550  -0.00009  -0.00069   0.00022  -0.00047   2.04503
    A4        1.86106  -0.00008   0.00029  -0.00117  -0.00089   1.86017
    A5        1.86106  -0.00010   0.00029  -0.00117  -0.00089   1.86017
    A6        1.94645   0.00026   0.00070   0.00121   0.00191   1.94836
    D1        1.83144  -0.00001   0.00023  -0.00068  -0.00045   1.83099
    D2       -1.83144   0.00001  -0.00023   0.00068   0.00045  -1.83099
    D3        2.42659   0.00003  -0.00110   0.00213   0.00103   2.42762
    D4       -2.02516   0.00002  -0.00087   0.00145   0.00058  -2.02457
         Item               Value     Threshold  Converged?
 Maximum Force            0.000990     0.000450     NO 
 RMS     Force            0.000287     0.000300     YES
 Maximum Displacement     0.002535     0.001800     NO 
 RMS     Displacement     0.001094     0.001200     YES
 Predicted change in Energy=-1.989636D-06
 GradGradGradGradGradGradGradGradGradGradGradGradGradGradGradGradGradGrad

                          Input orientation:                          
 ---------------------------------------------------------------------
 Center     Atomic      Atomic             Coordinates (Angstroms)
 Number     Number       Type             X           Y           Z
 ---------------------------------------------------------------------
      1          6           0       -0.601677   -0.000000   -0.012422
      2          6           0        0.833292    0.000000   -0.018967
      3          1           0       -0.695886   -0.000000    1.098317
      4          1           0       -1.104624   -0.908139   -0.369460
      5          1           0       -1.104624    0.908139   -0.369460
 ---------------------------------------------------------------------
                    Distance matrix (angstroms):
                    1          2          3          4          5
     1  C    0.000000
     2  C    1.434984   0.000000
     3  H    1.114727   1.893860   0.000000
     4  H    1.097792   2.168658   1.773740   0.000000
     5  H    1.097792   2.168658   1.773740   1.816277   0.000000
 Stoichiometry    C2H3(2)
 Framework group  CS[SG(C2H),X(H2)]
 Deg. of freedom     6
 Full point group                 CS      NOp   2
 Largest Abelian subgroup         CS      NOp   2
 Largest concise Abelian subgroup CS      NOp   2
                         Standard orientation:                         
 ---------------------------------------------------------------------
 Center     Atomic      Atomic             Coordinates (Angstroms)
 Number     Number       Type             X           Y           Z
 ---------------------------------------------------------------------
      1          6           0        0.026109   -0.500534   -0.000000
      2          6           0        0.026109    0.934450    0.000000
      3          1           0       -1.084188   -0.599807   -0.000000
      4          1           0        0.385438   -1.001847    0.908139
      5          1           0        0.385438   -1.001847   -0.908139
 ---------------------------------------------------------------------
 Rotational constants (GHZ):         159.9697856          29.5190416          29.2364833
 Basis read from rwf:  (5D, 7F)
 There are    74 symmetry adapted cartesian basis functions of A'  symmetry.
 There are    41 symmetry adapted cartesian basis functions of A"  symmetry.
 There are    64 symmetry adapted basis functions of A'  symmetry.
 There are    38 symmetry adapted basis functions of A"  symmetry.
   102 basis functions,   156 primitive gaussians,   115 cartesian basis functions
     8 alpha electrons        7 beta electrons
       nuclear repulsion energy        27.4010870687 Hartrees.
 NAtoms=    5 NActive=    5 NUniq=    4 SFac= 1.56D+00 NAtFMM=   60 NAOKFM=F Big=F
 Integral buffers will be    131072 words long.
 Raffenetti 2 integral format.
 Two-electron integral symmetry is turned on.
 One-electron integrals computed using PRISM.
 NBasis=   102 RedAO= T EigKep=  9.05D-04  NBF=    64    38
 NBsUse=   102 1.00D-06 EigRej= -1.00D+00 NBFU=    64    38
 Initial guess from the checkpoint file:  "/wrk/irikura/Gau-478.chk"
 B after Tr=     0.000000    0.000000    0.000000
         Rot=    1.000000   -0.000000    0.000000    0.000049 Ang=   0.01 deg.
 Initial guess orbital symmetries:
 Alpha Orbitals:
       Occupied  (A') (A') (A') (A') (A") (A') (A') (A")
       Virtual   (A') (A') (A') (A") (A') (A') (A') (A") (A") (A')
                 (A') (A') (A') (A") (A') (A') (A") (A') (A') (A")
                 (A') (A") (A') (A") (A') (A") (A') (A") (A') (A')
                 (A") (A') (A') (A') (A") (A') (A") (A') (A') (A")
                 (A') (A') (A') (A") (A') (A') (A') (A") (A") (A')
                 (A') (A") (A") (A') (A") (A') (A") (A') (A') (A")
                 (A') (A") (A") (A') (A') (A") (A') (A") (A') (A")
                 (A') (A") (A') (A") (A') (A") (A') (A') (A') (A")
                 (A') (A') (A') (A") (A') (A') (A") (A') (A") (A')
                 (A") (A') (A') (A")
 Beta  Orbitals:
       Occupied  (A') (A') (A') (A') (A') (A") (A')
       Virtual   (A') (A") (A') (A') (A") (A') (A') (A') (A") (A')
                 (A") (A') (A') (A') (A") (A') (A') (A") (A') (A')
                 (A") (A') (A") (A') (A") (A') (A") (A') (A") (A')
                 (A') (A') (A") (A') (A') (A") (A') (A") (A') (A')
                 (A") (A') (A') (A') (A") (A') (A') (A') (A") (A")
                 (A') (A') (A") (A") (A') (A") (A') (A") (A') (A')
                 (A") (A') (A") (A") (A') (A') (A") (A') (A') (A")
                 (A") (A') (A") (A') (A") (A') (A") (A') (A') (A')
                 (A") (A') (A') (A') (A") (A') (A') (A") (A') (A")
                 (A') (A") (A') (A') (A")
 Initial guess <Sx>= 0.0000 <Sy>= 0.0000 <Sz>= 0.5000 <S**2>= 0.7542 S= 0.5021
 Keep R1 and R2 ints in memory in symmetry-blocked form, NReq=25159656.
 Requested convergence on RMS density matrix=1.00D-08 within 128 cycles.
 Requested convergence on MAX density matrix=1.00D-06.
 Requested convergence on             energy=1.00D-06.
 No special actions if energy rises.
 SCF Done:  E(UB3LYP) =  -77.8602911227     A.U. after    8 cycles
            NFock=  8  Conv=0.38D-08     -V/T= 2.0039
 <Sx>= 0.0000 <Sy>= 0.0000 <Sz>= 0.5000 <S**2>= 0.7542 S= 0.5021
 <L.S>=  0.00000000000    
 Annihilation of the first spin contaminant:
 S**2 before annihilation     0.7542,   after     0.7500
 Calling FoFJK, ICntrl=      2127 FMM=F ISym2X=1 I1Cent= 0 IOpClX= 1 NMat=1 NMatS=1 NMatT=0.
 ***** Axes restored to original set *****
 -------------------------------------------------------------------
 Center     Atomic                   Forces (Hartrees/Bohr)
 Number     Number              X              Y              Z
 -------------------------------------------------------------------
      1        6           0.000169641   -0.000000000   -0.000096284
      2        6          -0.000075855   -0.000000000    0.000015762
      3        1          -0.000020577    0.000000000    0.000053748
      4        1          -0.000036605   -0.000038628    0.000013387
      5        1          -0.000036605    0.000038628    0.000013387
 -------------------------------------------------------------------
 Cartesian Forces:  Max     0.000169641 RMS     0.000059658

 GradGradGradGradGradGradGradGradGradGradGradGradGradGradGradGradGradGrad
 Berny optimization.
 Using GEDIIS/GDIIS optimizer.
 FormGI is forming the generalized inverse of G from B-inverse, IUseBI=4.
 Internal  Forces:  Max     0.000075932 RMS     0.000032768
 Search for a local minimum.
 Step number   3 out of a maximum of   24
 All quantities printed in internal units (Hartrees-Bohrs-Radians)
 Mixed Optimization -- En-DIIS/RFO-DIIS
 Swapping is turned off.
 Update second derivatives using D2CorX and points    1    2    3
 DE= -2.13D-06 DEPred=-1.99D-06 R= 1.07D+00
 TightC=F SS=  1.41D+00  RLast= 4.12D-03 DXNew= 5.0454D-01 1.2351D-02
 Trust test= 1.07D+00 RLast= 4.12D-03 DXMaxT set to 3.00D-01
 The second derivative matrix:
                          R1        R2        R3        R4        A1
           R1           0.32746
           R2           0.00772   0.32346
           R3           0.01334   0.00204   0.33967
           R4           0.01334   0.00204   0.00443   0.33967
           A1          -0.00621  -0.00203   0.00293   0.00293   0.16062
           A2           0.00501   0.00213  -0.00700  -0.00700  -0.00043
           A3           0.00623   0.00275  -0.00324  -0.00324  -0.00060
           A4          -0.01361  -0.00019   0.01012   0.01012  -0.00166
           A5          -0.01551  -0.00098   0.00625   0.00625  -0.00142
           A6           0.01356  -0.00235  -0.00356  -0.00356   0.00261
           D1           0.00201   0.00050   0.00005   0.00005  -0.00018
           D2          -0.00137  -0.00029   0.00068   0.00068   0.00011
           D3           0.00257   0.00122   0.00735   0.00735  -0.00031
           D4           0.00394   0.00150   0.00667   0.00667  -0.00042
                          A2        A3        A4        A5        A6
           A2           0.15932
           A3          -0.00018   0.16045
           A4           0.00389   0.00275   0.15105
           A5           0.00328   0.00202  -0.00781   0.15346
           A6          -0.00375  -0.00307   0.00629   0.00575   0.15640
           D1           0.00030   0.00029   0.00004   0.00004  -0.00049
           D2          -0.00015  -0.00012  -0.00024  -0.00027   0.00052
           D3           0.00089   0.00118  -0.00207  -0.00237   0.00127
           D4           0.00105   0.00130  -0.00183  -0.00210   0.00076
                          D1        D2        D3        D4
           D1           0.00232
           D2          -0.00002   0.00232
           D3          -0.00002   0.00008   0.00295
           D4          -0.00000   0.00005   0.00057   0.00282
 ITU=  1  1  0
     Eigenvalues ---    0.03641   0.05732   0.09725   0.15672   0.16118
     Eigenvalues ---    0.31408   0.32479   0.33524   0.35815
 En-DIIS/RFO-DIIS/Sim-DIIS IScMMF=       -3 using points:     3    2
 RFO step:  Lambda=-9.39958311D-08.
 DidBck=F Rises=F RFO-DIIS coefs:    1.16373   -0.16373
 Iteration  1 RMS(Cart)=  0.00016252 RMS(Int)=  0.00000010
 Iteration  2 RMS(Cart)=  0.00000005 RMS(Int)=  0.00000008
 ClnCor:  largest displacement from symmetrization is 4.73D-06 for atom     5.
 Variable       Old X    -DE/DX   Delta X   Delta X   Delta X     New X
                                 (Linear)    (Quad)   (Total)
    R1        2.71173  -0.00008  -0.00048   0.00018  -0.00030   2.71143
    R2        2.10653   0.00006  -0.00009   0.00026   0.00017   2.10670
    R3        2.07453   0.00004   0.00007   0.00007   0.00014   2.07466
    R4        2.07453   0.00004   0.00007   0.00007   0.00014   2.07466
    A1        1.65997   0.00000   0.00004  -0.00013  -0.00009   1.65988
    A2        2.04503   0.00000  -0.00008   0.00028   0.00021   2.04524
    A3        2.04503   0.00002  -0.00008   0.00029   0.00021   2.04524
    A4        1.86017  -0.00001  -0.00015  -0.00018  -0.00033   1.85984
    A5        1.86017  -0.00002  -0.00015  -0.00019  -0.00033   1.85984
    A6        1.94836   0.00000   0.00031  -0.00019   0.00012   1.94848
    D1        1.83099  -0.00000  -0.00007  -0.00014  -0.00022   1.83078
    D2       -1.83099   0.00000   0.00007   0.00014   0.00022  -1.83078
    D3        2.42762   0.00003   0.00017   0.00057   0.00074   2.42836
    D4       -2.02457   0.00002   0.00010   0.00043   0.00052  -2.02405
         Item               Value     Threshold  Converged?
 Maximum Force            0.000076     0.000450     YES
 RMS     Force            0.000033     0.000300     YES
 Maximum Displacement     0.000330     0.001800     YES
 RMS     Displacement     0.000162     0.001200     YES
 Predicted change in Energy=-4.700337D-08
 Optimization completed.
    -- Stationary point found.
                           ----------------------------
                           !   Optimized Parameters   !
                           ! (Angstroms and Degrees)  !
 --------------------------                            --------------------------
 ! Name  Definition              Value          Derivative Info.                !
 --------------------------------------------------------------------------------
 ! R1    R(1,2)                  1.435          -DE/DX =   -0.0001              !
 ! R2    R(1,3)                  1.1147         -DE/DX =    0.0001              !
 ! R3    R(1,4)                  1.0978         -DE/DX =    0.0                 !
 ! R4    R(1,5)                  1.0978         -DE/DX =    0.0                 !
 ! A1    A(2,1,3)               95.1093         -DE/DX =    0.0                 !
 ! A2    A(2,1,4)              117.1715         -DE/DX =    0.0                 !
 ! A3    A(2,1,5)              117.1715         -DE/DX =    0.0                 !
 ! A4    A(3,1,4)              106.5798         -DE/DX =    0.0                 !
 ! A5    A(3,1,5)              106.5798         -DE/DX =    0.0                 !
 ! A6    A(4,1,5)              111.6327         -DE/DX =    0.0                 !
 ! D1    D(2,1,4,3)            104.9082         -DE/DX =    0.0                 !
 ! D2    D(2,1,5,3)           -104.9082         -DE/DX =    0.0                 !
 ! D3    D(2,1,5,4)            139.0922         -DE/DX =    0.0                 !
 ! D4    D(3,1,5,4)           -115.9996         -DE/DX =    0.0                 !
 --------------------------------------------------------------------------------
 GradGradGradGradGradGradGradGradGradGradGradGradGradGradGradGradGradGrad

                          Input orientation:                          
 ---------------------------------------------------------------------
 Center     Atomic      Atomic             Coordinates (Angstroms)
 Number     Number       Type             X           Y           Z
 ---------------------------------------------------------------------
      1          6           0       -0.601677   -0.000000   -0.012422
      2          6           0        0.833292    0.000000   -0.018967
      3          1           0       -0.695886   -0.000000    1.098317
      4          1           0       -1.104624   -0.908139   -0.369460
      5          1           0       -1.104624    0.908139   -0.369460
 ---------------------------------------------------------------------
                    Distance matrix (angstroms):
                    1          2          3          4          5
     1  C    0.000000
     2  C    1.434984   0.000000
     3  H    1.114727   1.893860   0.000000
     4  H    1.097792   2.168658   1.773740   0.000000
     5  H    1.097792   2.168658   1.773740   1.816277   0.000000
 Stoichiometry    C2H3(2)
 Framework group  CS[SG(C2H),X(H2)]
 Deg. of freedom     6
 Full point group                 CS      NOp   2
 Largest Abelian subgroup         CS      NOp   2
 Largest concise Abelian subgroup CS      NOp   2
                         Standard orientation:                         
 ---------------------------------------------------------------------
 Center     Atomic      Atomic             Coordinates (Angstroms)
 Number     Number       Type             X           Y           Z
 ---------------------------------------------------------------------
      1          6           0        0.026109   -0.500534   -0.000000
      2          6           0        0.026109    0.934450    0.000000
      3          1           0       -1.084188   -0.599807   -0.000000
      4          1           0        0.385438   -1.001847    0.908139
      5          1           0        0.385438   -1.001847   -0.908139
 ---------------------------------------------------------------------
 Rotational constants (GHZ):         159.9697856          29.5190416          29.2364833

 **********************************************************************

            Population analysis using the SCF Density.

 **********************************************************************

 Orbital symmetries:
 Alpha Orbitals:
       Occupied  (A') (A') (A') (A') (A") (A') (A') (A")
       Virtual   (A') (A') (A') (A") (A') (A') (A') (A") (A") (A')
                 (A') (A') (A') (A") (A') (A') (A") (A') (A') (A")
                 (A') (A") (A') (A") (A') (A") (A') (A") (A') (A')
                 (A") (A') (A') (A') (A") (A') (A") (A') (A') (A")
                 (A') (A') (A') (A") (A') (A') (A') (A") (A") (A')
                 (A') (A") (A") (A') (A") (A') (A") (A') (A') (A")
                 (A') (A") (A") (A') (A') (A") (A') (A") (A') (A")
                 (A') (A") (A') (A") (A') (A") (A') (A') (A') (A")
                 (A') (A') (A') (A") (A') (A') (A") (A') (A") (A')
                 (A") (A') (A') (A")
 Beta  Orbitals:
       Occupied  (A') (A') (A') (A') (A') (A") (A')
       Virtual   (A') (A") (A') (A') (A") (A') (A') (A') (A") (A')
                 (A") (A') (A') (A') (A") (A') (A') (A") (A') (A')
                 (A") (A') (A") (A') (A") (A') (A") (A') (A") (A')
                 (A') (A') (A") (A') (A') (A") (A') (A") (A') (A')
                 (A") (A') (A') (A') (A") (A') (A') (A') (A") (A")
                 (A') (A') (A") (A") (A') (A") (A') (A") (A') (A')
                 (A") (A') (A") (A") (A') (A') (A") (A') (A') (A")
                 (A") (A') (A") (A') (A") (A') (A") (A') (A') (A')
                 (A") (A') (A') (A') (A") (A') (A') (A") (A') (A")
                 (A') (A') (A") (A') (A")
 The electronic state is 2-A".
 Alpha  occ. eigenvalues --  -10.23786 -10.19754  -0.79645  -0.55757  -0.46048
 Alpha  occ. eigenvalues --   -0.45042  -0.30147  -0.21226
 Alpha virt. eigenvalues --   -0.09786   0.01194   0.05832   0.06349   0.09840
 Alpha virt. eigenvalues --    0.15014   0.17935   0.20266   0.21632   0.22610
 Alpha virt. eigenvalues --    0.29647   0.31248   0.32196   0.32987   0.41650
 Alpha virt. eigenvalues --    0.45086   0.60502   0.68796   0.87315   0.89904
 Alpha virt. eigenvalues --    0.90440   0.92217   0.94837   0.96892   1.03546
 Alpha virt. eigenvalues --    1.03649   1.07290   1.11091   1.16966   1.25292
 Alpha virt. eigenvalues --    1.25581   1.30113   1.37016   1.40219   1.55054
 Alpha virt. eigenvalues --    1.59014   1.63837   1.69240   1.74233   1.79290
 Alpha virt. eigenvalues --    1.82290   2.04235   2.20773   2.42033   2.50459
 Alpha virt. eigenvalues --    2.95404   3.07617   3.08923   3.17503   3.19499
 Alpha virt. eigenvalues --    3.22027   3.28355   3.33892   3.35395   3.50590
 Alpha virt. eigenvalues --    3.55820   3.66197   3.69344   3.76976   3.79212
 Alpha virt. eigenvalues --    3.82824   3.88630   3.95874   4.00170   4.09934
 Alpha virt. eigenvalues --    4.14123   4.19759   4.25834   4.26309   4.39264
 Alpha virt. eigenvalues --    4.43696   4.47147   4.47859   4.57305   4.59330
 Alpha virt. eigenvalues --    4.61644   4.62256   4.69336   4.84474   4.89510
 Alpha virt. eigenvalues --    5.00121   5.08433   5.21200   5.27693   5.36546
 Alpha virt. eigenvalues --    5.58272   5.67108   5.68269   5.77049   5.78834
 Alpha virt. eigenvalues --    5.87452   5.87737   6.05110   6.06706
  Beta  occ. eigenvalues --  -10.22310 -10.19852  -0.78356  -0.53070  -0.44802
  Beta  occ. eigenvalues --   -0.44520  -0.28056
  Beta virt. eigenvalues --   -0.08290  -0.05864   0.01255   0.05905   0.06550
  Beta virt. eigenvalues --    0.10165   0.15107   0.18169   0.21373   0.23064
  Beta virt. eigenvalues --    0.24342   0.30018   0.31884   0.32573   0.33868
  Beta virt. eigenvalues --    0.42875   0.45425   0.61421   0.69115   0.88796
  Beta virt. eigenvalues --    0.91778   0.92420   0.93087   0.95105   0.99729
  Beta virt. eigenvalues --    1.03928   1.04514   1.08012   1.13992   1.18000
  Beta virt. eigenvalues --    1.26406   1.30805   1.32351   1.37695   1.41029
  Beta virt. eigenvalues --    1.55591   1.59578   1.64506   1.70531   1.74606
  Beta virt. eigenvalues --    1.81457   1.82696   2.05795   2.21172   2.43069
  Beta virt. eigenvalues --    2.50803   2.96194   3.08707   3.10883   3.18905
  Beta virt. eigenvalues --    3.20557   3.22712   3.30104   3.38814   3.40953
  Beta virt. eigenvalues --    3.52829   3.58017   3.67666   3.71217   3.77928
  Beta virt. eigenvalues --    3.80293   3.83205   3.89833   4.01462   4.05223
  Beta virt. eigenvalues --    4.10545   4.16900   4.21043   4.27127   4.28608
  Beta virt. eigenvalues --    4.41004   4.44065   4.48342   4.48540   4.57918
  Beta virt. eigenvalues --    4.59899   4.62919   4.63174   4.70022   4.85000
  Beta virt. eigenvalues --    4.91200   5.00732   5.09230   5.21693   5.29171
  Beta virt. eigenvalues --    5.37136   5.58844   5.67633   5.68540   5.77580
  Beta virt. eigenvalues --    5.79075   5.87943   5.88095   6.05555   6.07334
          Condensed to atoms (all electrons):
               1          2          3          4          5
     1  C    4.721075   0.159094   0.339416   0.385364   0.385364
     2  C    0.159094   6.069770   0.025161  -0.040267  -0.040267
     3  H    0.339416   0.025161   0.603438  -0.009527  -0.009527
     4  H    0.385364  -0.040267  -0.009527   0.675494  -0.067448
     5  H    0.385364  -0.040267  -0.009527  -0.067448   0.675494
          Atomic-Atomic Spin Densities.
               1          2          3          4          5
     1  C   -0.042050  -0.008491   0.005571  -0.006509  -0.006509
     2  C   -0.008491   1.042215  -0.008260  -0.040057  -0.040057
     3  H    0.005571  -0.008260  -0.007973  -0.000035  -0.000035
     4  H   -0.006509  -0.040057  -0.000035   0.166069  -0.057783
     5  H   -0.006509  -0.040057  -0.000035  -0.057783   0.166069
 Mulliken charges and spin densities:
               1          2
     1  C    0.009686  -0.057987
     2  C   -0.173492   0.945350
     3  H    0.051038  -0.010733
     4  H    0.056384   0.061685
     5  H    0.056384   0.061685
 Sum of Mulliken charges =   0.00000   1.00000
 Mulliken charges and spin densities with hydrogens summed into heavy atoms:
               1          2
     1  C    0.173492   0.054650
     2  C   -0.173492   0.945350
 Electronic spatial extent (au):  <R**2>=             75.9528
 Charge=             -0.0000 electrons
 Dipole moment (field-independent basis, Debye):
    X=             -0.1598    Y=             -2.6998    Z=              0.0000  Tot=              2.7045
 Quadrupole moment (field-independent basis, Debye-Ang):
   XX=            -12.1632   YY=            -17.3273   ZZ=            -13.8786
   XY=              0.2604   XZ=              0.0000   YZ=             -0.0000
 Traceless Quadrupole moment (field-independent basis, Debye-Ang):
   XX=              2.2932   YY=             -2.8709   ZZ=              0.5778
   XY=              0.2604   XZ=              0.0000   YZ=             -0.0000
 Octapole moment (field-independent basis, Debye-Ang**2):
  XXX=             -0.9896  YYY=            -11.6107  ZZZ=              0.0000  XYY=              0.5276
  XXY=             -1.5407  XXZ=             -0.0000  XZZ=              0.5850  YZZ=             -3.5142
  YYZ=              0.0000  XYZ=             -0.0000
 Hexadecapole moment (field-independent basis, Debye-Ang**3):
 XXXX=            -19.3940 YYYY=            -86.1688 ZZZZ=            -24.3590 XXXY=              1.3304
 XXXZ=              0.0000 YYYX=              0.3109 YYYZ=             -0.0000 ZZZX=              0.0000
 ZZZY=             -0.0000 XXYY=            -15.3535 XXZZ=             -7.6624 YYZZ=            -17.2726
 XXYZ=              0.0000 YYXZ=              0.0000 ZZXY=             -0.4767
 N-N= 2.740108706869D+01 E-N=-2.350599335493D+02  KE= 7.755712518131D+01
 Symmetry A'   KE= 7.431913474848D+01
[...]
              Bcc     0.0397     5.324     1.900     1.776 -0.1152  0.9933 -0.0000
 
              Baa    -0.6944   -93.179   -33.249   -31.081  0.7078  0.7064 -0.0000
     2 C(13)  Bbb    -0.6259   -83.991   -29.970   -28.016 -0.7064  0.7078 -0.0000
              Bcc     1.3203   177.170    63.219    59.097 -0.0000  0.0000  1.0000
 
              Baa    -0.0162    -8.654    -3.088    -2.887  0.8458 -0.5335 -0.0000
     3 H(1)   Bbb    -0.0101    -5.373    -1.917    -1.792  0.0000 -0.0000  1.0000
              Bcc     0.0263    14.027     5.005     4.679  0.5335  0.8458  0.0000
 
              Baa    -0.0098    -5.213    -1.860    -1.739  0.8301 -0.0587 -0.5546
     4 H(1)   Bbb    -0.0075    -3.995    -1.425    -1.332  0.5278  0.4040  0.7472
              Bcc     0.0173     9.208     3.286     3.072 -0.1802  0.9129 -0.3663
 
              Baa    -0.0098    -5.213    -1.860    -1.739  0.8301 -0.0587  0.5546
     5 H(1)   Bbb    -0.0075    -3.995    -1.425    -1.332 -0.5278 -0.4040  0.7472
              Bcc     0.0173     9.208     3.286     3.072 -0.1802  0.9129  0.3663
 

 ---------------------------------------------------------------------------------

 Calling FoFJK, ICntrl=    100127 FMM=F ISym2X=1 I1Cent= 0 IOpClX= 1 NMat=1 NMatS=1 NMatT=0.
 Full mass-weighted force constant matrix:
 Low frequencies ---  -29.7892   -0.0008    0.0010    0.0012    4.4870    6.1019
 Low frequencies ---  521.8205  855.2579 1104.7108
 Diagonal vibrational polarizability:
        0.6589209       1.4667758       0.4310589
 Harmonic frequencies (cm**-1), IR intensities (KM/Mole), Raman scattering
 activities (A**4/AMU), depolarization ratios for plane and unpolarized
 incident light, reduced masses (AMU), force constants (mDyne/A),
 and normal coordinates:
                      1                      2                      3
                     A'                     A"                     A'
 Frequencies --    521.8203               855.2577              1104.7108
 Red. masses --      1.3079                 1.3105                 2.6231
 Frc consts  --      0.2098                 0.5648                 1.8861
 IR Inten    --      4.1655                 0.1408                16.1943
  Atom  AN      X      Y      Z        X      Y      Z        X      Y      Z
     1   6     0.13   0.02   0.00     0.00  -0.00  -0.14     0.07  -0.20   0.00
     2   6    -0.08  -0.06  -0.00    -0.00   0.00   0.08    -0.02   0.32  -0.00
     3   1    -0.01   0.86  -0.00     0.00   0.00   0.26     0.07  -0.24   0.00
     4   1    -0.28  -0.20   0.03    -0.06   0.62   0.24    -0.29  -0.56  -0.06
     5   1    -0.28  -0.20  -0.03     0.06  -0.62   0.24    -0.29  -0.56   0.06
                      4                      5                      6
                     A"                     A'                     A'
 Frequencies --   1287.9362              1306.3696              1442.1603
 Red. masses --      1.0321                 1.4671                 1.1219
 Frc consts  --      1.0087                 1.4752                 1.3747
 IR Inten    --     23.3068                72.6284                 7.6931
  Atom  AN      X      Y      Z        X      Y      Z        X      Y      Z
     1   6    -0.00  -0.00  -0.04    -0.06  -0.18   0.00     0.05  -0.09   0.00
     2   6    -0.00   0.00  -0.02    -0.00   0.08   0.00     0.00   0.02  -0.00
     3   1    -0.00   0.00   0.71    -0.14   0.63  -0.00     0.05  -0.09  -0.00
     4   1    -0.43  -0.24   0.02     0.46   0.24   0.00    -0.35   0.44   0.42
     5   1     0.43   0.24   0.02     0.46   0.24  -0.00    -0.35   0.44  -0.42
                      7                      8                      9
                     A'                     A'                     A"
 Frequencies --   2879.4196              2968.6478              3000.9308
 Red. masses --      1.0510                 1.0674                 1.1063
 Frc consts  --      5.1339                 5.5422                 5.8701
 IR Inten    --     13.4259                22.4398                15.9821
  Atom  AN      X      Y      Z        X      Y      Z        X      Y      Z
     1   6    -0.06  -0.02  -0.00    -0.06   0.04   0.00    -0.00   0.00  -0.09
     2   6    -0.00  -0.00  -0.00    -0.00   0.00   0.00    -0.00  -0.00  -0.00
     3   1     0.92   0.12  -0.00     0.33   0.06   0.00     0.00   0.00  -0.02
     4   1    -0.10   0.10  -0.22     0.21  -0.29   0.56     0.24  -0.32   0.58
     5   1    -0.10   0.10   0.22     0.21  -0.29  -0.56    -0.24   0.32   0.58

 -------------------
 - Thermochemistry -
 -------------------
 Temperature   298.150 Kelvin.  Pressure   1.00000 Atm.
 Atom     1 has atomic number  6 and mass  12.00000
 Atom     2 has atomic number  6 and mass  12.00000
 Atom     3 has atomic number  1 and mass   1.00783
 Atom     4 has atomic number  1 and mass   1.00783
 Atom     5 has atomic number  1 and mass   1.00783
 Molecular mass:    27.02348 amu.
 Principal axes and moments of inertia in atomic units:
                           1         2         3
     Eigenvalues --    11.28176  61.13820  61.72908
           X           -0.00118   0.00000   1.00000
           Y            1.00000   0.00000   0.00118
           Z           -0.00000   1.00000   0.00000
 This molecule is an asymmetric top.
 Rotational symmetry number  1.
 Rotational temperatures (Kelvin)      7.67734     1.41669     1.40313
 Rotational constants (GHZ):         159.96979    29.51904    29.23648
 Zero-point vibrational energy      91916.6 (Joules/Mol)
                                   21.96859 (Kcal/Mol)
 Warning -- explicit consideration of   1 degrees of freedom as
           vibrations may cause significant error
 Vibrational temperatures:    750.78  1230.53  1589.43  1853.05  1879.57
          (Kelvin)           2074.95  4142.84  4271.22  4317.67
 
 Zero-point correction=                           0.035009 (Hartree/Particle)
 Thermal correction to Energy=                    0.038167
 Thermal correction to Enthalpy=                  0.039112
 Thermal correction to Gibbs Free Energy=         0.012270
 Sum of electronic and zero-point Energies=            -77.825282
 Sum of electronic and thermal Energies=               -77.822124
 Sum of electronic and thermal Enthalpies=             -77.821179
 Sum of electronic and thermal Free Energies=          -77.848021
 
                     E (Thermal)             CV                S
                      KCal/Mol        Cal/Mol-Kelvin    Cal/Mol-Kelvin
 Total                   23.950              8.395             56.493
 Electronic               0.000              0.000              1.377
 Translational            0.889              2.981             35.818
 Rotational               0.889              2.981             18.394
 Vibrational             22.173              2.433              0.904
 Vibration     1          0.877              1.202              0.606
                       Q            Log10(Q)             Ln(Q)
 Total Bot       0.227084D-05         -5.643813        -12.995360
 Total V=0       0.287923D+11         10.459277         24.083374
 Vib (Bot)       0.880351D-16        -16.055344        -36.968797
 Vib (Bot)    1  0.308811D+00         -0.510307         -1.175025
 Vib (V=0)       0.111621D+01          0.047746          0.109938
 Vib (V=0)    1  0.108768D+01          0.036500          0.084044
 Electronic      0.200000D+01          0.301030          0.693147
 Translational   0.552161D+07          6.742066         15.524180
 Rotational      0.233580D+04          3.368435          7.756109
 ***** Axes restored to original set *****
 -------------------------------------------------------------------
 Center     Atomic                   Forces (Hartrees/Bohr)
 Number     Number              X              Y              Z
 -------------------------------------------------------------------
      1        6           0.000169638    0.000000000   -0.000096283
      2        6          -0.000075853    0.000000000    0.000015763
      3        1          -0.000020576   -0.000000000    0.000053756
      4        1          -0.000036605   -0.000038632    0.000013382
      5        1          -0.000036605    0.000038632    0.000013382
 -------------------------------------------------------------------
 Cartesian Forces:  Max     0.000169638 RMS     0.000059658
 FormGI is forming the generalized inverse of G from B-inverse, IUseBI=4.

 GradGradGradGradGradGradGradGradGradGradGradGradGradGradGradGradGradGrad
 Berny optimization.
 Internal  Forces:  Max     0.000075930 RMS     0.000032769
 Search for a local minimum.
 Step number   1 out of a maximum of    2
 All quantities printed in internal units (Hartrees-Bohrs-Radians)
 Second derivative matrix not updated -- analytic derivatives used.
 The second derivative matrix:
                          R1        R2        R3        R4        A1
           R1           0.30757
           R2           0.00872   0.29737
           R3           0.01799   0.00180   0.31535
           R4           0.01799   0.00180   0.00497   0.31535
           A1          -0.00813   0.00878  -0.00045  -0.00151   0.00933
           A2           0.00852  -0.00156   0.00003  -0.00577  -0.00599
           A3           0.01426  -0.00552  -0.00550  -0.00036  -0.00488
           A4           0.00161   0.00029   0.00293  -0.00524  -0.00509
           A5          -0.00286   0.00146  -0.00493   0.00458  -0.01116
           A6          -0.01478  -0.00061   0.00676   0.00719   0.01474
           D1          -0.00506   0.01009   0.00126  -0.00760   0.00550
           D2           0.00524  -0.00905   0.00601  -0.00080  -0.00229
           D3           0.01274  -0.00993   0.00184  -0.00099   0.00261
           D4           0.00750  -0.00088  -0.00416  -0.00018   0.00490
                          A2        A3        A4        A5        A6
           A2           0.04617
           A3          -0.02705   0.06575
           A4          -0.00391   0.02184   0.02715
           A5           0.02744  -0.02851  -0.01770   0.05633
           A6          -0.02964  -0.02814  -0.01959  -0.01755   0.06883
           D1           0.01091  -0.00460   0.00868  -0.01209  -0.00733
           D2           0.00251  -0.00594   0.00724  -0.00822   0.00541
           D3           0.00665  -0.00060  -0.00458  -0.01086   0.00304
           D4           0.00414   0.00534  -0.01183  -0.00264  -0.00237
                          D1        D2        D3        D4
           D1           0.01681
           D2           0.00277   0.01043
           D3           0.00332   0.00374   0.01399
           D4           0.00055  -0.00669   0.01026   0.01695
 ITU=  0
     Eigenvalues ---    0.01221   0.03817   0.04940   0.10520   0.11991
     Eigenvalues ---    0.28966   0.29983   0.31108   0.34192
 Angle between quadratic step and forces=  60.09 degrees.
 Linear search not attempted -- first point.
 Iteration  1 RMS(Cart)=  0.00039069 RMS(Int)=  0.00000029
 Iteration  2 RMS(Cart)=  0.00000017 RMS(Int)=  0.00000022
 ClnCor:  largest displacement from symmetrization is 1.54D-07 for atom     5.
 Variable       Old X    -DE/DX   Delta X   Delta X   Delta X     New X
                                 (Linear)    (Quad)   (Total)
    R1        2.71173  -0.00008   0.00000  -0.00044  -0.00044   2.71129
    R2        2.10653   0.00006   0.00000   0.00035   0.00035   2.10687
    R3        2.07453   0.00004   0.00000   0.00015   0.00015   2.07468
    R4        2.07453   0.00004   0.00000   0.00015   0.00015   2.07468
    A1        1.65997   0.00000   0.00000  -0.00074  -0.00074   1.65923
    A2        2.04503   0.00000   0.00000   0.00052   0.00052   2.04554
    A3        2.04503   0.00002   0.00000   0.00052   0.00052   2.04554
    A4        1.86017  -0.00001   0.00000  -0.00040  -0.00040   1.85977
    A5        1.86017  -0.00002   0.00000  -0.00040  -0.00040   1.85977
    A6        1.94836   0.00000   0.00000   0.00009   0.00009   1.94845
    D1        1.83099  -0.00000   0.00000  -0.00091  -0.00091   1.83009
    D2       -1.83099   0.00000   0.00000   0.00091   0.00091  -1.83009
    D3        2.42762   0.00003   0.00000   0.00158   0.00158   2.42919
    D4       -2.02457   0.00002   0.00000   0.00067   0.00067  -2.02391
         Item               Value     Threshold  Converged?
 Maximum Force            0.000076     0.000450     YES
 RMS     Force            0.000033     0.000300     YES
 Maximum Displacement     0.000765     0.001800     YES
 RMS     Displacement     0.000391     0.001200     YES
 Predicted change in Energy=-7.698748D-08
 Optimization completed.
    -- Stationary point found.
                           ----------------------------
                           !   Optimized Parameters   !
                           ! (Angstroms and Degrees)  !
 --------------------------                            --------------------------
 ! Name  Definition              Value          Derivative Info.                !
 --------------------------------------------------------------------------------
 ! R1    R(1,2)                  1.435          -DE/DX =   -0.0001              !
 ! R2    R(1,3)                  1.1147         -DE/DX =    0.0001              !
 ! R3    R(1,4)                  1.0978         -DE/DX =    0.0                 !
 ! R4    R(1,5)                  1.0978         -DE/DX =    0.0                 !
 ! A1    A(2,1,3)               95.1093         -DE/DX =    0.0                 !
 ! A2    A(2,1,4)              117.1715         -DE/DX =    0.0                 !
 ! A3    A(2,1,5)              117.1715         -DE/DX =    0.0                 !
 ! A4    A(3,1,4)              106.5798         -DE/DX =    0.0                 !
 ! A5    A(3,1,5)              106.5798         -DE/DX =    0.0                 !
 ! A6    A(4,1,5)              111.6327         -DE/DX =    0.0                 !
 ! D1    D(2,1,4,3)            104.9082         -DE/DX =    0.0                 !
 ! D2    D(2,1,5,3)           -104.9082         -DE/DX =    0.0                 !
 ! D3    D(2,1,5,4)            139.0922         -DE/DX =    0.0                 !
 ! D4    D(3,1,5,4)           -115.9996         -DE/DX =    0.0                 !
 --------------------------------------------------------------------------------
 GradGradGradGradGradGradGradGradGradGradGradGradGradGradGradGradGradGrad


 ----------------------------------------------------------------------

 Electric dipole moment (input orientation):
 (Debye = 10**-18 statcoulomb cm , SI units = C m)
                  (au)            (Debye)         (10**-30 SI)
   Tot        0.106405D+01      0.270455D+01      0.902140D+01
   x         -0.106189D+01     -0.269907D+01     -0.900311D+01
   y          0.000000D+00      0.000000D+00      0.000000D+00
   z          0.677173D-01      0.172120D+00      0.574131D+00

 Dipole polarizability, Alpha (input orientation).
 (esu units = cm**3 , SI units = C**2 m**2 J**-1)
 Alpha(0;0):
               (au)            (10**-24 esu)      (10**-40 SI)
   iso        0.255464D+02      0.378559D+01      0.421203D+01
   aniso      0.849005D+01      0.125810D+01      0.139982D+01
   xx         0.310886D+02      0.460685D+01      0.512582D+01
   yx         0.000000D+00      0.000000D+00      0.000000D+00
   yy         0.237615D+02      0.352109D+01      0.391775D+01
   zx         0.132689D+00      0.196624D-01      0.218774D-01
   zy         0.000000D+00      0.000000D+00      0.000000D+00
   zz         0.217891D+02      0.322881D+01      0.359254D+01

 ----------------------------------------------------------------------

 Dipole orientation:
     6         -0.09578707          0.00000000          1.13320669
     6          0.06444479          0.00000000         -1.57378198
     1          1.98762008          0.00000000          1.44445534
     1         -0.82961038         -1.71613341          2.03877254
     1         -0.82961038          1.71613341          2.03877254

 Electric dipole moment (dipole orientation):
 (Debye = 10**-18 statcoulomb cm , SI units = C m)
                  (au)            (Debye)         (10**-30 SI)
   Tot        0.106405D+01      0.270455D+01      0.902140D+01
   x          0.000000D+00      0.000000D+00      0.000000D+00
   y          0.000000D+00      0.000000D+00      0.000000D+00
   z          0.106405D+01      0.270455D+01      0.902140D+01

 Dipole polarizability, Alpha (dipole orientation).
 (esu units = cm**3 , SI units = C**2 m**2 J**-1)
 Alpha(0;0):
               (au)            (10**-24 esu)      (10**-40 SI)
   iso        0.255464D+02      0.378559D+01      0.421203D+01
   aniso      0.849005D+01      0.125810D+01      0.139982D+01
   xx         0.218436D+02      0.323689D+01      0.360153D+01
   yx         0.000000D+00      0.000000D+00      0.000000D+00
   yy         0.237615D+02      0.352109D+01      0.391775D+01
   zx        -0.722242D+00     -0.107025D+00     -0.119082D+00
   zy         0.000000D+00      0.000000D+00      0.000000D+00
   zz         0.310341D+02      0.459877D+01      0.511683D+01

 ----------------------------------------------------------------------
 1\1\GINC-GAMBA\Freq\UB3LYP\Gen\C2H3(2)\IRIKURA\16-Jun-2022\0\\#N Geom=
 AllCheck Guess=TCheck SCRF=Check GenChk UB3LYP/ChkBas Freq\\ethylidyne
 , B3LYP/pcseg-2\\0,2\C,-0.6016774033,0.,-0.0124221545\C,0.8332916648,0
 .,-0.0189672624\H,-0.6958855271,0.,1.0983165558\H,-1.1046240346,-0.908
 1386893,-0.3694604594\H,-1.1046240346,0.9081386893,-0.3694604594\\Vers
 ion=ES64L-G16RevB.01\State=2-A"\HF=-77.8602911\S2=0.754247\S2-1=0.\S2A
 =0.750011\RMSD=9.918e-10\RMSF=5.966e-05\ZeroPoint=0.0350092\Thermal=0.
 0381675\Dipole=-1.0618942,0.,0.0677173\DipoleDeriv=-0.5749048,0.,0.252
 7282,0.,0.2736349,0.,0.3011745,0.,0.1090252,0.5211448,0.,-0.1430099,0.
 ,-0.3557038,0.,-0.0296438,0.,-0.3806268,0.0734279,0.,-0.0910038,0.,0.1
 494466,0.,-0.1094148,0.,0.0671509,-0.0098339,-0.0391682,-0.0093572,-0.
 0726571,-0.0336888,-0.0556432,-0.0810579,-0.0864279,0.1022254,-0.00983
 39,0.0391682,-0.0093572,0.0726571,-0.0336888,0.0556432,-0.0810579,0.08
 64279,0.1022254\Polar=31.0885835,0.,23.7615263,0.1326885,0.,21.7891154
 \Quadrupole=-2.1361632,0.4295469,1.7066163,0.,-0.1761078,0.\PG=CS [SG(
 C2H1),X(H2)]\NImag=0\\0.48301039,0.,0.47648601,0.05989123,0.,0.3852629
 9,-0.26776476,0.,-0.02362267,0.30770369,0.,-0.02640279,0.,0.,0.0242322
 5,-0.01127301,0.,0.00292031,0.01361563,0.,0.00984058,-0.04197103,0.,0.
 05453183,0.00404630,0.,0.00935435,0.03073862,0.,-0.02420983,0.,0.,-0.0
 0529497,0.,0.,0.03313182,0.02120855,0.,-0.26024509,0.00902151,0.,-0.01
 470585,-0.03418046,0.,0.29349263,-0.08663730,-0.09837827,-0.04540019,-
 0.02199261,-0.01732519,-0.00584848,0.00359306,0.00490399,0.00197520,0.
 09713070,-0.07948881,-0.21293669,-0.06616928,-0.00976587,0.00373276,0.
 00058017,-0.00023534,-0.00181351,0.00001603,0.10014474,0.23178643,-0.0
 3491338,-0.06900940,-0.06396911,0.00049277,0.00480532,0.00097248,-0.01
 485286,-0.02100399,-0.00927084,0.04334680,0.07539058,0.06572024,-0.086
 63730,0.09837827,-0.04540019,-0.02199261,0.01732519,-0.00584848,0.0035
 9306,-0.00490399,0.00197520,0.00790616,-0.01065472,0.00592667,0.097130
 70,0.07948881,-0.21293669,0.06616928,0.00976587,0.00373276,-0.00058017
 ,0.00023534,-0.00181351,-0.00001603,0.01065472,-0.02076899,0.00981750,
 -0.10014474,0.23178643,-0.03491338,0.06900940,-0.06396911,0.00049277,-
 0.00480532,0.00097248,-0.01485286,0.02100399,-0.00927084,0.00592667,-0
 .00981750,0.00654724,0.04334680,-0.07539058,0.06572024\\-0.00016964,0.
 ,0.00009628,0.00007585,0.,-0.00001576,0.00002058,0.,-0.00005376,0.0000
 3660,0.00003863,-0.00001338,0.00003660,-0.00003863,-0.00001338\\\@


 ROSE IS A RED
 TY COBB IS BLUE
 'CAUSE PETE JUST HIT
 NO. 4592.
 Job cpu time:       0 days  0 hours  3 minutes  4.9 seconds.
 Elapsed time:       0 days  0 hours  0 minutes 15.5 seconds.
 File lengths (MBytes):  RWF=     15 Int=      0 D2E=      0 Chk=      2 Scr=      1
 Normal termination of Gaussian 16 at Thu Jun 16 12:27:48 2022.
