 Entering Gaussian System, Link 0=g16
 AtFile(1): pcseg2.gbs
            -H     0
            S   4   1.00
                  0.754732D+02           0.427821D-02
                  0.113575D+02           0.328672D-01
                  0.260081D+01           0.159578D+00
                  0.735503D+00           0.500000D+00
            S   1   1.00
                  0.231761D+00           1.0000000
            S   1   1.00
                  0.741675D-01           1.0000000
            P   1   1.00
                  0.160000D+01           1.0000000
            P   1   1.00
                  0.450000D+00           1.0000000
            D   1   1.00
                  0.125000D+01           1.0000000
            ****
            -C     0
            S   7   1.00
                  0.731999D+04           0.695369D-03
                  0.109818D+04           0.537138D-02
                  0.250014D+03           0.274734D-01
                  0.707586D+02           0.105078D+00
                  0.228595D+02           0.291262D+00
                  0.803936D+01           0.500000D+00
                  0.289309D+01           0.362224D+00
            S   2   1.00
                  0.521640D+01          -0.957844D-01
                  0.556124D+00           0.500000D+00
            S   1   1.00
                  0.228813D+00           1.0000000
            S   1   1.00
                  0.936338D-01           1.0000000
            P   4   1.00
                  0.339855D+02           0.818395D-02
                  0.772957D+01           0.586921D-01
                  0.224954D+01           0.222514D+00
                  0.767681D+00           0.500000D+00
            P   1   1.00
                  0.263283D+00           1.0000000
            P   1   1.00
                  0.848744D-01           1.0000000
            D   1   1.00
                  0.140000D+01           1.0000000
            D   1   1.00
                  0.450000D+00           1.0000000
            F   1   1.00
                  0.950000D+00           1.0000000
            ****
            -O     0
            S   7   1.00
                  0.135887D+05           0.665492D-03
                  0.203847D+04           0.514222D-02
                  0.464041D+03           0.263472D-01
                  0.131339D+03           0.101500D+00
                  0.425340D+02           0.285877D+00
                  0.150429D+02           0.500000D+00
                  0.546616D+01           0.368211D+00
            S   2   1.00
                  0.100915D+02          -0.100084D+00
                  0.110429D+01           0.500000D+00
            S   1   1.00
                  0.448082D+00           1.0000000
            S   1   1.00
                  0.175325D+00           1.0000000
            P   4   1.00
                  0.608220D+02           0.908253D-02
                  0.140332D+02           0.645878D-01
                  0.418244D+01           0.241502D+00
                  0.142490D+01           0.500000D+00
            P   1   1.00
                  0.478741D+00           1.0000000
            P   1   1.00
                  0.146257D+00           1.0000000
            D   1   1.00
                  0.220000D+01           1.0000000
            D   1   1.00
                  0.650000D+00           1.0000000
            F   1   1.00
                  0.110000D+01           1.0000000
            ****
            -N     0
            S   7   1.00
                  0.101643D+05           0.682757D-03
                  0.152481D+04           0.527488D-02
                  0.347119D+03           0.270037D-01
                  0.982389D+02           0.103673D+00
                  0.317799D+02           0.289575D+00
                  0.112240D+02           0.500000D+00
                  0.406611D+01           0.364621D+00
            S   2   1.00
                  0.747898D+01          -0.975681D-01
                  0.805040D+00           0.500000D+00
            S   1   1.00
                  0.324626D+00           1.0000000
            S   1   1.00
                  0.128132D+00           1.0000000
            P   4   1.00
                  0.482704D+02           0.829547D-02
                  0.110815D+02           0.596223D-01
                  0.326643D+01           0.227889D+00
                  0.111680D+01           0.500000D+00
            P   1   1.00
                  0.382049D+00           1.0000000
            P   1   1.00
                  0.121222D+00           1.0000000
            D   1   1.00
                  0.180000D+01           1.0000000
            D   1   1.00
                  0.550000D+00           1.0000000
            F   1   1.00
                  0.102000D+01           1.0000000
            ****
            -F     0
            S   7   1.00
                  0.174507D+05           0.655972D-03
                  0.261768D+04           0.506944D-02
                  0.595857D+03           0.259899D-01
                  0.168651D+03           0.100353D+00
                  0.546654D+02           0.284095D+00
                  0.193717D+02           0.500000D+00
                  0.706202D+01           0.370721D+00
            S   2   1.00
                  0.131197D+02          -0.101997D+00
                  0.145046D+01           0.500000D+00
            S   1   1.00
                  0.588255D+00           1.0000000
            S   1   1.00
                  0.227960D+00           1.0000000
            P   4   1.00
                  0.779407D+02           0.931135D-02
                  0.180425D+02           0.663964D-01
                  0.542342D+01           0.246386D+00
                  0.184876D+01           0.500000D+00
            P   1   1.00
                  0.617455D+00           1.0000000
            P   1   1.00
                  0.185496D+00           1.0000000
            D   1   1.00
                  0.280000D+01           1.0000000
            D   1   1.00
                  0.800000D+00           1.0000000
            F   1   1.00
                  0.120000D+01           1.0000000
            ****
            -Cl     0
            S   8   1.00
                  0.154272D+06           0.222473D-03
                  0.231232D+05           0.172590D-02
                  0.526257D+04           0.899286D-02
                  0.148995D+04           0.367724D-01
                  0.485417D+03           0.121446D+00
                  0.174634D+03           0.304148D+00
                  0.672393D+02           0.500000D+00
                  0.265780D+02           0.360252D+00
            S   3   1.00
                  0.131826D+03          -0.531330D-01
                  0.400703D+02          -0.233346D+00
                  0.789448D+01           0.500000D+00
            S   2   1.00
                  0.427711D+01           0.500000D+00
                  0.196233D+01           0.370517D+00
            S   1   1.00
                  0.520793D+00           1.0000000
            S   1   1.00
                  0.181633D+00           1.0000000
            P   7   1.00
                  0.124440D+04           0.988206D-03
                  0.295109D+03           0.829674D-02
                  0.947224D+02           0.430906D-01
                  0.352588D+02           0.148443D+00
                  0.144211D+02           0.344744D+00
                  0.610371D+01           0.500000D+00
                  0.258886D+01           0.348278D+00
            P   2   1.00
                  0.109447D+02          -0.196768D-01
                  0.104413D+01           0.500000D+00
            P   1   1.00
                  0.376184D+00           1.0000000
            P   1   1.00
                  0.120613D+00           1.0000000
            D   1   1.00
                  0.231000D+01           1.0000000
            D   1   1.00
                  0.520000D+00           1.0000000
            F   1   1.00
                  0.720000D+00           1.0000000
            ****
            -S     0
            S   8   1.00
                  0.134700D+06           0.226231D-03
                  0.201904D+05           0.175488D-02
                  0.459528D+04           0.914190D-02
                  0.130109D+04           0.373551D-01
                  0.423902D+03           0.123121D+00
                  0.152485D+03           0.306801D+00
                  0.586925D+02           0.500000D+00
                  0.231461D+02           0.354358D+00
            S   3   1.00
                  0.116327D+03          -0.491772D-01
                  0.352841D+02          -0.215962D+00
                  0.677831D+01           0.500000D+00
            S   2   1.00
                  0.360404D+01           0.500000D+00
                  0.164871D+01           0.366278D+00
            S   1   1.00
                  0.421821D+00           1.0000000
            S   1   1.00
                  0.147554D+00           1.0000000
            P   7   1.00
                  0.104863D+04           0.105273D-02
                  0.248717D+03           0.879338D-02
                  0.797887D+02           0.453358D-01
                  0.296023D+02           0.154476D+00
                  0.120627D+02           0.352366D+00
                  0.507628D+01           0.500000D+00
                  0.213375D+01           0.346429D+00
            P   2   1.00
                  0.928958D+01          -0.185932D-01
                  0.837819D+00           0.500000D+00
            P   1   1.00
                  0.301495D+00           1.0000000
            P   1   1.00
                  0.974740D-01           1.0000000
            D   1   1.00
                  0.210000D+01           1.0000000
            D   1   1.00
                  0.480000D+00           1.0000000
            F   1   1.00
                  0.660000D+00           1.0000000
            ****
            -Br     0
            S    10   1.00
                  0.233625D+07           0.532336D-04
                  0.349961D+06           0.413715D-03
                  0.796444D+05           0.217123D-02
                  0.225555D+05           0.910109D-02
                  0.735546D+04           0.323789D-01
                  0.265352D+04           0.988755D-01
                  0.103517D+04           0.248138D+00
                  0.422205D+03           0.474328D+00
                  0.180035D+03           0.500000D+00
                  0.793308D+02           0.187769D+00
            S    4   1.00
                  0.620834D+03          -0.226511D-01
                  0.190829D+03          -0.109497D+00
                  0.312505D+02           0.500000D+00
                  0.135270D+02           0.492812D+00
            S    2   1.00
                  0.216097D+02          -0.165418D+00
                  0.372566D+01           0.500000D+00
            S    1   1.00
                  0.169770D+01           1.0000000
            S    1   1.00
                  0.489332D+00           1.0000000
            S    1   1.00
                  0.175712D+00           1.0000000
            P    8   1.00
                  0.960829D+04           0.478974D-03
                  0.227618D+04           0.417853D-02
                  0.736723D+03           0.229315D-01
                  0.281579D+03           0.892653D-01
                  0.118395D+03           0.255288D+00
                  0.527481D+02           0.479074D+00
                  0.245098D+02           0.500000D+00
                  0.112009D+02           0.200944D+00
            P    4   1.00
                  0.587849D+02          -0.189674D-01
                  0.918962D+01           0.264104D+00
                  0.413895D+01           0.500000D+00
                  0.184225D+01           0.319316D+00
            P    1   1.00
                  0.713862D+00           1.0000000
            P    1   1.00
                  0.274232D+00           1.0000000
            P    1   1.00
                  0.944411D-01           1.0000000
            D    7   1.00
                  0.398470D+03           0.204066D-02
                  0.118967D+03           0.175171D-01
                  0.450197D+02           0.829708D-01
                  0.190320D+02           0.236284D+00
                  0.855686D+01           0.428468D+00
                  0.382950D+01           0.500000D+00
                  0.166291D+01           0.349360D+00
            D    1   1.00
                  0.672953D+00           1.0000000
            D    1   1.00
                  0.252000D+00           1.0000000
            F    1   1.00
                  0.530000D+00           1.0000000
            ****
            -Si     0
            S    8   1.00
                  0.996133D+05           0.235546D-03
                  0.149311D+05           0.182707D-02
                  0.339820D+04           0.951425D-02
                  0.962140D+03           0.388172D-01
                  0.313430D+03           0.127328D+00
                  0.112683D+03           0.313522D+00
                  0.433372D+02           0.500000D+00
                  0.170029D+02           0.340347D+00
            S    3   1.00
                  0.884208D+02          -0.404451D-01
                  0.266756D+02          -0.178059D+00
                  0.479640D+01           0.500000D+00
            S    2   1.00
                  0.239385D+01           0.500000D+00
                  0.108333D+01           0.338016D+00
            S    1   1.00
                  0.252420D+00           1.0000000
            S    1   1.00
                  0.891210D-01           1.0000000
            P    7   1.00
                  0.709901D+03           0.123028D-02
                  0.168426D+03           0.101366D-01
                  0.539946D+02           0.511840D-01
                  0.198646D+02           0.169967D+00
                  0.801369D+01           0.370717D+00
                  0.331870D+01           0.500000D+00
                  0.136112D+01           0.344128D+00
            P    2   1.00
                  0.622158D+01          -0.166609D-01
                  0.503049D+00           0.500000D+00
            P    1   1.00
                  0.179848D+00           1.0000000
            P    1   1.00
                  0.591912D-01           1.0000000
            D    1   1.00
                  0.168000D+01           1.0000000
            D    1   1.00
                  0.380000D+00           1.0000000
            F    1   1.00
                  0.540000D+00           1.0000000
            ****
            -P     0
            S    8   1.00
                  0.116416D+06           0.230715D-03
                  0.174500D+05           0.178960D-02
                  0.397149D+04           0.932116D-02
                  0.112447D+04           0.380591D-01
                  0.366347D+03           0.125148D+00
                  0.131757D+03           0.310022D+00
                  0.506988D+02           0.500000D+00
                  0.199436D+02           0.347528D+00
            S    3   1.00
                  0.101878D+03          -0.446755D-01
                  0.308249D+02          -0.196376D+00
                  0.573688D+01           0.500000D+00
            S    2   1.00
                  0.296868D+01           0.500000D+00
                  0.135315D+01           0.355098D+00
            S    1   1.00
                  0.332196D+00           1.0000000
            S    1   1.00
                  0.116229D+00           1.0000000
            P    7   1.00
                  0.873928D+03           0.112375D-02
                  0.207298D+03           0.933330D-02
                  0.664628D+02           0.477213D-01
                  0.245665D+02           0.160733D+00
                  0.996820D+01           0.359760D+00
                  0.416536D+01           0.500000D+00
                  0.173022D+01           0.346593D+00
            P    2   1.00
                  0.772530D+01          -0.175718D-01
                  0.657252D+00           0.500000D+00
            P    1   1.00
                  0.239903D+00           1.0000000
            P    1   1.00
                  0.800988D-01           1.0000000
            D    1   1.00
                  0.189000D+01           1.0000000
            D    1   1.00
                  0.430000D+00           1.0000000
            F    1   1.00
                  0.600000D+00           1.0000000
            ****
            
 Initial command:
 /usr/local/apps/g16_b01_avx/g16/l1.exe "/wrk/irikura/Gau-401877.inp" -scrdir="/wrk/irikura/"
 Entering Link 1 = /usr/local/apps/g16_b01_avx/g16/l1.exe PID=    401879.
  
 Copyright (c) 1988-2017, Gaussian, Inc.  All Rights Reserved.
  
 This is part of the Gaussian(R) 16 program.  It is based on
 the Gaussian(R) 09 system (copyright 2009, Gaussian, Inc.),
 the Gaussian(R) 03 system (copyright 2003, Gaussian, Inc.),
 the Gaussian(R) 98 system (copyright 1998, Gaussian, Inc.),
 the Gaussian(R) 94 system (copyright 1995, Gaussian, Inc.),
 the Gaussian 92(TM) system (copyright 1992, Gaussian, Inc.),
 the Gaussian 90(TM) system (copyright 1990, Gaussian, Inc.),
 the Gaussian 88(TM) system (copyright 1988, Gaussian, Inc.),
 the Gaussian 86(TM) system (copyright 1986, Carnegie Mellon
 University), and the Gaussian 82(TM) system (copyright 1983,
 Carnegie Mellon University). Gaussian is a federally registered
 trademark of Gaussian, Inc.
  
 This software contains proprietary and confidential information,
 including trade secrets, belonging to Gaussian, Inc.
  
 This software is provided under written license and may be
 used, copied, transmitted, or stored only in accord with that
 written license.
  
 The following legend is applicable only to US Government
 contracts under FAR:
  
                    RESTRICTED RIGHTS LEGEND
  
 Use, reproduction and disclosure by the US Government is
 subject to restrictions as set forth in subparagraphs (a)
 and (c) of the Commercial Computer Software - Restricted
 Rights clause in FAR 52.227-19.
  
 Gaussian, Inc.
 340 Quinnipiac St., Bldg. 40, Wallingford CT 06492
  
  
 ---------------------------------------------------------------
 Warning -- This program may not be used in any manner that
 competes with the business of Gaussian, Inc. or will provide
 assistance to any competitor of Gaussian, Inc.  The licensee
 of this program is prohibited from giving any competitor of
 Gaussian, Inc. access to this program.  By using this program,
 the user acknowledges that Gaussian, Inc. is engaged in the
 business of creating and licensing software in the field of
 computational chemistry and represents and warrants to the
 licensee that it is not a competitor of Gaussian, Inc. and that
 it will not use this program in any manner prohibited above.
 ---------------------------------------------------------------
  

 Cite this work as:
 Gaussian 16, Revision B.01,
 M. J. Frisch, G. W. Trucks, H. B. Schlegel, G. E. Scuseria, 
 M. A. Robb, J. R. Cheeseman, G. Scalmani, V. Barone, 
 G. A. Petersson, H. Nakatsuji, X. Li, M. Caricato, A. V. Marenich, 
 J. Bloino, B. G. Janesko, R. Gomperts, B. Mennucci, H. P. Hratchian, 
 J. V. Ortiz, A. F. Izmaylov, J. L. Sonnenberg, D. Williams-Young, 
 F. Ding, F. Lipparini, F. Egidi, J. Goings, B. Peng, A. Petrone, 
 T. Henderson, D. Ranasinghe, V. G. Zakrzewski, J. Gao, N. Rega, 
 G. Zheng, W. Liang, M. Hada, M. Ehara, K. Toyota, R. Fukuda, 
 J. Hasegawa, M. Ishida, T. Nakajima, Y. Honda, O. Kitao, H. Nakai, 
 T. Vreven, K. Throssell, J. A. Montgomery, Jr., J. E. Peralta, 
 F. Ogliaro, M. J. Bearpark, J. J. Heyd, E. N. Brothers, K. N. Kudin, 
 V. N. Staroverov, T. A. Keith, R. Kobayashi, J. Normand, 
 K. Raghavachari, A. P. Rendell, J. C. Burant, S. S. Iyengar, 
 J. Tomasi, M. Cossi, J. M. Millam, M. Klene, C. Adamo, R. Cammi, 
 J. W. Ochterski, R. L. Martin, K. Morokuma, O. Farkas, 
 J. B. Foresman, and D. J. Fox, Gaussian, Inc., Wallingford CT, 2016.
 
 ******************************************
 Gaussian 16:  ES64L-G16RevB.01 20-Dec-2017
                29-Sep-2023 
 ******************************************
 %chk=ch3nh.chk
 %mem=500mw
 %nprocs=4
 Will use up to    4 processors via shared memory.
 ---------------------------------------
 # b3lyp/gen opt freq CPHF(Grid=OneStep)
 ---------------------------------------
 1/18=20,19=15,26=3,38=1/1,3;
 2/9=110,12=2,17=6,18=5,40=1/2;
 3/5=7,11=2,25=1,30=1,71=1,74=-5/1,2,3;
 4//1;
 5/5=2,38=5/2;
 6/7=2,8=2,9=2,10=2,28=1/1;
 7//1,2,3,16;
 1/18=20,19=15,26=3/3(2);
 2/9=110/2;
 99//99;
 2/9=110/2;
 3/5=7,6=1,11=2,25=1,30=1,71=1,74=-5,82=7/1,2,3;
 4/5=5,16=3,69=1/1;
 5/5=2,38=5/2;
 7//1,2,3,16;
 1/18=20,19=15,26=3/3(-5);
 2/9=110/2;
 6/7=2,8=2,9=2,10=2,19=2,28=1/1;
 99/9=1/99;
 ------------------------------
 methyl amidogen, B3LYP/pcseg-2
 ------------------------------
 Symbolic Z-matrix:
 Charge =  0 Multiplicity = 2
 C                    -0.05978  -0.62429   0. 
 N                    -0.05978   0.81301   0. 
 H                     0.91887   1.11519   0. 
 H                    -1.07864  -1.00832   0. 
 H                     0.46843  -1.02608   0.87634 
 H                     0.46843  -1.02608  -0.87634 
 

 GradGradGradGradGradGradGradGradGradGradGradGradGradGradGradGradGradGrad
 Berny optimization.
 Initialization pass.
                           ----------------------------
                           !    Initial Parameters    !
                           ! (Angstroms and Degrees)  !
 --------------------------                            --------------------------
 ! Name  Definition              Value          Derivative Info.                !
 --------------------------------------------------------------------------------
 ! R1    R(1,2)                  1.4373         estimate D2E/DX2                !
 ! R2    R(1,4)                  1.0888         estimate D2E/DX2                !
 ! R3    R(1,5)                  1.0993         estimate D2E/DX2                !
 ! R4    R(1,6)                  1.0993         estimate D2E/DX2                !
 ! R5    R(2,3)                  1.0242         estimate D2E/DX2                !
 ! A1    A(2,1,4)              110.6526         estimate D2E/DX2                !
 ! A2    A(2,1,5)              111.4381         estimate D2E/DX2                !
 ! A3    A(2,1,6)              111.4381         estimate D2E/DX2                !
 ! A4    A(4,1,5)              108.7062         estimate D2E/DX2                !
 ! A5    A(4,1,6)              108.7062         estimate D2E/DX2                !
 ! A6    A(5,1,6)              105.7269         estimate D2E/DX2                !
 ! A7    A(1,2,3)              107.1597         estimate D2E/DX2                !
 ! D1    D(4,1,2,3)            180.0            estimate D2E/DX2                !
 ! D2    D(5,1,2,3)             58.9208         estimate D2E/DX2                !
 ! D3    D(6,1,2,3)            -58.9208         estimate D2E/DX2                !
 --------------------------------------------------------------------------------
 Trust Radius=3.00D-01 FncErr=1.00D-07 GrdErr=1.00D-06 EigMax=2.50D+02 EigMin=1.00D-04
 Number of steps in this run=     25 maximum allowed number of steps=    100.
 GradGradGradGradGradGradGradGradGradGradGradGradGradGradGradGradGradGrad

                          Input orientation:                          
 ---------------------------------------------------------------------
 Center     Atomic      Atomic             Coordinates (Angstroms)
 Number     Number       Type             X           Y           Z
 ---------------------------------------------------------------------
      1          6           0       -0.059777   -0.624293    0.000000
      2          7           0       -0.059777    0.813006    0.000000
      3          1           0        0.918865    1.115192    0.000000
      4          1           0       -1.078635   -1.008325    0.000000
      5          1           0        0.468433   -1.026075    0.876344
      6          1           0        0.468433   -1.026075   -0.876344
 ---------------------------------------------------------------------
                    Distance matrix (angstroms):
                    1          2          3          4          5
     1  C    0.000000
     2  N    1.437299   0.000000
     3  H    1.995883   1.024235   0.000000
     4  H    1.088831   2.086940   2.915361   0.000000
     5  H    1.099279   2.104567   2.357094   1.778121   0.000000
     6  H    1.099279   2.104567   2.357094   1.778121   1.752688
                    6
     6  H    0.000000
 Stoichiometry    CH4N(2)
 Framework group  CS[SG(CH2N),X(H2)]
 Deg. of freedom     8
 Full point group                 CS      NOp   2
 Largest Abelian subgroup         CS      NOp   2
 Largest concise Abelian subgroup CS      NOp   2
                         Standard orientation:                         
 ---------------------------------------------------------------------
 Center     Atomic      Atomic             Coordinates (Angstroms)
 Number     Number       Type             X           Y           Z
 ---------------------------------------------------------------------
      1          6           0       -0.059777   -0.624293    0.000000
      2          7           0       -0.059777    0.813006    0.000000
      3          1           0        0.918865    1.115192    0.000000
      4          1           0       -1.078635   -1.008325    0.000000
      5          1           0        0.468433   -1.026075    0.876344
      6          1           0        0.468433   -1.026075   -0.876344
 ---------------------------------------------------------------------
 Rotational constants (GHZ):         125.5230058          25.5021265          24.3587077
 General basis read from cards:  (5D, 7F)
 There are    85 symmetry adapted cartesian basis functions of A'  symmetry.
 There are    45 symmetry adapted cartesian basis functions of A"  symmetry.
 There are    74 symmetry adapted basis functions of A'  symmetry.
 There are    42 symmetry adapted basis functions of A"  symmetry.
   116 basis functions,   174 primitive gaussians,   130 cartesian basis functions
     9 alpha electrons        8 beta electrons
       nuclear repulsion energy        36.1862102354 Hartrees.
 NAtoms=    6 NActive=    6 NUniq=    5 SFac= 1.44D+00 NAtFMM=   60 NAOKFM=F Big=F
 Integral buffers will be    131072 words long.
 Raffenetti 2 integral format.
 Two-electron integral symmetry is turned on.
 One-electron integrals computed using PRISM.
 NBasis=   116 RedAO= T EigKep=  1.58D-03  NBF=    74    42
 NBsUse=   116 1.00D-06 EigRej= -1.00D+00 NBFU=    74    42
 ExpMin= 7.42D-02 ExpMax= 1.02D+04 ExpMxC= 3.47D+02 IAcc=3 IRadAn=         5 AccDes= 0.00D+00
 Harris functional with IExCor=  402 and IRadAn=       5 diagonalized for initial guess.
 HarFok:  IExCor=  402 AccDes= 0.00D+00 IRadAn=         5 IDoV= 1 UseB2=F ITyADJ=14
 ICtDFT=  3500011 ScaDFX=  1.000000  1.000000  1.000000  1.000000
 FoFCou: FMM=F IPFlag=           0 FMFlag=      100000 FMFlg1=           0
         NFxFlg=           0 DoJE=T BraDBF=F KetDBF=T FulRan=T
         wScrn=  0.000000 ICntrl=       500 IOpCl=  0 I1Cent=   200000004 NGrid=           0
         NMat0=    1 NMatS0=      1 NMatT0=    0 NMatD0=    1 NMtDS0=    0 NMtDT0=    0
 Petite list used in FoFCou.
 Initial guess orbital symmetries:
 Alpha Orbitals:
       Occupied  (A') (A') (A') (A') (A') (A") (A') (A') (A")
       Virtual   (A') (A') (A") (A') (A') (A") (A') (A') (A') (A')
                 (A") (A') (A") (A') (A') (A') (A') (A") (A') (A")
                 (A') (A") (A') (A") (A') (A') (A") (A') (A') (A")
                 (A') (A") (A') (A') (A') (A") (A') (A") (A') (A")
                 (A') (A') (A') (A") (A') (A') (A') (A") (A') (A')
                 (A") (A') (A") (A") (A') (A') (A") (A') (A") (A')
                 (A') (A") (A') (A") (A") (A') (A') (A") (A') (A')
                 (A") (A') (A') (A") (A') (A") (A") (A') (A") (A')
                 (A") (A') (A') (A') (A") (A') (A') (A") (A") (A')
                 (A') (A') (A") (A') (A") (A') (A') (A") (A') (A")
                 (A') (A") (A') (A") (A') (A') (A')
 Beta  Orbitals:
       Occupied  (A') (A') (A') (A') (A') (A") (A') (A')
       Virtual   (A") (A') (A') (A") (A') (A') (A") (A') (A') (A')
                 (A') (A") (A') (A") (A') (A') (A') (A') (A") (A')
                 (A") (A') (A") (A') (A") (A') (A') (A") (A') (A')
                 (A") (A') (A") (A') (A') (A') (A") (A') (A") (A')
                 (A") (A') (A') (A') (A") (A') (A') (A') (A") (A')
                 (A') (A") (A') (A") (A") (A') (A') (A") (A') (A")
                 (A') (A') (A") (A') (A") (A") (A') (A') (A") (A')
                 (A') (A") (A') (A') (A") (A') (A") (A") (A') (A")
                 (A') (A") (A') (A') (A') (A") (A') (A') (A") (A")
                 (A') (A') (A') (A") (A') (A") (A') (A') (A") (A')
                 (A") (A') (A") (A') (A") (A') (A') (A')
 The electronic state of the initial guess is 2-A".
 Initial guess <Sx>= 0.0000 <Sy>= 0.0000 <Sz>= 0.5000 <S**2>= 0.7500 S= 0.5000
 Keep R1 and R2 ints in memory in symmetry-blocked form, NReq=34807212.
 Requested convergence on RMS density matrix=1.00D-08 within 128 cycles.
 Requested convergence on MAX density matrix=1.00D-06.
 Requested convergence on             energy=1.00D-06.
 No special actions if energy rises.
 Integral accuracy reduced to 1.0D-05 until final iterations.
 Initial convergence to 1.0D-05 achieved.  Increase integral accuracy.
 SCF Done:  E(UB3LYP) =  -95.2364460159     A.U. after   13 cycles
            NFock= 13  Conv=0.25D-08     -V/T= 2.0040
 <Sx>= 0.0000 <Sy>= 0.0000 <Sz>= 0.5000 <S**2>= 0.7538 S= 0.5019
 <L.S>=  0.00000000000    
 Annihilation of the first spin contaminant:
 S**2 before annihilation     0.7538,   after     0.7500

 **********************************************************************

            Population analysis using the SCF Density.

 **********************************************************************

 Orbital symmetries:
 Alpha Orbitals:
       Occupied  (A') (A') (A') (A') (A') (A") (A') (A') (A")
       Virtual   (A') (A') (A") (A') (A') (A') (A") (A') (A') (A")
                 (A') (A') (A") (A') (A') (A') (A') (A") (A') (A")
                 (A') (A") (A') (A") (A') (A') (A") (A') (A') (A")
                 (A') (A") (A') (A') (A') (A') (A") (A") (A') (A")
                 (A') (A') (A') (A") (A') (A') (A') (A") (A') (A')
                 (A") (A') (A") (A") (A') (A') (A") (A') (A") (A')
                 (A') (A") (A') (A") (A") (A') (A') (A") (A') (A')
                 (A") (A') (A') (A") (A') (A") (A") (A') (A") (A')
                 (A") (A') (A') (A') (A") (A') (A') (A") (A") (A')
                 (A') (A') (A") (A') (A") (A') (A') (A") (A") (A')
                 (A') (A") (A') (A") (A') (A') (A')
 Beta  Orbitals:
       Occupied  (A') (A') (A') (A') (A') (A") (A') (A')
       Virtual   (A") (A') (A') (A") (A') (A') (A') (A") (A') (A')
                 (A') (A") (A') (A') (A") (A') (A') (A') (A") (A')
                 (A") (A') (A") (A') (A") (A') (A') (A") (A') (A')
                 (A") (A') (A') (A") (A') (A') (A") (A') (A") (A')
                 (A") (A') (A') (A') (A') (A") (A') (A') (A") (A')
                 (A') (A") (A') (A") (A") (A') (A') (A') (A") (A")
                 (A') (A') (A") (A') (A") (A") (A') (A') (A") (A')
                 (A') (A") (A') (A') (A") (A') (A") (A") (A') (A")
                 (A') (A") (A') (A') (A') (A") (A') (A') (A") (A")
                 (A') (A') (A') (A") (A') (A") (A') (A') (A") (A')
                 (A") (A') (A") (A') (A") (A') (A') (A')
 The electronic state is 2-A".
 Alpha  occ. eigenvalues --  -14.33394 -10.19974  -0.88743  -0.66116  -0.47843
 Alpha  occ. eigenvalues --   -0.44968  -0.41176  -0.29511  -0.27591
 Alpha virt. eigenvalues --    0.01017   0.04193   0.07076   0.08026   0.12102
 Alpha virt. eigenvalues --    0.17418   0.18116   0.26437   0.29717   0.30367
 Alpha virt. eigenvalues --    0.31104   0.33385   0.33917   0.36160   0.39415
 Alpha virt. eigenvalues --    0.44401   0.54333   0.66123   0.67825   0.77373
 Alpha virt. eigenvalues --    0.86776   0.92501   0.95208   0.96279   1.00237
 Alpha virt. eigenvalues --    1.04112   1.06132   1.08866   1.16642   1.17316
 Alpha virt. eigenvalues --    1.26592   1.36979   1.38405   1.47336   1.57767
 Alpha virt. eigenvalues --    1.63756   1.63870   1.65402   1.68769   1.69584
 Alpha virt. eigenvalues --    1.74884   1.80662   2.01184   2.03378   2.06686
 Alpha virt. eigenvalues --    2.18712   2.25974   2.51830   2.53077   2.92240
 Alpha virt. eigenvalues --    3.18497   3.21189   3.24323   3.27156   3.27916
 Alpha virt. eigenvalues --    3.30942   3.45983   3.48101   3.53390   3.57566
 Alpha virt. eigenvalues --    3.70823   3.73780   3.77202   3.83050   3.87009
 Alpha virt. eigenvalues --    3.88610   4.00245   4.11083   4.19126   4.21774
 Alpha virt. eigenvalues --    4.27179   4.32631   4.36957   4.38708   4.45455
 Alpha virt. eigenvalues --    4.48915   4.50197   4.54371   4.61014   4.64802
 Alpha virt. eigenvalues --    4.68691   4.70346   4.77307   4.79481   4.87441
 Alpha virt. eigenvalues --    4.97286   5.06672   5.14741   5.22638   5.29715
 Alpha virt. eigenvalues --    5.46086   5.54736   5.58864   5.62688   5.64346
 Alpha virt. eigenvalues --    5.67972   5.74937   5.79203   5.81099   5.81991
 Alpha virt. eigenvalues --    5.85809   5.85907   5.96720   6.10273   6.18681
 Alpha virt. eigenvalues --    6.31081   6.57741
  Beta  occ. eigenvalues --  -14.31432 -10.20046  -0.85079  -0.64483  -0.46782
  Beta  occ. eigenvalues --   -0.42590  -0.40617  -0.27492
  Beta virt. eigenvalues --   -0.09869   0.01210   0.04496   0.07250   0.08100
  Beta virt. eigenvalues --    0.12307   0.17544   0.18652   0.26702   0.30369
  Beta virt. eigenvalues --    0.31915   0.32237   0.33557   0.36736   0.36741
  Beta virt. eigenvalues --    0.40368   0.45155   0.55294   0.66952   0.68186
  Beta virt. eigenvalues --    0.79239   0.86864   0.93109   0.95300   0.96743
  Beta virt. eigenvalues --    1.00644   1.04493   1.06573   1.08929   1.17477
  Beta virt. eigenvalues --    1.19221   1.28821   1.38691   1.38966   1.47645
  Beta virt. eigenvalues --    1.59601   1.64766   1.64847   1.68020   1.68873
  Beta virt. eigenvalues --    1.74716   1.75774   1.81274   2.02287   2.07806
  Beta virt. eigenvalues --    2.08870   2.20573   2.26350   2.53195   2.53585
  Beta virt. eigenvalues --    2.93664   3.20074   3.21993   3.25044   3.27974
  Beta virt. eigenvalues --    3.29922   3.31461   3.48838   3.49087   3.55667
  Beta virt. eigenvalues --    3.60585   3.71374   3.74799   3.77868   3.83721
  Beta virt. eigenvalues --    3.88196   3.89491   4.02087   4.11654   4.20080
  Beta virt. eigenvalues --    4.22493   4.28718   4.33472   4.38075   4.39205
  Beta virt. eigenvalues --    4.45968   4.49996   4.50931   4.54649   4.61704
  Beta virt. eigenvalues --    4.65792   4.70225   4.71742   4.77899   4.80965
  Beta virt. eigenvalues --    4.90168   4.98079   5.07506   5.20919   5.25680
  Beta virt. eigenvalues --    5.32082   5.46530   5.55606   5.62926   5.64391
  Beta virt. eigenvalues --    5.65883   5.69989   5.75328   5.79930   5.82642
  Beta virt. eigenvalues --    5.82802   5.86902   5.87504   5.97183   6.10907
  Beta virt. eigenvalues --    6.19510   6.31762   6.58627
          Condensed to atoms (all electrons):
               1          2          3          4          5          6
     1  C    4.463207   0.268874  -0.035816   0.417426   0.408387   0.408387
     2  N    0.268874   6.811226   0.310732  -0.058349  -0.029815  -0.029815
     3  H   -0.035816   0.310732   0.637137   0.015981  -0.015326  -0.015326
     4  H    0.417426  -0.058349   0.015981   0.663364  -0.041821  -0.041821
     5  H    0.408387  -0.029815  -0.015326  -0.041821   0.675593  -0.024758
     6  H    0.408387  -0.029815  -0.015326  -0.041821  -0.024758   0.675593
          Atomic-Atomic Spin Densities.
               1          2          3          4          5          6
     1  C   -0.035629  -0.054554   0.003861   0.003574   0.012253   0.012253
     2  N   -0.054554   1.062712  -0.002578  -0.002241  -0.019909  -0.019909
     3  H    0.003861  -0.002578  -0.020573  -0.000192   0.000162   0.000162
     4  H    0.003574  -0.002241  -0.000192  -0.001055   0.000758   0.000758
     5  H    0.012253  -0.019909   0.000162   0.000758   0.083289  -0.020415
     6  H    0.012253  -0.019909   0.000162   0.000758  -0.020415   0.083289
 Mulliken charges and spin densities:
               1          2
     1  C    0.069536  -0.058242
     2  N   -0.272854   0.963520
     3  H    0.102618  -0.019158
     4  H    0.045220   0.001602
     5  H    0.027740   0.056139
     6  H    0.027740   0.056139
 Sum of Mulliken charges =  -0.00000   1.00000
 Mulliken charges and spin densities with hydrogens summed into heavy atoms:
               1          2
     1  C    0.170236   0.055638
     2  N   -0.170236   0.944362
 Electronic spatial extent (au):  <R**2>=             85.7129
 Charge=             -0.0000 electrons
 Dipole moment (field-independent basis, Debye):
    X=              1.4759    Y=             -1.4176    Z=             -0.0000  Tot=              2.0464
 Quadrupole moment (field-independent basis, Debye-Ang):
   XX=            -13.0323   YY=            -14.8969   ZZ=            -13.5785
   XY=              2.0700   XZ=             -0.0000   YZ=              0.0000
 Traceless Quadrupole moment (field-independent basis, Debye-Ang):
   XX=              0.8036   YY=             -1.0610   ZZ=              0.2574
   XY=              2.0700   XZ=             -0.0000   YZ=              0.0000
 Octapole moment (field-independent basis, Debye-Ang**2):
  XXX=              1.3557  YYY=             -1.3601  ZZZ=              0.0000  XYY=              2.8485
  XXY=              0.1914  XXZ=             -0.0000  XZZ=              0.9350  YZZ=             -0.5028
  YYZ=             -0.0000  XYZ=             -0.0000
 Hexadecapole moment (field-independent basis, Debye-Ang**3):
 XXXX=            -23.7696 YYYY=            -73.5389 ZZZZ=            -21.0089 XXXY=              1.0471
 XXXZ=             -0.0000 YYYX=              1.9192 YYYZ=             -0.0000 ZZZX=              0.0000
 ZZZY=              0.0000 XXYY=            -15.1147 XXZZ=             -7.7199 YYZZ=            -15.2663
 XXYZ=              0.0000 YYXZ=              0.0000 ZZXY=             -0.9088
 N-N= 3.618621023539D+01 E-N=-2.940990514671D+02  KE= 9.485989087498D+01
 Symmetry A'   KE= 9.107582269275D+01
 Symmetry A"   KE= 3.784068182230D+00
 Symmetry A'   SP=-1.193664663776D-14
 Symmetry A"   SP= 1.000000000000D+00
                          Isotropic Fermi Contact Couplings
        Atom                 a.u.       MegaHertz       Gauss      10(-4) cm-1
     1  C(13)             -0.03114     -35.00209     -12.48962     -11.67544
     2  N(14)              0.19112      61.75290      22.03497      20.59855
     3  H(1)              -0.01279     -57.17236     -20.40052     -19.07065
     4  H(1)              -0.00020      -0.87419      -0.31193      -0.29160
     5  H(1)               0.03084     137.83484      49.18290      45.97675
     6  H(1)               0.03084     137.83484      49.18290      45.97675
 --------------------------------------------------------
       Center         ----  Spin Dipole Couplings  ----
                      3XX-RR        3YY-RR        3ZZ-RR
 --------------------------------------------------------
     1   Atom       -0.034012      0.023037      0.010975
     2   Atom       -1.116670     -1.116767      2.233436
     3   Atom        0.091132     -0.078982     -0.012150
     4   Atom       -0.002272      0.011474     -0.009202
     5   Atom       -0.006657      0.012324     -0.005667
     6   Atom       -0.006657      0.012324     -0.005667
 --------------------------------------------------------
                        XY            XZ            YZ
 --------------------------------------------------------
     1   Atom        0.000049     -0.000000      0.000000
     2   Atom        0.015558     -0.000000      0.000000
     3   Atom        0.061515      0.000000     -0.000000
     4   Atom        0.013513     -0.000000      0.000000
     5   Atom       -0.007345      0.006674     -0.011702
     6   Atom       -0.007345     -0.006674      0.011702
 --------------------------------------------------------


 ---------------------------------------------------------------------------------
              Anisotropic Spin Dipole Couplings in Principal Axis System
 ---------------------------------------------------------------------------------

       Atom             a.u.   MegaHertz   Gauss  10(-4) cm-1        Axes

              Baa    -0.0340    -4.564    -1.629    -1.522  1.0000 -0.0009  0.0000
     1 C(13)  Bbb     0.0110     1.473     0.526     0.491  0.0000  0.0000  1.0000
              Bcc     0.0230     3.091     1.103     1.031  0.0009  1.0000  0.0000
 
              Baa    -1.1323   -43.669   -15.582   -14.567 -0.7060  0.7082 -0.0000
     2 N(14)  Bbb    -1.1012   -42.469   -15.154   -14.166  0.7082  0.7060 -0.0000
              Bcc     2.2334    86.139    30.736    28.733  0.0000  0.0000  1.0000
 
              Baa    -0.0989   -52.766   -18.828   -17.601 -0.3080  0.9514 -0.0000
     3 H(1)   Bbb    -0.0122    -6.483    -2.313    -2.162  0.0000  0.0000  1.0000
              Bcc     0.1110    59.249    21.141    19.763  0.9514  0.3080  0.0000
 
              Baa    -0.0106    -5.634    -2.010    -1.879  0.8525 -0.5228 -0.0000
     4 H(1)   Bbb    -0.0092    -4.910    -1.752    -1.638  0.0000  0.0000  1.0000
              Bcc     0.0198    10.544     3.762     3.517  0.5228  0.8525  0.0000
 
              Baa    -0.0134    -7.143    -2.549    -2.383 -0.5721  0.1987  0.7957
     5 H(1)   Bbb    -0.0080    -4.255    -1.518    -1.419  0.7532  0.5112  0.4139
              Bcc     0.0214    11.398     4.067     3.802 -0.3245  0.8362 -0.4422
 
              Baa    -0.0134    -7.143    -2.549    -2.383  0.5721 -0.1987  0.7957
     6 H(1)   Bbb    -0.0080    -4.255    -1.518    -1.419  0.7532  0.5112 -0.4139
              Bcc     0.0214    11.398     4.067     3.802 -0.3245  0.8362  0.4422
 

 ---------------------------------------------------------------------------------

 Calling FoFJK, ICntrl=      2127 FMM=F ISym2X=1 I1Cent= 0 IOpClX= 1 NMat=1 NMatS=1 NMatT=0.
 ***** Axes restored to original set *****
 -------------------------------------------------------------------
 Center     Atomic                   Forces (Hartrees/Bohr)
 Number     Number              X              Y              Z
 -------------------------------------------------------------------
      1        6          -0.000175671    0.000277599   -0.000000000
      2        7           0.000046671   -0.000089656    0.000000000
      3        1           0.000075292    0.000123131    0.000000000
      4        1          -0.000090190   -0.000140936   -0.000000000
      5        1           0.000071948   -0.000085069    0.000057552
      6        1           0.000071948   -0.000085069   -0.000057552
 -------------------------------------------------------------------
 Cartesian Forces:  Max     0.000277599 RMS     0.000104991

 GradGradGradGradGradGradGradGradGradGradGradGradGradGradGradGradGradGrad
 Berny optimization.
 FormGI is forming the generalized inverse of G from B-inverse, IUseBI=4.
 Internal  Forces:  Max     0.000184923 RMS     0.000092643
 Search for a local minimum.
 Step number   1 out of a maximum of   25
 All quantities printed in internal units (Hartrees-Bohrs-Radians)
 Mixed Optimization -- En-DIIS/RFO-DIIS
 Second derivative matrix not updated -- first step.
 The second derivative matrix:
                          R1        R2        R3        R4        R5
           R1           0.39958
           R2           0.00000   0.34948
           R3           0.00000   0.00000   0.33762
           R4           0.00000   0.00000   0.00000   0.33762
           R5           0.00000   0.00000   0.00000   0.00000   0.43669
           A1           0.00000   0.00000   0.00000   0.00000   0.00000
           A2           0.00000   0.00000   0.00000   0.00000   0.00000
           A3           0.00000   0.00000   0.00000   0.00000   0.00000
           A4           0.00000   0.00000   0.00000   0.00000   0.00000
           A5           0.00000   0.00000   0.00000   0.00000   0.00000
           A6           0.00000   0.00000   0.00000   0.00000   0.00000
           A7           0.00000   0.00000   0.00000   0.00000   0.00000
           D1           0.00000   0.00000   0.00000   0.00000   0.00000
           D2           0.00000   0.00000   0.00000   0.00000   0.00000
           D3           0.00000   0.00000   0.00000   0.00000   0.00000
                          A1        A2        A3        A4        A5
           A1           0.16000
           A2           0.00000   0.16000
           A3           0.00000   0.00000   0.16000
           A4           0.00000   0.00000   0.00000   0.16000
           A5           0.00000   0.00000   0.00000   0.00000   0.16000
           A6           0.00000   0.00000   0.00000   0.00000   0.00000
           A7           0.00000   0.00000   0.00000   0.00000   0.00000
           D1           0.00000   0.00000   0.00000   0.00000   0.00000
           D2           0.00000   0.00000   0.00000   0.00000   0.00000
           D3           0.00000   0.00000   0.00000   0.00000   0.00000
                          A6        A7        D1        D2        D3
           A6           0.16000
           A7           0.00000   0.16000
           D1           0.00000   0.00000   0.01198
           D2           0.00000   0.00000   0.00000   0.01198
           D3           0.00000   0.00000   0.00000   0.00000   0.01198
 ITU=  0
     Eigenvalues ---    0.01198   0.09956   0.10022   0.16000   0.16000
     Eigenvalues ---    0.16000   0.16000   0.33762   0.33762   0.34948
     Eigenvalues ---    0.39958   0.43669
 RFO step:  Lambda=-6.39762017D-07 EMin= 1.19838612D-02
 Linear search not attempted -- first point.
 Iteration  1 RMS(Cart)=  0.00062283 RMS(Int)=  0.00000021
 Iteration  2 RMS(Cart)=  0.00000018 RMS(Int)=  0.00000009
 ClnCor:  largest displacement from symmetrization is 7.87D-14 for atom     6.
 Variable       Old X    -DE/DX   Delta X   Delta X   Delta X     New X
                                 (Linear)    (Quad)   (Total)
    R1        2.71610   0.00003   0.00000   0.00008   0.00008   2.71619
    R2        2.05759   0.00013   0.00000   0.00038   0.00038   2.05798
    R3        2.07734   0.00011   0.00000   0.00033   0.00033   2.07767
    R4        2.07734   0.00011   0.00000   0.00033   0.00033   2.07767
    R5        1.93552   0.00011   0.00000   0.00025   0.00025   1.93577
    A1        1.93125   0.00014   0.00000   0.00099   0.00099   1.93224
    A2        1.94496   0.00002   0.00000   0.00010   0.00010   1.94506
    A3        1.94496   0.00002   0.00000   0.00010   0.00010   1.94506
    A4        1.89728  -0.00006   0.00000  -0.00028  -0.00028   1.89700
    A5        1.89728  -0.00006   0.00000  -0.00028  -0.00028   1.89700
    A6        1.84528  -0.00009   0.00000  -0.00072  -0.00072   1.84456
    A7        1.87029   0.00018   0.00000   0.00116   0.00116   1.87145
    D1        3.14159  -0.00000   0.00000   0.00000   0.00000   3.14159
    D2        1.02836  -0.00004   0.00000  -0.00039  -0.00039   1.02797
    D3       -1.02836   0.00004   0.00000   0.00039   0.00039  -1.02797
         Item               Value     Threshold  Converged?
 Maximum Force            0.000185     0.000450     YES
 RMS     Force            0.000093     0.000300     YES
 Maximum Displacement     0.001670     0.001800     YES
 RMS     Displacement     0.000623     0.001200     YES
 Predicted change in Energy=-3.198917D-07
 Optimization completed.
    -- Stationary point found.
                           ----------------------------
                           !   Optimized Parameters   !
                           ! (Angstroms and Degrees)  !
 --------------------------                            --------------------------
 ! Name  Definition              Value          Derivative Info.                !
 --------------------------------------------------------------------------------
 ! R1    R(1,2)                  1.4373         -DE/DX =    0.0                 !
 ! R2    R(1,4)                  1.0888         -DE/DX =    0.0001              !
 ! R3    R(1,5)                  1.0993         -DE/DX =    0.0001              !
 ! R4    R(1,6)                  1.0993         -DE/DX =    0.0001              !
 ! R5    R(2,3)                  1.0242         -DE/DX =    0.0001              !
 ! A1    A(2,1,4)              110.6526         -DE/DX =    0.0001              !
 ! A2    A(2,1,5)              111.4381         -DE/DX =    0.0                 !
 ! A3    A(2,1,6)              111.4381         -DE/DX =    0.0                 !
 ! A4    A(4,1,5)              108.7062         -DE/DX =   -0.0001              !
 ! A5    A(4,1,6)              108.7062         -DE/DX =   -0.0001              !
 ! A6    A(5,1,6)              105.7269         -DE/DX =   -0.0001              !
 ! A7    A(1,2,3)              107.1597         -DE/DX =    0.0002              !
 ! D1    D(4,1,2,3)            180.0            -DE/DX =    0.0                 !
 ! D2    D(5,1,2,3)             58.9208         -DE/DX =    0.0                 !
 ! D3    D(6,1,2,3)            -58.9208         -DE/DX =    0.0                 !
 --------------------------------------------------------------------------------
 GradGradGradGradGradGradGradGradGradGradGradGradGradGradGradGradGradGrad

                          Input orientation:                          
 ---------------------------------------------------------------------
 Center     Atomic      Atomic             Coordinates (Angstroms)
 Number     Number       Type             X           Y           Z
 ---------------------------------------------------------------------
      1          6           0       -0.059777   -0.624293    0.000000
      2          7           0       -0.059777    0.813006    0.000000
      3          1           0        0.918865    1.115192    0.000000
      4          1           0       -1.078635   -1.008325    0.000000
      5          1           0        0.468433   -1.026075    0.876344
      6          1           0        0.468433   -1.026075   -0.876344
 ---------------------------------------------------------------------
                    Distance matrix (angstroms):
                    1          2          3          4          5
     1  C    0.000000
     2  N    1.437299   0.000000
     3  H    1.995883   1.024235   0.000000
     4  H    1.088831   2.086940   2.915361   0.000000
     5  H    1.099279   2.104567   2.357094   1.778121   0.000000
     6  H    1.099279   2.104567   2.357094   1.778121   1.752688
                    6
     6  H    0.000000
 Stoichiometry    CH4N(2)
 Framework group  CS[SG(CH2N),X(H2)]
 Deg. of freedom     8
 Full point group                 CS      NOp   2
 Largest Abelian subgroup         CS      NOp   2
 Largest concise Abelian subgroup CS      NOp   2
                         Standard orientation:                         
 ---------------------------------------------------------------------
 Center     Atomic      Atomic             Coordinates (Angstroms)
 Number     Number       Type             X           Y           Z
 ---------------------------------------------------------------------
      1          6           0       -0.059777   -0.624293    0.000000
      2          7           0       -0.059777    0.813006    0.000000
      3          1           0        0.918865    1.115192    0.000000
      4          1           0       -1.078635   -1.008325    0.000000
      5          1           0        0.468433   -1.026075    0.876344
      6          1           0        0.468433   -1.026075   -0.876344
 ---------------------------------------------------------------------
 Rotational constants (GHZ):         125.5230058          25.5021265          24.3587077
 1\1\GINC-GAMBA\FOpt\UB3LYP\Gen\C1H4N1(2)\IRIKURA\29-Sep-2023\0\\# b3ly
 p/gen opt freq CPHF(Grid=OneStep)\\methyl amidogen, B3LYP/pcseg-2\\0,2
 \C,-0.059777,-0.624293,0.\N,-0.059777,0.813006,0.\H,0.918865,1.115192,
 0.\H,-1.078635,-1.008325,0.\H,0.468433,-1.026075,0.876344\H,0.468433,-
 1.026075,-0.876344\\Version=ES64L-G16RevB.01\State=2-A"\HF=-95.236446\
 S2=0.753816\S2-1=0.\S2A=0.750011\RMSD=2.537e-09\RMSF=1.050e-04\Dipole=
 0.5806449,-0.5577189,0.\Quadrupole=0.597466,-0.788831,0.191365,1.53897
 65,0.,0.\PG=CS [SG(C1H2N1),X(H2)]\\@


 SLITHERY-DITHERY
 FRIEDRICH A. KEKULE
 DREAMT ON A BUS OF THINGS
 FREUD WOULD THINK KEEN.
 MOST OF THE TIME THEY WERE
 HERPETOLOGICAL
 BITING THEIR TAILS IN THE
 SHAPE OF BENZENE.
 Job cpu time:       0 days  0 hours  0 minutes 33.2 seconds.
 Elapsed time:       0 days  0 hours  0 minutes  8.5 seconds.
 File lengths (MBytes):  RWF=     15 Int=      0 D2E=      0 Chk=      2 Scr=      1
 Normal termination of Gaussian 16 at Fri Sep 29 16:57:25 2023.
 Link1:  Proceeding to internal job step number  2.
 ------------------------------------------------------------------
 #N Geom=AllCheck Guess=TCheck SCRF=Check GenChk UB3LYP/ChkBas Freq
 ------------------------------------------------------------------
 1/10=4,29=7,30=1,38=1,40=1/1,3;
 2/12=2,40=1/2;
 3/5=7,6=2,11=2,14=-4,25=1,30=1,67=1,70=2,71=2,74=-5,82=7,116=2,140=1/1,2,3;
 4/5=101/1;
 5/5=2,38=6,98=1/2;
 8/6=4,10=90,11=11/1;
 11/6=1,8=1,9=11,15=111,16=1/1,2,10;
 10/6=1,60=-420/2;
 6/7=2,8=2,9=2,10=2,28=1/1;
 7/8=1,10=1,25=1/1,2,3,16;
 1/10=4,30=1/3;
 99//99;
 Structure from the checkpoint file:  "ch3nh.chk"
 ------------------------------
 methyl amidogen, B3LYP/pcseg-2
 ------------------------------
 Charge =  0 Multiplicity = 2
 Redundant internal coordinates found in file.  (old form).
 C,0,-0.059777,-0.624293,0.
 N,0,-0.059777,0.813006,0.
 H,0,0.918865,1.115192,0.
 H,0,-1.078635,-1.008325,0.
 H,0,0.468433,-1.026075,0.876344
 H,0,0.468433,-1.026075,-0.876344
 Recover connectivity data from disk.

 GradGradGradGradGradGradGradGradGradGradGradGradGradGradGradGradGradGrad
 Berny optimization.
 Initialization pass.
                           ----------------------------
                           !    Initial Parameters    !
                           ! (Angstroms and Degrees)  !
 --------------------------                            --------------------------
 ! Name  Definition              Value          Derivative Info.                !
 --------------------------------------------------------------------------------
 ! R1    R(1,2)                  1.4373         calculate D2E/DX2 analytically  !
 ! R2    R(1,4)                  1.0888         calculate D2E/DX2 analytically  !
 ! R3    R(1,5)                  1.0993         calculate D2E/DX2 analytically  !
 ! R4    R(1,6)                  1.0993         calculate D2E/DX2 analytically  !
 ! R5    R(2,3)                  1.0242         calculate D2E/DX2 analytically  !
 ! A1    A(2,1,4)              110.6526         calculate D2E/DX2 analytically  !
 ! A2    A(2,1,5)              111.4381         calculate D2E/DX2 analytically  !
 ! A3    A(2,1,6)              111.4381         calculate D2E/DX2 analytically  !
 ! A4    A(4,1,5)              108.7062         calculate D2E/DX2 analytically  !
 ! A5    A(4,1,6)              108.7062         calculate D2E/DX2 analytically  !
 ! A6    A(5,1,6)              105.7269         calculate D2E/DX2 analytically  !
 ! A7    A(1,2,3)              107.1597         calculate D2E/DX2 analytically  !
 ! D1    D(4,1,2,3)            180.0            calculate D2E/DX2 analytically  !
 ! D2    D(5,1,2,3)             58.9208         calculate D2E/DX2 analytically  !
 ! D3    D(6,1,2,3)            -58.9208         calculate D2E/DX2 analytically  !
 --------------------------------------------------------------------------------
 Trust Radius=3.00D-01 FncErr=1.00D-07 GrdErr=1.00D-07 EigMax=2.50D+02 EigMin=1.00D-04
 Number of steps in this run=      2 maximum allowed number of steps=      2.
 GradGradGradGradGradGradGradGradGradGradGradGradGradGradGradGradGradGrad

                          Input orientation:                          
 ---------------------------------------------------------------------
 Center     Atomic      Atomic             Coordinates (Angstroms)
 Number     Number       Type             X           Y           Z
 ---------------------------------------------------------------------
      1          6           0       -0.059777   -0.624293    0.000000
      2          7           0       -0.059777    0.813006    0.000000
      3          1           0        0.918865    1.115192    0.000000
      4          1           0       -1.078635   -1.008325    0.000000
      5          1           0        0.468433   -1.026075    0.876344
      6          1           0        0.468433   -1.026075   -0.876344
 ---------------------------------------------------------------------
                    Distance matrix (angstroms):
                    1          2          3          4          5
     1  C    0.000000
     2  N    1.437299   0.000000
     3  H    1.995883   1.024235   0.000000
     4  H    1.088831   2.086940   2.915361   0.000000
     5  H    1.099279   2.104567   2.357094   1.778121   0.000000
     6  H    1.099279   2.104567   2.357094   1.778121   1.752688
                    6
     6  H    0.000000
 Stoichiometry    CH4N(2)
 Framework group  CS[SG(CH2N),X(H2)]
 Deg. of freedom     8
 Full point group                 CS      NOp   2
 Largest Abelian subgroup         CS      NOp   2
 Largest concise Abelian subgroup CS      NOp   2
                         Standard orientation:                         
 ---------------------------------------------------------------------
 Center     Atomic      Atomic             Coordinates (Angstroms)
 Number     Number       Type             X           Y           Z
 ---------------------------------------------------------------------
      1          6           0       -0.059777   -0.624293    0.000000
      2          7           0       -0.059777    0.813006    0.000000
      3          1           0        0.918865    1.115192    0.000000
      4          1           0       -1.078635   -1.008325    0.000000
      5          1           0        0.468433   -1.026075    0.876344
      6          1           0        0.468433   -1.026075   -0.876344
 ---------------------------------------------------------------------
 Rotational constants (GHZ):         125.5230058          25.5021265          24.3587077
 Basis read from chk: "ch3nh.chk" (5D, 7F)
 There are    85 symmetry adapted cartesian basis functions of A'  symmetry.
 There are    45 symmetry adapted cartesian basis functions of A"  symmetry.
 There are    74 symmetry adapted basis functions of A'  symmetry.
 There are    42 symmetry adapted basis functions of A"  symmetry.
   116 basis functions,   174 primitive gaussians,   130 cartesian basis functions
     9 alpha electrons        8 beta electrons
       nuclear repulsion energy        36.1862102354 Hartrees.
 NAtoms=    6 NActive=    6 NUniq=    5 SFac= 1.44D+00 NAtFMM=   60 NAOKFM=F Big=F
 Integral buffers will be    131072 words long.
 Raffenetti 2 integral format.
 Two-electron integral symmetry is turned on.
 One-electron integrals computed using PRISM.
 NBasis=   116 RedAO= T EigKep=  1.58D-03  NBF=    74    42
 NBsUse=   116 1.00D-06 EigRej= -1.00D+00 NBFU=    74    42
 Initial guess from the checkpoint file:  "ch3nh.chk"
 B after Tr=     0.000000    0.000000    0.000000
         Rot=    1.000000    0.000000    0.000000    0.000000 Ang=   0.00 deg.
 Initial guess orbital symmetries:
 Alpha Orbitals:
       Occupied  (A') (A') (A') (A') (A') (A") (A') (A') (A")
       Virtual   (A') (A') (A") (A') (A') (A') (A") (A') (A') (A")
                 (A') (A') (A") (A') (A') (A') (A') (A") (A') (A")
                 (A') (A") (A') (A") (A') (A') (A") (A') (A') (A")
                 (A') (A") (A') (A') (A') (A') (A") (A") (A') (A")
                 (A') (A') (A') (A") (A') (A') (A') (A") (A') (A')
                 (A") (A') (A") (A") (A') (A') (A") (A') (A") (A')
                 (A') (A") (A') (A") (A") (A') (A') (A") (A') (A')
                 (A") (A') (A') (A") (A') (A") (A") (A') (A") (A')
                 (A") (A') (A') (A') (A") (A') (A') (A") (A") (A')
                 (A') (A') (A") (A') (A") (A') (A') (A") (A") (A')
                 (A') (A") (A') (A") (A') (A') (A')
 Beta  Orbitals:
       Occupied  (A') (A') (A') (A') (A') (A") (A') (A')
       Virtual   (A") (A') (A') (A") (A') (A') (A') (A") (A') (A')
                 (A') (A") (A') (A') (A") (A') (A') (A') (A") (A')
                 (A") (A') (A") (A') (A") (A') (A') (A") (A') (A')
                 (A") (A') (A') (A") (A') (A') (A") (A') (A") (A')
                 (A") (A') (A') (A') (A') (A") (A') (A') (A") (A')
                 (A') (A") (A') (A") (A") (A') (A') (A') (A") (A")
                 (A') (A') (A") (A') (A") (A") (A') (A') (A") (A')
                 (A') (A") (A') (A') (A") (A') (A") (A") (A') (A")
                 (A') (A") (A') (A') (A') (A") (A') (A') (A") (A")
                 (A') (A') (A') (A") (A') (A") (A') (A') (A") (A')
                 (A") (A') (A") (A') (A") (A') (A') (A')
 Initial guess <Sx>= 0.0000 <Sy>= 0.0000 <Sz>= 0.5000 <S**2>= 0.7538 S= 0.5019
 Keep R1 and R2 ints in memory in symmetry-blocked form, NReq=34807212.
 Requested convergence on RMS density matrix=1.00D-08 within 128 cycles.
 Requested convergence on MAX density matrix=1.00D-06.
 Requested convergence on             energy=1.00D-06.
 No special actions if energy rises.
 SCF Done:  E(UB3LYP) =  -95.2364460159     A.U. after    1 cycles
            NFock=  1  Conv=0.68D-09     -V/T= 2.0040
 <Sx>= 0.0000 <Sy>= 0.0000 <Sz>= 0.5000 <S**2>= 0.7538 S= 0.5019
 <L.S>=  0.00000000000    
 Annihilation of the first spin contaminant:
 S**2 before annihilation     0.7538,   after     0.7500
 DoSCS=F DFT=T ScalE2(SS,OS)=  1.000000  1.000000
 Range of M.O.s used for correlation:     1   116
 NBasis=   116 NAE=     9 NBE=     8 NFC=     0 NFV=     0
 NROrb=    116 NOA=     9 NOB=     8 NVA=   107 NVB=   108

 **** Warning!!: The largest alpha MO coefficient is  0.10868996D+02


 **** Warning!!: The largest beta MO coefficient is  0.10602590D+02

 Symmetrizing basis deriv contribution to polar:
 IMax=3 JMax=2 DiffMx= 0.00D+00
 G2DrvN: will do     7 centers at a time, making    1 passes.
 Calling FoFCou, ICntrl=  3107 FMM=F I1Cent=   0 AccDes= 0.00D+00.
 End of G2Drv F.D. properties file   721 does not exist.
 End of G2Drv F.D. properties file   722 does not exist.
 End of G2Drv F.D. properties file   788 does not exist.
          IDoAtm=111111
          Differentiating once with respect to electric field.
                with respect to dipole field.
          Differentiating once with respect to nuclear coordinates.
 Keep R1 and R2 ints in memory in symmetry-blocked form, NReq=34811068.
          There are    18 degrees of freedom in the 1st order CPHF.  IDoFFX=4 NUNeed=    18.
     18 vectors produced by pass  0 Test12= 1.01D-14 5.56D-09 XBig12= 3.17D+01 2.78D+00.
 AX will form    18 AO Fock derivatives at one time.
     18 vectors produced by pass  1 Test12= 1.01D-14 5.56D-09 XBig12= 1.87D+00 4.18D-01.
     18 vectors produced by pass  2 Test12= 1.01D-14 5.56D-09 XBig12= 3.93D-02 7.36D-02.
     18 vectors produced by pass  3 Test12= 1.01D-14 5.56D-09 XBig12= 2.63D-04 5.23D-03.
     18 vectors produced by pass  4 Test12= 1.01D-14 5.56D-09 XBig12= 1.46D-06 3.55D-04.
     18 vectors produced by pass  5 Test12= 1.01D-14 5.56D-09 XBig12= 4.53D-09 1.51D-05.
     10 vectors produced by pass  6 Test12= 1.01D-14 5.56D-09 XBig12= 1.31D-11 6.72D-07.
      3 vectors produced by pass  7 Test12= 1.01D-14 5.56D-09 XBig12= 2.79D-14 2.75D-08.
 InvSVY:  IOpt=1 It=  1 EMax= 4.44D-15
 Solved reduced A of dimension   121 with    18 vectors.
 Isotropic polarizability for W=    0.000000       22.27 Bohr**3.
 End of Minotr F.D. properties file   721 does not exist.
 End of Minotr F.D. properties file   722 does not exist.
 End of Minotr F.D. properties file   788 does not exist.

 **********************************************************************

            Population analysis using the SCF Density.

 **********************************************************************

 Orbital symmetries:
 Alpha Orbitals:
       Occupied  (A') (A') (A') (A') (A') (A") (A') (A') (A")
       Virtual   (A') (A') (A") (A') (A') (A') (A") (A') (A') (A")
                 (A') (A') (A") (A') (A') (A') (A') (A") (A') (A")
                 (A') (A") (A') (A") (A') (A') (A") (A') (A') (A")
                 (A') (A") (A') (A') (A') (A') (A") (A") (A') (A")
                 (A') (A') (A') (A") (A') (A') (A') (A") (A') (A')
                 (A") (A') (A") (A") (A') (A') (A") (A') (A") (A')
                 (A') (A") (A') (A") (A") (A') (A') (A") (A') (A')
                 (A") (A') (A') (A") (A') (A") (A") (A') (A") (A')
                 (A") (A') (A') (A') (A") (A') (A') (A") (A") (A')
                 (A') (A') (A") (A') (A") (A') (A') (A") (A") (A')
                 (A') (A") (A') (A") (A') (A') (A')
 Beta  Orbitals:
       Occupied  (A') (A') (A') (A') (A') (A") (A') (A')
       Virtual   (A") (A') (A') (A") (A') (A') (A') (A") (A') (A')
                 (A') (A") (A') (A') (A") (A') (A') (A') (A") (A')
                 (A") (A') (A") (A') (A") (A') (A') (A") (A') (A')
                 (A") (A') (A') (A") (A') (A') (A") (A') (A") (A')
                 (A") (A') (A') (A') (A') (A") (A') (A') (A") (A')
                 (A') (A") (A') (A") (A") (A') (A') (A') (A") (A")
                 (A') (A') (A") (A') (A") (A") (A') (A') (A") (A')
                 (A') (A") (A') (A') (A") (A') (A") (A") (A') (A")
                 (A') (A") (A') (A') (A') (A") (A') (A') (A") (A")
                 (A') (A') (A') (A") (A') (A") (A') (A') (A") (A')
                 (A") (A') (A") (A') (A") (A') (A') (A')
 The electronic state is 2-A".
 Alpha  occ. eigenvalues --  -14.33394 -10.19974  -0.88743  -0.66116  -0.47843
 Alpha  occ. eigenvalues --   -0.44968  -0.41176  -0.29511  -0.27591
 Alpha virt. eigenvalues --    0.01017   0.04193   0.07076   0.08026   0.12102
 Alpha virt. eigenvalues --    0.17418   0.18116   0.26437   0.29717   0.30367
 Alpha virt. eigenvalues --    0.31104   0.33385   0.33917   0.36160   0.39415
 Alpha virt. eigenvalues --    0.44401   0.54333   0.66123   0.67825   0.77373
 Alpha virt. eigenvalues --    0.86776   0.92501   0.95208   0.96279   1.00237
 Alpha virt. eigenvalues --    1.04112   1.06132   1.08866   1.16642   1.17316
 Alpha virt. eigenvalues --    1.26592   1.36979   1.38405   1.47336   1.57767
 Alpha virt. eigenvalues --    1.63756   1.63870   1.65402   1.68769   1.69584
 Alpha virt. eigenvalues --    1.74884   1.80662   2.01184   2.03378   2.06686
 Alpha virt. eigenvalues --    2.18712   2.25974   2.51830   2.53077   2.92240
 Alpha virt. eigenvalues --    3.18497   3.21189   3.24323   3.27156   3.27916
 Alpha virt. eigenvalues --    3.30942   3.45983   3.48101   3.53390   3.57566
 Alpha virt. eigenvalues --    3.70823   3.73780   3.77202   3.83050   3.87009
 Alpha virt. eigenvalues --    3.88610   4.00245   4.11083   4.19126   4.21774
 Alpha virt. eigenvalues --    4.27179   4.32631   4.36957   4.38708   4.45455
 Alpha virt. eigenvalues --    4.48915   4.50197   4.54371   4.61014   4.64802
 Alpha virt. eigenvalues --    4.68691   4.70346   4.77307   4.79481   4.87441
 Alpha virt. eigenvalues --    4.97286   5.06672   5.14741   5.22638   5.29715
 Alpha virt. eigenvalues --    5.46086   5.54736   5.58864   5.62688   5.64346
 Alpha virt. eigenvalues --    5.67972   5.74937   5.79203   5.81099   5.81991
 Alpha virt. eigenvalues --    5.85809   5.85907   5.96720   6.10273   6.18681
 Alpha virt. eigenvalues --    6.31081   6.57741
  Beta  occ. eigenvalues --  -14.31432 -10.20046  -0.85079  -0.64483  -0.46782
  Beta  occ. eigenvalues --   -0.42590  -0.40617  -0.27492
  Beta virt. eigenvalues --   -0.09869   0.01210   0.04496   0.07250   0.08100
  Beta virt. eigenvalues --    0.12307   0.17544   0.18652   0.26702   0.30369
  Beta virt. eigenvalues --    0.31915   0.32237   0.33557   0.36736   0.36741
  Beta virt. eigenvalues --    0.40368   0.45155   0.55294   0.66952   0.68186
  Beta virt. eigenvalues --    0.79239   0.86864   0.93109   0.95300   0.96743
  Beta virt. eigenvalues --    1.00644   1.04493   1.06573   1.08929   1.17477
  Beta virt. eigenvalues --    1.19221   1.28821   1.38691   1.38966   1.47645
  Beta virt. eigenvalues --    1.59601   1.64766   1.64847   1.68020   1.68873
  Beta virt. eigenvalues --    1.74716   1.75774   1.81274   2.02287   2.07806
  Beta virt. eigenvalues --    2.08870   2.20573   2.26350   2.53195   2.53585
  Beta virt. eigenvalues --    2.93664   3.20074   3.21993   3.25044   3.27974
  Beta virt. eigenvalues --    3.29922   3.31461   3.48838   3.49087   3.55667
  Beta virt. eigenvalues --    3.60585   3.71374   3.74799   3.77868   3.83721
  Beta virt. eigenvalues --    3.88196   3.89491   4.02087   4.11654   4.20080
  Beta virt. eigenvalues --    4.22493   4.28718   4.33472   4.38075   4.39205
  Beta virt. eigenvalues --    4.45968   4.49996   4.50931   4.54649   4.61704
  Beta virt. eigenvalues --    4.65792   4.70225   4.71742   4.77899   4.80965
  Beta virt. eigenvalues --    4.90168   4.98079   5.07506   5.20919   5.25680
  Beta virt. eigenvalues --    5.32082   5.46530   5.55606   5.62926   5.64391
  Beta virt. eigenvalues --    5.65883   5.69989   5.75328   5.79930   5.82642
  Beta virt. eigenvalues --    5.82802   5.86902   5.87504   5.97183   6.10907
  Beta virt. eigenvalues --    6.19510   6.31762   6.58627
          Condensed to atoms (all electrons):
               1          2          3          4          5          6
     1  C    4.463207   0.268874  -0.035816   0.417426   0.408387   0.408387
     2  N    0.268874   6.811226   0.310732  -0.058349  -0.029815  -0.029815
     3  H   -0.035816   0.310732   0.637137   0.015981  -0.015326  -0.015326
     4  H    0.417426  -0.058349   0.015981   0.663364  -0.041821  -0.041821
     5  H    0.408387  -0.029815  -0.015326  -0.041821   0.675593  -0.024758
     6  H    0.408387  -0.029815  -0.015326  -0.041821  -0.024758   0.675593
          Atomic-Atomic Spin Densities.
               1          2          3          4          5          6
     1  C   -0.035629  -0.054554   0.003861   0.003574   0.012253   0.012253
     2  N   -0.054554   1.062712  -0.002578  -0.002241  -0.019909  -0.019909
     3  H    0.003861  -0.002578  -0.020573  -0.000192   0.000162   0.000162
     4  H    0.003574  -0.002241  -0.000192  -0.001054   0.000758   0.000758
     5  H    0.012253  -0.019909   0.000162   0.000758   0.083290  -0.020415
     6  H    0.012253  -0.019909   0.000162   0.000758  -0.020415   0.083290
 Mulliken charges and spin densities:
               1          2
     1  C    0.069536  -0.058242
     2  N   -0.272854   0.963520
     3  H    0.102618  -0.019158
     4  H    0.045220   0.001603
     5  H    0.027740   0.056139
     6  H    0.027740   0.056139
 Sum of Mulliken charges =   0.00000   1.00000
 Mulliken charges and spin densities with hydrogens summed into heavy atoms:
               1          2
     1  C    0.170236   0.055638
     2  N   -0.170236   0.944362
 APT charges:
               1
     1  C    0.208465
     2  N   -0.277715
     3  H    0.119386
     4  H   -0.022082
     5  H   -0.014027
     6  H   -0.014027
 Sum of APT charges =  -0.00000
 APT charges with hydrogens summed into heavy atoms:
               1
     1  C    0.158330
     2  N   -0.158330
 Electronic spatial extent (au):  <R**2>=             85.7129
 Charge=              0.0000 electrons
 Dipole moment (field-independent basis, Debye):
    X=              1.4759    Y=             -1.4176    Z=             -0.0000  Tot=              2.0464
 Quadrupole moment (field-independent basis, Debye-Ang):
   XX=            -13.0323   YY=            -14.8969   ZZ=            -13.5785
   XY=              2.0700   XZ=             -0.0000   YZ=              0.0000
 Traceless Quadrupole moment (field-independent basis, Debye-Ang):
   XX=              0.8036   YY=             -1.0610   ZZ=              0.2574
   XY=              2.0700   XZ=             -0.0000   YZ=              0.0000
 Octapole moment (field-independent basis, Debye-Ang**2):
  XXX=              1.3557  YYY=             -1.3601  ZZZ=              0.0000  XYY=              2.8485
  XXY=              0.1914  XXZ=              0.0000  XZZ=              0.9350  YZZ=             -0.5028
  YYZ=              0.0000  XYZ=             -0.0000
 Hexadecapole moment (field-independent basis, Debye-Ang**3):
 XXXX=            -23.7696 YYYY=            -73.5389 ZZZZ=            -21.0089 XXXY=              1.0471
 XXXZ=              0.0000 YYYX=              1.9192 YYYZ=              0.0000 ZZZX=             -0.0000
 ZZZY=              0.0000 XXYY=            -15.1147 XXZZ=             -7.7199 YYZZ=            -15.2663
 XXYZ=              0.0000 YYXZ=             -0.0000 ZZXY=             -0.9088
 N-N= 3.618621023539D+01 E-N=-2.940990513871D+02  KE= 9.485989082478D+01
 Symmetry A'   KE= 9.107582267214D+01
 Symmetry A"   KE= 3.784068152631D+00
 Symmetry A'   SP= 5.881404609479D-15
 Symmetry A"   SP= 1.000000000000D+00
  Exact polarizability:  21.636   0.700  25.880  -0.000   0.000  19.288
 Approx polarizability:  28.396   0.654  32.049   0.000  -0.000  24.678
                          Isotropic Fermi Contact Couplings
        Atom                 a.u.       MegaHertz       Gauss      10(-4) cm-1
     1  C(13)             -0.03114     -35.00216     -12.48964     -11.67546
     2  N(14)              0.19112      61.75287      22.03496      20.59854
     3  H(1)              -0.01279     -57.17234     -20.40051     -19.07064
     4  H(1)              -0.00020      -0.87410      -0.31190      -0.29157
     5  H(1)               0.03084     137.83494      49.18293      45.97679
     6  H(1)               0.03084     137.83494      49.18293      45.97679
 --------------------------------------------------------
       Center         ----  Spin Dipole Couplings  ----
                      3XX-RR        3YY-RR        3ZZ-RR
 --------------------------------------------------------
     1   Atom       -0.034012      0.023037      0.010975
     2   Atom       -1.116670     -1.116767      2.233436
     3   Atom        0.091132     -0.078982     -0.012150
     4   Atom       -0.002272      0.011474     -0.009202
     5   Atom       -0.006657      0.012324     -0.005667
     6   Atom       -0.006657      0.012324     -0.005667
 --------------------------------------------------------
                        XY            XZ            YZ
 --------------------------------------------------------
     1   Atom        0.000049      0.000000     -0.000000
     2   Atom        0.015558      0.000000     -0.000000
     3   Atom        0.061515      0.000000     -0.000000
     4   Atom        0.013513     -0.000000      0.000000
     5   Atom       -0.007345      0.006674     -0.011702
     6   Atom       -0.007345     -0.006674      0.011702
 --------------------------------------------------------


 ---------------------------------------------------------------------------------
              Anisotropic Spin Dipole Couplings in Principal Axis System
 ---------------------------------------------------------------------------------

       Atom             a.u.   MegaHertz   Gauss  10(-4) cm-1        Axes

              Baa    -0.0340    -4.564    -1.629    -1.522  1.0000 -0.0009 -0.0000
     1 C(13)  Bbb     0.0110     1.473     0.526     0.491  0.0000  0.0000  1.0000
              Bcc     0.0230     3.091     1.103     1.031  0.0009  1.0000  0.0000
 
              Baa    -1.1323   -43.669   -15.582   -14.567 -0.7060  0.7082 -0.0000
     2 N(14)  Bbb    -1.1012   -42.469   -15.154   -14.166  0.7082  0.7060  0.0000
              Bcc     2.2334    86.139    30.736    28.733  0.0000  0.0000  1.0000
 
              Baa    -0.0989   -52.766   -18.828   -17.601 -0.3080  0.9514 -0.0000
     3 H(1)   Bbb    -0.0122    -6.483    -2.313    -2.162  0.0000  0.0000  1.0000
              Bcc     0.1110    59.249    21.141    19.763  0.9514  0.3080  0.0000
 
              Baa    -0.0106    -5.634    -2.010    -1.879  0.8525 -0.5228 -0.0000
     4 H(1)   Bbb    -0.0092    -4.910    -1.752    -1.638  0.0000  0.0000  1.0000
              Bcc     0.0198    10.544     3.762     3.517  0.5228  0.8525  0.0000
 
              Baa    -0.0134    -7.143    -2.549    -2.383 -0.5721  0.1987  0.7957
     5 H(1)   Bbb    -0.0080    -4.255    -1.518    -1.419  0.7532  0.5112  0.4139
              Bcc     0.0214    11.398     4.067     3.802 -0.3245  0.8362 -0.4422
 
              Baa    -0.0134    -7.143    -2.549    -2.383  0.5721 -0.1987  0.7957
     6 H(1)   Bbb    -0.0080    -4.255    -1.518    -1.419  0.7532  0.5112 -0.4139
              Bcc     0.0214    11.398     4.067     3.802 -0.3245  0.8362  0.4422
 

 ---------------------------------------------------------------------------------

 Calling FoFJK, ICntrl=    100127 FMM=F ISym2X=1 I1Cent= 0 IOpClX= 1 NMat=1 NMatS=1 NMatT=0.
 Full mass-weighted force constant matrix:
 Low frequencies ---  -34.1205  -17.9527  -12.8139   -0.0008   -0.0005    0.0013
 Low frequencies ---  249.6784  946.4830 1004.6917
 Diagonal vibrational polarizability:
        0.1894915       1.0409397      25.7652571
 Harmonic frequencies (cm**-1), IR intensities (KM/Mole), Raman scattering
 activities (A**4/AMU), depolarization ratios for plane and unpolarized
 incident light, reduced masses (AMU), force constants (mDyne/A),
 and normal coordinates:
                      1                      2                      3
                     A"                     A"                     A'
 Frequencies --    249.6717               946.4829              1004.6917
 Red. masses --      1.1281                 1.2089                 1.2627
 Frc consts  --      0.0414                 0.6381                 0.7510
 IR Inten    --     59.2688                 0.0979                14.1549
  Atom  AN      X      Y      Z        X      Y      Z        X      Y      Z
     1   6    -0.00   0.00   0.04     0.00   0.00  -0.13     0.08  -0.10   0.00
     2   7     0.00  -0.00  -0.09    -0.00  -0.00   0.04    -0.01   0.07  -0.00
     3   1    -0.00   0.00   0.86    -0.00   0.00   0.26    -0.17   0.57  -0.00
     4   1     0.00   0.00   0.19    -0.00   0.00   0.34    -0.12   0.44  -0.00
     5   1     0.26  -0.11  -0.18     0.04   0.61   0.15    -0.25  -0.38   0.06
     6   1    -0.26   0.11  -0.18    -0.04  -0.61   0.15    -0.25  -0.38  -0.06
                      4                      5                      6
                     A'                     A'                     A'
 Frequencies --   1043.1563              1332.7257              1390.2161
 Red. masses --      3.6608                 1.2825                 1.1323
 Frc consts  --      2.3471                 1.3421                 1.2894
 IR Inten    --     15.2305                 9.0720                11.0727
  Atom  AN      X      Y      Z        X      Y      Z        X      Y      Z
     1   6    -0.04  -0.31  -0.00    -0.13  -0.02  -0.00    -0.00  -0.10  -0.00
     2   7    -0.01   0.35  -0.00     0.08  -0.01   0.00     0.03  -0.02  -0.00
     3   1     0.28  -0.49   0.00    -0.17   0.75  -0.00    -0.06   0.25   0.00
     4   1     0.10  -0.65   0.00     0.02  -0.42  -0.00    -0.09   0.13   0.00
     5   1     0.11   0.01   0.02     0.25   0.01  -0.20    -0.15   0.55   0.35
     6   1     0.11   0.01  -0.02     0.25   0.01   0.20    -0.15   0.55  -0.35
[...]
      3          1           0        0.918865    1.115192    0.000000
      4          1           0       -1.078635   -1.008325    0.000000
      5          1           0        0.468433   -1.026075    0.876344
      6          1           0        0.468433   -1.026075   -0.876344
 ---------------------------------------------------------------------
 Rotational constants (GHZ):         125.5230058          25.5021265          24.3587077
 General basis read from cards:  (5D, 7F)
 There are   131 symmetry adapted cartesian basis functions of A'  symmetry.
 There are    69 symmetry adapted cartesian basis functions of A"  symmetry.
 There are   114 symmetry adapted basis functions of A'  symmetry.
 There are    64 symmetry adapted basis functions of A"  symmetry.
   178 basis functions,   240 primitive gaussians,   200 cartesian basis functions
     9 alpha electrons        8 beta electrons
       nuclear repulsion energy        36.1862102354 Hartrees.
 NAtoms=    6 NActive=    6 NUniq=    5 SFac= 1.44D+00 NAtFMM=   60 NAOKFM=F Big=F
 Integral buffers will be    131072 words long.
 Raffenetti 2 integral format.
 Two-electron integral symmetry is turned on.
 One-electron integrals computed using PRISM.
 NBasis=   178 RedAO= T EigKep=  9.13D-05  NBF=   114    64
 NBsUse=   178 1.00D-06 EigRej= -1.00D+00 NBFU=   114    64
 Initial guess from the checkpoint file:  "ch3nh.chk"
 B after Tr=     0.000000    0.000000    0.000000
         Rot=    1.000000    0.000000    0.000000    0.000000 Ang=   0.00 deg.
 BiOrM2:  NumA=       9 NumB=       8.
 Eigenvalues of SAB:
  1.00000000  0.99999957  0.99999843  0.99994865  0.99981423
  0.99972710  0.99956166  0.99904480 -0.05886369
 BiOrM2:  NumA=       1 NumB=     170.
 Eigenvalues of SAB:
  1.00000000  0.00000000  0.00000000  0.16487161  0.00000000
  0.00000000  0.13416325  0.03368324  0.00000000  0.00000000
  0.03823834  0.00000000  0.00000000  0.01549173  0.03620024
  0.00000000  0.00000000  0.00000000  0.00000000  0.00000000
  0.00000000  0.00000000  0.00000000  0.00000000  0.00000000
  0.25345834  0.00000000  0.00000000  0.14907105  0.00000000
  0.00000000 -0.06098553  0.00000000  0.00000000 -0.11979900
  0.00000000  0.00000000 -0.01564581  0.00000000  0.00000000
  0.02260112  0.00000000 -0.15573991  0.07433709  0.00000000
  0.00000000  0.00000000 -0.07456363  0.04087819  0.00000000
  0.00000000  0.00000000  0.14858011 -0.04024750  0.00000000
  0.00000000  0.32494042  0.00000000  0.00000000 -0.07601206
 -0.07219339  0.00000000  0.00000000  0.15590407  0.00000000
  0.00000000 -0.06171796 -0.01510835  0.00000000  0.00000000
  0.00000000  0.00000000  0.00000000  0.00000000  0.00000000
  0.00000000  0.05333999  0.00000000  0.00000000  0.12359040
  0.00000000  0.00000000  0.16849392  0.00000000  0.32699486
  0.05300391  0.00000000  0.00000000  0.00000000  0.00000000
  0.00000000  0.00000000  0.00000000  0.00000000 -0.03769678
  0.00000000  0.00000000 -0.02317504  0.00000000  0.00000000
 -0.00535129  0.00000000  0.08547091 -0.01393775  0.00000000
  0.00000000 -0.01695371 -0.01094054  0.00903748  0.00457384
  0.02039349 -0.07100457 -0.07844422  0.00043325 -0.06964039
 -0.09273612 -0.00453451 -0.05184184 -0.05270409 -0.18020710
 -0.08733006 -0.04696278 -0.03223028 -0.08696209  0.01695371
  0.01094054 -0.00903748 -0.00457384 -0.02039349  0.07100457
 -0.07844422 -0.00043325  0.06964039 -0.09273612  0.00453451
  0.05184184 -0.05270409  0.18020710 -0.08733006 -0.04696278
  0.03223028  0.08696209  0.00000000  0.00000000  0.00000000
  0.00000000  0.00000000  0.00000000  0.00000000  0.00000000
 -0.06741140  0.00000000  0.00000000 -0.03300116  0.00000000
  0.00000000  0.01053308  0.00000000  0.00000000  0.03987821
  0.00000000  0.00000000  0.08543103  0.00000000  0.00000000
  0.11472156  0.00000000  0.02234858  0.18465396  0.00000000
 BiOrM2:  NumA=     169 NumB=     169.
 Eigenvalues of SAB:
  1.00000000  1.00000000  1.00000000  1.00000000  1.00000000
  1.00000000  1.00000000  1.00000000  1.00000000  1.00000000
  1.00000000  1.00000000  1.00000000  1.00000000  1.00000000
  1.00000000  1.00000000  1.00000000  1.00000000  1.00000000
  1.00000000  1.00000000  1.00000000  1.00000000  1.00000000
  1.00000000  1.00000000  1.00000000  1.00000000  1.00000000
  1.00000000  1.00000000  1.00000000  1.00000000  1.00000000
  1.00000000  1.00000000  1.00000000  1.00000000  1.00000000
  1.00000000  1.00000000  1.00000000  1.00000000  1.00000000
  1.00000000  1.00000000  1.00000000  1.00000000  1.00000000
  1.00000000  1.00000000  1.00000000  1.00000000  1.00000000
  1.00000000  1.00000000  1.00000000  1.00000000  1.00000000
  1.00000000  1.00000000  1.00000000  1.00000000  1.00000000
  1.00000000  1.00000000  1.00000000  1.00000000  1.00000000
  1.00000000  1.00000000  1.00000000  1.00000000  1.00000000
  1.00000000  1.00000000  1.00000000  1.00000000  1.00000000
  1.00000000  1.00000000  1.00000000  1.00000000  1.00000000
  1.00000000  1.00000000  1.00000000  1.00000000  1.00000000
  1.00000000  1.00000000  1.00000000  1.00000000  1.00000000
  1.00000000  1.00000000  1.00000000  1.00000000  1.00000000
  1.00000000  1.00000000  1.00000000  1.00000000  1.00000000
  1.00000000  1.00000000  1.00000000  1.00000000  1.00000000
  1.00000000  1.00000000  1.00000000  1.00000000  1.00000000
  1.00000000  1.00000000  1.00000000  1.00000000  1.00000000
  1.00000000  1.00000000  1.00000000  1.00000000  1.00000000
  1.00000000  1.00000000  1.00000000  1.00000000  1.00000000
  1.00000000  1.00000000  1.00000000  1.00000000  1.00000000
  1.00000000  1.00000000  1.00000000  1.00000000  1.00000000
  1.00000000  1.00000000  1.00000000  1.00000000  1.00000000
  1.00000000  1.00000000  1.00000000  1.00000000  1.00000000
  1.00000000  1.00000000  1.00000000  1.00000000  1.00000000
  1.00000000  1.00000000  1.00000000  1.00000000  1.00000000
  1.00000000  1.00000000  0.99999957  0.99999843  0.99994865
  0.99981423  0.99972710  0.99956166  0.99904480
 Initial guess orbital symmetries:
       Occupied  (A') (A') (A') (A') (A') (A') (A") (A') (A")
       Virtual   (A") (A") (A") (A") (A") (A") (A") (A") (A") (A")
                 (A") (A") (A") (A") (A") (A") (A") (A") (A") (A")
                 (A") (A") (A") (A") (A") (A") (A") (A") (A") (A")
                 (A") (A") (A") (A") (A") (A") (A") (A") (A") (A")
                 (A") (A") (A") (A") (A") (A") (A") (A") (A") (A")
                 (A") (A") (A") (A") (A") (A") (A") (A") (A") (A")
                 (A") (A") (A") (A") (A") (A") (A") (A") (A") (A")
                 (A") (A") (A") (A") (A") (A") (A") (A") (A") (A")
                 (A") (A") (A") (A") (A") (A") (A") (A") (A") (A")
                 (A") (A") (A") (A") (A") (A") (A") (A") (A") (A")
                 (A") (A") (A") (A") (A") (A") (A") (A") (A") (A")
                 (A") (A") (A") (A") (A") (A") (A") (A") (A") (A")
                 (A") (A") (A") (A") (A") (A") (A") (A") (A") (A")
                 (A") (A") (A") (A") (A") (A") (A") (A") (A") (A")
                 (A") (A") (A") (A") (A") (A") (A") (A") (A") (A")
                 (A") (A") (A") (A") (A") (A") (A") (A") (A") (A")
                 (A") (A') (A') (A') (A') (A') (A') (A") (A')
 Keep R1 and R2 ints in memory in symmetry-blocked form, NReq=191751657.
 Requested convergence on RMS density matrix=1.00D-08 within 128 cycles.
 Requested convergence on MAX density matrix=1.00D-06.
 Requested convergence on             energy=1.00D-06.
 No special actions if energy rises.
 An orbital has undefined symmetry, so N**3 symmetry is turned off.
 SCF Done:  E(ROHF) =  -94.6321603097     A.U. after   13 cycles
            NFock= 13  Conv=0.14D-08     -V/T= 2.0008
 <Sx>= 0.0000 <Sy>= 0.0000 <Sz>= 0.5000 <S**2>= 0.7500 S= 0.5000
 <L.S>=  0.00000000000    
 Annihilation of the first spin contaminant:
 S**2 before annihilation     0.7500,   after     0.7500

 **********************************************************************

            Population analysis using the SCF Density.

 **********************************************************************

 Orbital symmetries:
       Occupied  (A') (A') (A') (A') (A') (A") (A') (A') (A")
       Virtual   (A') (A') (A") (A') (A') (A') (A") (A') (A") (A')
                 (A') (A') (A') (A") (A') (A') (A") (A') (A") (A')
                 (A') (A") (A') (A') (A") (A') (A") (A') (A') (A")
                 (A') (A') (A') (A") (A') (A') (A") (A') (A') (A")
                 (A') (A') (A") (A') (A") (A') (A") (A') (A") (A')
                 (A') (A') (A") (A') (A') (A") (A") (A') (A") (A')
                 (A") (A") (A') (A') (A") (A') (A') (A') (A') (A')
                 (A") (A") (A') (A") (A') (A') (A") (A') (A") (A')
                 (A') (A") (A') (A') (A") (A") (A') (A') (A") (A')
                 (A") (A') (A") (A') (A') (A") (A") (A') (A') (A')
                 (A") (A') (A') (A') (A") (A') (A") (A') (A') (A")
                 (A") (A') (A') (A') (A') (A") (A') (A") (A') (A")
                 (A') (A") (A') (A') (A') (A") (A') (A') (A") (A')
                 (A") (A') (A") (A') (A") (A') (A") (A") (A') (A')
                 (A') (A") (A') (A') (A") (A') (A") (A') (A") (A')
                 (A') (A') (A') (A") (A') (A') (A") (A") (A') (A')
                 (A') (A") (A') (A') (A') (A") (A') (A') (A')
 The electronic state is 2-A".
 Alpha  occ. eigenvalues --  -15.56442 -11.24997  -1.13947  -0.87439  -0.63486
 Alpha  occ. eigenvalues --   -0.57346  -0.55818  -0.43356  -0.09924
 Alpha virt. eigenvalues --    0.05476   0.06424   0.07338   0.07363   0.13223
 Alpha virt. eigenvalues --    0.13878   0.15059   0.21135   0.21277   0.23026
 Alpha virt. eigenvalues --    0.24170   0.25961   0.31322   0.34925   0.36185
 Alpha virt. eigenvalues --    0.45161   0.45194   0.48040   0.48726   0.48777
 Alpha virt. eigenvalues --    0.52447   0.52686   0.54488   0.56395   0.61344
 Alpha virt. eigenvalues --    0.62804   0.62883   0.63745   0.69677   0.74950
 Alpha virt. eigenvalues --    0.77927   0.79977   0.85003   0.86422   0.89626
 Alpha virt. eigenvalues --    0.93588   0.98166   1.00322   1.01205   1.03819
 Alpha virt. eigenvalues --    1.04583   1.10831   1.20329   1.32351   1.35361
 Alpha virt. eigenvalues --    1.37902   1.44706   1.45200   1.48969   1.49470
 Alpha virt. eigenvalues --    1.51800   1.55466   1.59512   1.66543   1.68611
 Alpha virt. eigenvalues --    1.70589   1.75191   1.79010   1.80486   1.82925
 Alpha virt. eigenvalues --    1.85187   1.86295   1.89195   1.92375   1.92888
 Alpha virt. eigenvalues --    1.96055   1.97946   2.00269   2.02813   2.05847
 Alpha virt. eigenvalues --    2.06154   2.11665   2.17538   2.20573   2.22739
 Alpha virt. eigenvalues --    2.23372   2.29385   2.30856   2.32827   2.35708
 Alpha virt. eigenvalues --    2.40201   2.43469   2.48303   2.51231   2.55242
 Alpha virt. eigenvalues --    2.62204   2.67406   2.69319   2.69512   2.79816
 Alpha virt. eigenvalues --    2.81899   2.84205   2.89414   2.91092   3.02478
 Alpha virt. eigenvalues --    3.06195   3.08689   3.09769   3.21900   3.25040
 Alpha virt. eigenvalues --    3.32637   3.40469   3.46802   3.52906   3.59682
 Alpha virt. eigenvalues --    3.64045   3.66089   3.66809   3.74465   3.77113
 Alpha virt. eigenvalues --    3.83461   3.89856   4.09692   4.44247   4.69456
 Alpha virt. eigenvalues --    4.89389   4.90698   4.93660   4.94035   4.95981
 Alpha virt. eigenvalues --    5.12974   5.39096   5.49512   5.72789   5.78769
 Alpha virt. eigenvalues --    5.93587   5.95705   5.99333   6.00637   6.08586
 Alpha virt. eigenvalues --    6.09190   6.12960   6.19063   6.21956   6.35582
 Alpha virt. eigenvalues --    6.42304   6.52412   6.65643   6.73389   6.93862
 Alpha virt. eigenvalues --    7.10547   7.13284   7.17501   7.45770   8.11360
 Alpha virt. eigenvalues --    8.23360   8.37271   8.42591   8.59518   8.59993
 Alpha virt. eigenvalues --    8.78262   9.07393   9.24171   9.55173   9.55415
 Alpha virt. eigenvalues --    9.57560  10.41450  10.61755  10.63362  11.12798
 Alpha virt. eigenvalues --   11.57276  21.53273  21.58016  21.74597  22.75366
 Alpha virt. eigenvalues --   29.75959  29.87436  30.15196  32.32933
          Condensed to atoms (all electrons):
               1          2          3          4          5          6
     1  C    4.653530   0.183025  -0.015607   0.440748   0.409866   0.409866
     2  N    0.183025   7.090939   0.218909  -0.076763  -0.015600  -0.015600
     3  H   -0.015607   0.218909   0.606296   0.015566  -0.015376  -0.015376
     4  H    0.440748  -0.076763   0.015566   0.595346  -0.040239  -0.040239
     5  H    0.409866  -0.015600  -0.015376  -0.040239   0.629815  -0.046051
     6  H    0.409866  -0.015600  -0.015376  -0.040239  -0.046051   0.629815
          Atomic-Atomic Spin Densities.
               1          2          3          4          5          6
     1  C    0.012454  -0.019809  -0.000519   0.000164   0.009254   0.009254
     2  N   -0.019809   0.966863   0.019761  -0.000332  -0.015013  -0.015013
     3  H   -0.000519   0.019761   0.001383  -0.000003  -0.000417  -0.000417
     4  H    0.000164  -0.000332  -0.000003   0.000008   0.000105   0.000105
     5  H    0.009254  -0.015013  -0.000417   0.000105   0.032796  -0.010271
     6  H    0.009254  -0.015013  -0.000417   0.000105  -0.010271   0.032796
 Mulliken charges and spin densities:
               1          2
     1  C   -0.081428   0.010800
     2  N   -0.384910   0.936457
     3  H    0.205587   0.019787
     4  H    0.105581   0.000047
     5  H    0.077586   0.016454
     6  H    0.077586   0.016454
 Sum of Mulliken charges =  -0.00000   1.00000
 Mulliken charges and spin densities with hydrogens summed into heavy atoms:
               1          2
     1  C    0.179324   0.043755
     2  N   -0.179324   0.956245
 Electronic spatial extent (au):  <R**2>=             85.4917
 Charge=             -0.0000 electrons
 Dipole moment (field-independent basis, Debye):
    X=              1.4668    Y=             -1.2629    Z=              0.0000  Tot=              1.9355
 Quadrupole moment (field-independent basis, Debye-Ang):
   XX=            -12.8782   YY=            -14.8442   ZZ=            -13.4878
   XY=              2.1323   XZ=             -0.0000   YZ=              0.0000
 Traceless Quadrupole moment (field-independent basis, Debye-Ang):
   XX=              0.8585   YY=             -1.1075   ZZ=              0.2490
   XY=              2.1323   XZ=             -0.0000   YZ=              0.0000
 Octapole moment (field-independent basis, Debye-Ang**2):
  XXX=              1.4558  YYY=             -1.1678  ZZZ=             -0.0000  XYY=              2.8979
  XXY=              0.3487  XXZ=              0.0000  XZZ=              0.8941  YZZ=             -0.3578
  YYZ=              0.0000  XYZ=              0.0000
 Hexadecapole moment (field-independent basis, Debye-Ang**3):
 XXXX=            -22.6101 YYYY=            -72.1600 ZZZZ=            -20.0901 XXXY=              1.2971
 XXXZ=             -0.0000 YYYX=              2.0942 YYYZ=             -0.0000 ZZZX=             -0.0000
 ZZZY=              0.0000 XXYY=            -14.6394 XXZZ=             -7.4116 YYZZ=            -14.9212
 XXYZ=             -0.0000 YYXZ=             -0.0000 ZZXY=             -0.9392
 N-N= 3.618621023539D+01 E-N=-2.935952828943D+02  KE= 9.455994437972D+01
 Symmetry A'   KE= 9.086355318899D+01
 Symmetry A"   KE= 3.696391190729D+00
 Symmetry A'   SP= 1.411111430962D-15
 Symmetry A"   SP= 1.000000000000D+00
                          Isotropic Fermi Contact Couplings
        Atom                 a.u.       MegaHertz       Gauss      10(-4) cm-1
     1  C(13)              0.00000       0.00000       0.00000       0.00000
     2  N(14)             -0.00000      -0.00000      -0.00000      -0.00000
     3  H(1)               0.00000       0.00000       0.00000       0.00000
     4  H(1)               0.00000       0.00000       0.00000       0.00000
     5  H(1)               0.01089      48.66896      17.36630      16.23422
     6  H(1)               0.01089      48.66896      17.36630      16.23422
 --------------------------------------------------------
       Center         ----  Spin Dipole Couplings  ----
                      3XX-RR        3YY-RR        3ZZ-RR
 --------------------------------------------------------
     1   Atom       -0.044769      0.052114     -0.007346
     2   Atom       -1.105324     -1.107372      2.212696
     3   Atom        0.083872     -0.073059     -0.010814
     4   Atom       -0.002206      0.013197     -0.010991
     5   Atom       -0.010029      0.015956     -0.005927
     6   Atom       -0.010029      0.015956     -0.005927
 --------------------------------------------------------
                        XY            XZ            YZ
 --------------------------------------------------------
     1   Atom       -0.001791     -0.000000      0.000000
     2   Atom        0.003063      0.000000     -0.000000
     3   Atom        0.055319     -0.000000      0.000000
     4   Atom        0.015823      0.000000      0.000000
     5   Atom       -0.009268      0.006213     -0.012864
     6   Atom       -0.009268     -0.006213      0.012864
 --------------------------------------------------------


 ---------------------------------------------------------------------------------
              Anisotropic Spin Dipole Couplings in Principal Axis System
 ---------------------------------------------------------------------------------

       Atom             a.u.   MegaHertz   Gauss  10(-4) cm-1        Axes

              Baa    -0.0448    -6.012    -2.145    -2.005  0.9998  0.0185  0.0000
     1 C(13)  Bbb    -0.0073    -0.986    -0.352    -0.329  0.0000  0.0000  1.0000
              Bcc     0.0521     6.998     2.497     2.334 -0.0185  0.9998 -0.0000
 
              Baa    -1.1096   -42.794   -15.270   -14.275 -0.5843  0.8115 -0.0000
     2 N(14)  Bbb    -1.1031   -42.545   -15.181   -14.191  0.8115  0.5843 -0.0000
              Bcc     2.2127    85.339    30.451    28.466  0.0000  0.0000  1.0000
 
              Baa    -0.0906   -48.339   -17.249   -16.124 -0.3022  0.9532 -0.0000
     3 H(1)   Bbb    -0.0108    -5.770    -2.059    -1.925  0.0000  0.0000  1.0000
              Bcc     0.1014    54.109    19.307    18.049  0.9532  0.3022  0.0000
 
              Baa    -0.0121    -6.457    -2.304    -2.154  0.8478 -0.5303  0.0000
     4 H(1)   Bbb    -0.0110    -5.865    -2.093    -1.956  0.0000  0.0000  1.0000
              Bcc     0.0231    12.322     4.397     4.110  0.5303  0.8478 -0.0000
 
              Baa    -0.0145    -7.747    -2.764    -2.584  0.8087 -0.0023 -0.5882
     5 H(1)   Bbb    -0.0108    -5.774    -2.060    -1.926  0.5071  0.5095  0.6952
              Bcc     0.0253    13.522     4.825     4.510 -0.2980  0.8605 -0.4132
 
              Baa    -0.0145    -7.747    -2.764    -2.584  0.8087 -0.0023  0.5882
     6 H(1)   Bbb    -0.0108    -5.774    -2.060    -1.926 -0.5071 -0.5095  0.6952
              Bcc     0.0253    13.522     4.825     4.510 -0.2980  0.8605  0.4132
 

 ---------------------------------------------------------------------------------

 1\1\GINC-GAMBA\SP\ROHF\Gen\C1H4N1(2)\IRIKURA\29-Sep-2023\0\\# rohf/gen
  geom=check guess=check\\methyl amidogen, ROHF/cc-pVTZ-F12\\0,2\C,0,-0
 .059777,-0.624293,0.\N,0,-0.059777,0.813006,0.\H,0,0.918865,1.115192,0
 .\H,0,-1.078635,-1.008325,0.\H,0,0.468433,-1.026075,0.876344\H,0,0.468
 433,-1.026075,-0.876344\\Version=ES64L-G16RevB.01\State=2-A"\HF=-94.63
 21603\RMSD=1.382e-09\Dipole=0.5770674,-0.4968705,0.\Quadrupole=0.63829
 55,-0.8233922,0.1850966,1.585293,0.,0.\PG=CS [SG(C1H2N1),X(H2)]\\@


 IF MATHEMATICALLY YOU END UP WITH THE INCORRECT ANSWER,
 TRY MULTIPLYING BY THE PAGE NUMBER.
 Job cpu time:       0 days  0 hours  0 minutes 29.2 seconds.
 Elapsed time:       0 days  0 hours  0 minutes  8.8 seconds.
 File lengths (MBytes):  RWF=     18 Int=      0 D2E=      0 Chk=      4 Scr=      1
 Normal termination of Gaussian 16 at Fri Sep 29 16:58:50 2023.
