 Entering Gaussian System, Link 0=g16
 AtFile(1): pcseg2.gbs
            -H     0
            S   4   1.00
                  0.754732D+02           0.427821D-02
                  0.113575D+02           0.328672D-01
                  0.260081D+01           0.159578D+00
                  0.735503D+00           0.500000D+00
            S   1   1.00
                  0.231761D+00           1.0000000
            S   1   1.00
                  0.741675D-01           1.0000000
            P   1   1.00
                  0.160000D+01           1.0000000
            P   1   1.00
                  0.450000D+00           1.0000000
            D   1   1.00
                  0.125000D+01           1.0000000
            ****
            -C     0
            S   7   1.00
                  0.731999D+04           0.695369D-03
                  0.109818D+04           0.537138D-02
                  0.250014D+03           0.274734D-01
                  0.707586D+02           0.105078D+00
                  0.228595D+02           0.291262D+00
                  0.803936D+01           0.500000D+00
                  0.289309D+01           0.362224D+00
            S   2   1.00
                  0.521640D+01          -0.957844D-01
                  0.556124D+00           0.500000D+00
            S   1   1.00
                  0.228813D+00           1.0000000
            S   1   1.00
                  0.936338D-01           1.0000000
            P   4   1.00
                  0.339855D+02           0.818395D-02
                  0.772957D+01           0.586921D-01
                  0.224954D+01           0.222514D+00
                  0.767681D+00           0.500000D+00
            P   1   1.00
                  0.263283D+00           1.0000000
            P   1   1.00
                  0.848744D-01           1.0000000
            D   1   1.00
                  0.140000D+01           1.0000000
            D   1   1.00
                  0.450000D+00           1.0000000
            F   1   1.00
                  0.950000D+00           1.0000000
            ****
            -O     0
            S   7   1.00
                  0.135887D+05           0.665492D-03
                  0.203847D+04           0.514222D-02
                  0.464041D+03           0.263472D-01
                  0.131339D+03           0.101500D+00
                  0.425340D+02           0.285877D+00
                  0.150429D+02           0.500000D+00
                  0.546616D+01           0.368211D+00
            S   2   1.00
                  0.100915D+02          -0.100084D+00
                  0.110429D+01           0.500000D+00
            S   1   1.00
                  0.448082D+00           1.0000000
            S   1   1.00
                  0.175325D+00           1.0000000
            P   4   1.00
                  0.608220D+02           0.908253D-02
                  0.140332D+02           0.645878D-01
                  0.418244D+01           0.241502D+00
                  0.142490D+01           0.500000D+00
            P   1   1.00
                  0.478741D+00           1.0000000
            P   1   1.00
                  0.146257D+00           1.0000000
            D   1   1.00
                  0.220000D+01           1.0000000
            D   1   1.00
                  0.650000D+00           1.0000000
            F   1   1.00
                  0.110000D+01           1.0000000
            ****
            -N     0
            S   7   1.00
                  0.101643D+05           0.682757D-03
                  0.152481D+04           0.527488D-02
                  0.347119D+03           0.270037D-01
                  0.982389D+02           0.103673D+00
                  0.317799D+02           0.289575D+00
                  0.112240D+02           0.500000D+00
                  0.406611D+01           0.364621D+00
            S   2   1.00
                  0.747898D+01          -0.975681D-01
                  0.805040D+00           0.500000D+00
            S   1   1.00
                  0.324626D+00           1.0000000
            S   1   1.00
                  0.128132D+00           1.0000000
            P   4   1.00
                  0.482704D+02           0.829547D-02
                  0.110815D+02           0.596223D-01
                  0.326643D+01           0.227889D+00
                  0.111680D+01           0.500000D+00
            P   1   1.00
                  0.382049D+00           1.0000000
            P   1   1.00
                  0.121222D+00           1.0000000
            D   1   1.00
                  0.180000D+01           1.0000000
            D   1   1.00
                  0.550000D+00           1.0000000
            F   1   1.00
                  0.102000D+01           1.0000000
            ****
            -F     0
            S   7   1.00
                  0.174507D+05           0.655972D-03
                  0.261768D+04           0.506944D-02
                  0.595857D+03           0.259899D-01
                  0.168651D+03           0.100353D+00
                  0.546654D+02           0.284095D+00
                  0.193717D+02           0.500000D+00
                  0.706202D+01           0.370721D+00
            S   2   1.00
                  0.131197D+02          -0.101997D+00
                  0.145046D+01           0.500000D+00
            S   1   1.00
                  0.588255D+00           1.0000000
            S   1   1.00
                  0.227960D+00           1.0000000
            P   4   1.00
                  0.779407D+02           0.931135D-02
                  0.180425D+02           0.663964D-01
                  0.542342D+01           0.246386D+00
                  0.184876D+01           0.500000D+00
            P   1   1.00
                  0.617455D+00           1.0000000
            P   1   1.00
                  0.185496D+00           1.0000000
            D   1   1.00
                  0.280000D+01           1.0000000
            D   1   1.00
                  0.800000D+00           1.0000000
            F   1   1.00
                  0.120000D+01           1.0000000
            ****
            -Cl     0
            S   8   1.00
                  0.154272D+06           0.222473D-03
                  0.231232D+05           0.172590D-02
                  0.526257D+04           0.899286D-02
                  0.148995D+04           0.367724D-01
                  0.485417D+03           0.121446D+00
                  0.174634D+03           0.304148D+00
                  0.672393D+02           0.500000D+00
                  0.265780D+02           0.360252D+00
            S   3   1.00
                  0.131826D+03          -0.531330D-01
                  0.400703D+02          -0.233346D+00
                  0.789448D+01           0.500000D+00
            S   2   1.00
                  0.427711D+01           0.500000D+00
                  0.196233D+01           0.370517D+00
            S   1   1.00
                  0.520793D+00           1.0000000
            S   1   1.00
                  0.181633D+00           1.0000000
            P   7   1.00
                  0.124440D+04           0.988206D-03
                  0.295109D+03           0.829674D-02
                  0.947224D+02           0.430906D-01
                  0.352588D+02           0.148443D+00
                  0.144211D+02           0.344744D+00
                  0.610371D+01           0.500000D+00
                  0.258886D+01           0.348278D+00
            P   2   1.00
                  0.109447D+02          -0.196768D-01
                  0.104413D+01           0.500000D+00
            P   1   1.00
                  0.376184D+00           1.0000000
            P   1   1.00
                  0.120613D+00           1.0000000
            D   1   1.00
                  0.231000D+01           1.0000000
            D   1   1.00
                  0.520000D+00           1.0000000
            F   1   1.00
                  0.720000D+00           1.0000000
            ****
            -S     0
            S   8   1.00
                  0.134700D+06           0.226231D-03
                  0.201904D+05           0.175488D-02
                  0.459528D+04           0.914190D-02
                  0.130109D+04           0.373551D-01
                  0.423902D+03           0.123121D+00
                  0.152485D+03           0.306801D+00
                  0.586925D+02           0.500000D+00
                  0.231461D+02           0.354358D+00
            S   3   1.00
                  0.116327D+03          -0.491772D-01
                  0.352841D+02          -0.215962D+00
                  0.677831D+01           0.500000D+00
            S   2   1.00
                  0.360404D+01           0.500000D+00
                  0.164871D+01           0.366278D+00
            S   1   1.00
                  0.421821D+00           1.0000000
            S   1   1.00
                  0.147554D+00           1.0000000
            P   7   1.00
                  0.104863D+04           0.105273D-02
                  0.248717D+03           0.879338D-02
                  0.797887D+02           0.453358D-01
                  0.296023D+02           0.154476D+00
                  0.120627D+02           0.352366D+00
                  0.507628D+01           0.500000D+00
                  0.213375D+01           0.346429D+00
            P   2   1.00
                  0.928958D+01          -0.185932D-01
                  0.837819D+00           0.500000D+00
            P   1   1.00
                  0.301495D+00           1.0000000
            P   1   1.00
                  0.974740D-01           1.0000000
            D   1   1.00
                  0.210000D+01           1.0000000
            D   1   1.00
                  0.480000D+00           1.0000000
            F   1   1.00
                  0.660000D+00           1.0000000
            ****
            -Br     0
            S    10   1.00
                  0.233625D+07           0.532336D-04
                  0.349961D+06           0.413715D-03
                  0.796444D+05           0.217123D-02
                  0.225555D+05           0.910109D-02
                  0.735546D+04           0.323789D-01
                  0.265352D+04           0.988755D-01
                  0.103517D+04           0.248138D+00
                  0.422205D+03           0.474328D+00
                  0.180035D+03           0.500000D+00
                  0.793308D+02           0.187769D+00
            S    4   1.00
                  0.620834D+03          -0.226511D-01
                  0.190829D+03          -0.109497D+00
                  0.312505D+02           0.500000D+00
                  0.135270D+02           0.492812D+00
            S    2   1.00
                  0.216097D+02          -0.165418D+00
                  0.372566D+01           0.500000D+00
            S    1   1.00
                  0.169770D+01           1.0000000
            S    1   1.00
                  0.489332D+00           1.0000000
            S    1   1.00
                  0.175712D+00           1.0000000
            P    8   1.00
                  0.960829D+04           0.478974D-03
                  0.227618D+04           0.417853D-02
                  0.736723D+03           0.229315D-01
                  0.281579D+03           0.892653D-01
                  0.118395D+03           0.255288D+00
                  0.527481D+02           0.479074D+00
                  0.245098D+02           0.500000D+00
                  0.112009D+02           0.200944D+00
            P    4   1.00
                  0.587849D+02          -0.189674D-01
                  0.918962D+01           0.264104D+00
                  0.413895D+01           0.500000D+00
                  0.184225D+01           0.319316D+00
            P    1   1.00
                  0.713862D+00           1.0000000
            P    1   1.00
                  0.274232D+00           1.0000000
            P    1   1.00
                  0.944411D-01           1.0000000
            D    7   1.00
                  0.398470D+03           0.204066D-02
                  0.118967D+03           0.175171D-01
                  0.450197D+02           0.829708D-01
                  0.190320D+02           0.236284D+00
                  0.855686D+01           0.428468D+00
                  0.382950D+01           0.500000D+00
                  0.166291D+01           0.349360D+00
            D    1   1.00
                  0.672953D+00           1.0000000
            D    1   1.00
                  0.252000D+00           1.0000000
            F    1   1.00
                  0.530000D+00           1.0000000
            ****
            -Si     0
            S    8   1.00
                  0.996133D+05           0.235546D-03
                  0.149311D+05           0.182707D-02
                  0.339820D+04           0.951425D-02
                  0.962140D+03           0.388172D-01
                  0.313430D+03           0.127328D+00
                  0.112683D+03           0.313522D+00
                  0.433372D+02           0.500000D+00
                  0.170029D+02           0.340347D+00
            S    3   1.00
                  0.884208D+02          -0.404451D-01
                  0.266756D+02          -0.178059D+00
                  0.479640D+01           0.500000D+00
            S    2   1.00
                  0.239385D+01           0.500000D+00
                  0.108333D+01           0.338016D+00
            S    1   1.00
                  0.252420D+00           1.0000000
            S    1   1.00
                  0.891210D-01           1.0000000
            P    7   1.00
                  0.709901D+03           0.123028D-02
                  0.168426D+03           0.101366D-01
                  0.539946D+02           0.511840D-01
                  0.198646D+02           0.169967D+00
                  0.801369D+01           0.370717D+00
                  0.331870D+01           0.500000D+00
                  0.136112D+01           0.344128D+00
            P    2   1.00
                  0.622158D+01          -0.166609D-01
                  0.503049D+00           0.500000D+00
            P    1   1.00
                  0.179848D+00           1.0000000
            P    1   1.00
                  0.591912D-01           1.0000000
            D    1   1.00
                  0.168000D+01           1.0000000
            D    1   1.00
                  0.380000D+00           1.0000000
            F    1   1.00
                  0.540000D+00           1.0000000
            ****
            -P     0
            S    8   1.00
                  0.116416D+06           0.230715D-03
                  0.174500D+05           0.178960D-02
                  0.397149D+04           0.932116D-02
                  0.112447D+04           0.380591D-01
                  0.366347D+03           0.125148D+00
                  0.131757D+03           0.310022D+00
                  0.506988D+02           0.500000D+00
                  0.199436D+02           0.347528D+00
            S    3   1.00
                  0.101878D+03          -0.446755D-01
                  0.308249D+02          -0.196376D+00
                  0.573688D+01           0.500000D+00
            S    2   1.00
                  0.296868D+01           0.500000D+00
                  0.135315D+01           0.355098D+00
            S    1   1.00
                  0.332196D+00           1.0000000
            S    1   1.00
                  0.116229D+00           1.0000000
            P    7   1.00
                  0.873928D+03           0.112375D-02
                  0.207298D+03           0.933330D-02
                  0.664628D+02           0.477213D-01
                  0.245665D+02           0.160733D+00
                  0.996820D+01           0.359760D+00
                  0.416536D+01           0.500000D+00
                  0.173022D+01           0.346593D+00
            P    2   1.00
                  0.772530D+01          -0.175718D-01
                  0.657252D+00           0.500000D+00
            P    1   1.00
                  0.239903D+00           1.0000000
            P    1   1.00
                  0.800988D-01           1.0000000
            D    1   1.00
                  0.189000D+01           1.0000000
            D    1   1.00
                  0.430000D+00           1.0000000
            F    1   1.00
                  0.600000D+00           1.0000000
            ****
            
 Initial command:
 /usr/local/apps/g16_b01_avx/g16/l1.exe "/wrk/irikura/Gau-4132.inp" -scrdir="/wrk/irikura/"
 Entering Link 1 = /usr/local/apps/g16_b01_avx/g16/l1.exe PID=      4134.
  
 Copyright (c) 1988-2017, Gaussian, Inc.  All Rights Reserved.
  
 This is part of the Gaussian(R) 16 program.  It is based on
 the Gaussian(R) 09 system (copyright 2009, Gaussian, Inc.),
 the Gaussian(R) 03 system (copyright 2003, Gaussian, Inc.),
 the Gaussian(R) 98 system (copyright 1998, Gaussian, Inc.),
 the Gaussian(R) 94 system (copyright 1995, Gaussian, Inc.),
 the Gaussian 92(TM) system (copyright 1992, Gaussian, Inc.),
 the Gaussian 90(TM) system (copyright 1990, Gaussian, Inc.),
 the Gaussian 88(TM) system (copyright 1988, Gaussian, Inc.),
 the Gaussian 86(TM) system (copyright 1986, Carnegie Mellon
 University), and the Gaussian 82(TM) system (copyright 1983,
 Carnegie Mellon University). Gaussian is a federally registered
 trademark of Gaussian, Inc.
  
 This software contains proprietary and confidential information,
 including trade secrets, belonging to Gaussian, Inc.
  
 This software is provided under written license and may be
 used, copied, transmitted, or stored only in accord with that
 written license.
  
 The following legend is applicable only to US Government
 contracts under FAR:
  
                    RESTRICTED RIGHTS LEGEND
  
 Use, reproduction and disclosure by the US Government is
 subject to restrictions as set forth in subparagraphs (a)
 and (c) of the Commercial Computer Software - Restricted
 Rights clause in FAR 52.227-19.
  
 Gaussian, Inc.
 340 Quinnipiac St., Bldg. 40, Wallingford CT 06492
  
  
 ---------------------------------------------------------------
 Warning -- This program may not be used in any manner that
 competes with the business of Gaussian, Inc. or will provide
 assistance to any competitor of Gaussian, Inc.  The licensee
 of this program is prohibited from giving any competitor of
 Gaussian, Inc. access to this program.  By using this program,
 the user acknowledges that Gaussian, Inc. is engaged in the
 business of creating and licensing software in the field of
 computational chemistry and represents and warrants to the
 licensee that it is not a competitor of Gaussian, Inc. and that
 it will not use this program in any manner prohibited above.
 ---------------------------------------------------------------
  

 Cite this work as:
 Gaussian 16, Revision B.01,
 M. J. Frisch, G. W. Trucks, H. B. Schlegel, G. E. Scuseria, 
 M. A. Robb, J. R. Cheeseman, G. Scalmani, V. Barone, 
 G. A. Petersson, H. Nakatsuji, X. Li, M. Caricato, A. V. Marenich, 
 J. Bloino, B. G. Janesko, R. Gomperts, B. Mennucci, H. P. Hratchian, 
 J. V. Ortiz, A. F. Izmaylov, J. L. Sonnenberg, D. Williams-Young, 
 F. Ding, F. Lipparini, F. Egidi, J. Goings, B. Peng, A. Petrone, 
 T. Henderson, D. Ranasinghe, V. G. Zakrzewski, J. Gao, N. Rega, 
 G. Zheng, W. Liang, M. Hada, M. Ehara, K. Toyota, R. Fukuda, 
 J. Hasegawa, M. Ishida, T. Nakajima, Y. Honda, O. Kitao, H. Nakai, 
 T. Vreven, K. Throssell, J. A. Montgomery, Jr., J. E. Peralta, 
 F. Ogliaro, M. J. Bearpark, J. J. Heyd, E. N. Brothers, K. N. Kudin, 
 V. N. Staroverov, T. A. Keith, R. Kobayashi, J. Normand, 
 K. Raghavachari, A. P. Rendell, J. C. Burant, S. S. Iyengar, 
 J. Tomasi, M. Cossi, J. M. Millam, M. Klene, C. Adamo, R. Cammi, 
 J. W. Ochterski, R. L. Martin, K. Morokuma, O. Farkas, 
 J. B. Foresman, and D. J. Fox, Gaussian, Inc., Wallingford CT, 2016.
 
 ******************************************
 Gaussian 16:  ES64L-G16RevB.01 20-Dec-2017
                16-Jun-2022 
 ******************************************
 %mem=1000mw
 %nprocs=12
 Will use up to   12 processors via shared memory.
 --------------------
 # b3lyp/gen opt freq
 --------------------
 1/18=20,19=15,26=3,38=1/1,3;
 2/9=110,12=2,17=6,18=5,40=1/2;
 3/5=7,11=2,25=1,30=1,71=1,74=-5/1,2,3;
 4//1;
 5/5=2,38=5/2;
 6/7=2,8=2,9=2,10=2,28=1/1;
 7//1,2,3,16;
 1/18=20,19=15,26=3/3(2);
 2/9=110/2;
 99//99;
 2/9=110/2;
 3/5=7,6=1,11=2,25=1,30=1,71=1,74=-5,82=7/1,2,3;
 4/5=5,16=3,69=1/1;
 5/5=2,38=5/2;
 7//1,2,3,16;
 1/18=20,19=15,26=3/3(-5);
 2/9=110/2;
 6/7=2,8=2,9=2,10=2,19=2,28=1/1;
 99/9=1/99;
 -----------------------------
 methoxylmethyl, B3LYP/pcseg-2
 -----------------------------
 Symbolic Z-matrix:
 Charge =  0 Multiplicity = 2
 O                     0.06367   0.49931  -0.02566 
 C                    -1.15841  -0.21584   0.01127 
 C                     1.17739  -0.26767   0.04897 
 H                    -1.96159   0.51324  -0.11049 
 H                    -1.28072  -0.73832   0.96838 
 H                    -1.20904  -0.95109  -0.80381 
 H                     2.09489   0.29986  -0.04689 
 H                     1.12     -1.2911   -0.31727 
 

 GradGradGradGradGradGradGradGradGradGradGradGradGradGradGradGradGradGrad
 Berny optimization.
 Initialization pass.
                           ----------------------------
                           !    Initial Parameters    !
                           ! (Angstroms and Degrees)  !
 --------------------------                            --------------------------
 ! Name  Definition              Value          Derivative Info.                !
 --------------------------------------------------------------------------------
 ! R1    R(1,2)                  1.4164         estimate D2E/DX2                !
 ! R2    R(1,3)                  1.3543         estimate D2E/DX2                !
 ! R3    R(2,4)                  1.0915         estimate D2E/DX2                !
 ! R4    R(2,5)                  1.0973         estimate D2E/DX2                !
 ! R5    R(2,6)                  1.0989         estimate D2E/DX2                !
 ! R6    R(3,7)                  1.0831         estimate D2E/DX2                !
 ! R7    R(3,8)                  1.0885         estimate D2E/DX2                !
 ! A1    A(2,1,3)              114.9698         estimate D2E/DX2                !
 ! A2    A(1,2,4)              107.1401         estimate D2E/DX2                !
 ! A3    A(1,2,5)              111.0585         estimate D2E/DX2                !
 ! A4    A(1,2,6)              110.9917         estimate D2E/DX2                !
 ! A5    A(4,2,5)              109.471          estimate D2E/DX2                !
 ! A6    A(4,2,6)              109.2856         estimate D2E/DX2                !
 ! A7    A(5,2,6)              108.86           estimate D2E/DX2                !
 ! A8    A(1,3,7)              113.2655         estimate D2E/DX2                !
 ! A9    A(1,3,8)              118.0713         estimate D2E/DX2                !
 ! A10   A(7,3,8)              120.5006         estimate D2E/DX2                !
 ! D1    D(3,1,2,4)           -177.0137         estimate D2E/DX2                !
 ! D2    D(3,1,2,5)             63.479          estimate D2E/DX2                !
 ! D3    D(3,1,2,6)            -57.7695         estimate D2E/DX2                !
 ! D4    D(2,1,3,7)            176.2197         estimate D2E/DX2                !
 ! D5    D(2,1,3,8)             27.413          estimate D2E/DX2                !
 ! D6    D(1,3,7,8)           -147.9679         estimate D2E/DX2                !
 --------------------------------------------------------------------------------
 Trust Radius=3.00D-01 FncErr=1.00D-07 GrdErr=1.00D-06 EigMax=2.50D+02 EigMin=1.00D-04
 Number of steps in this run=     33 maximum allowed number of steps=    100.
 GradGradGradGradGradGradGradGradGradGradGradGradGradGradGradGradGradGrad

                          Input orientation:                          
 ---------------------------------------------------------------------
 Center     Atomic      Atomic             Coordinates (Angstroms)
 Number     Number       Type             X           Y           Z
 ---------------------------------------------------------------------
      1          8           0        0.063671    0.499310   -0.025659
      2          6           0       -1.158412   -0.215836    0.011268
      3          6           0        1.177388   -0.267669    0.048974
      4          1           0       -1.961586    0.513243   -0.110490
      5          1           0       -1.280717   -0.738323    0.968381
      6          1           0       -1.209035   -0.951089   -0.803811
      7          1           0        2.094891    0.299863   -0.046887
      8          1           0        1.120003   -1.291103   -0.317268
 ---------------------------------------------------------------------
                    Distance matrix (angstroms):
                    1          2          3          4          5
     1  O    0.000000
     2  C    1.416434   0.000000
     3  C    1.354324   2.336679   0.000000
     4  H    2.027081   1.091545   3.238581   0.000000
     5  H    2.080200   1.097277   2.666290   1.787166   0.000000
     6  H    2.080615   1.098869   2.624751   1.786420   1.786357
     7  H    2.041099   3.294436   1.083094   4.062583   3.674688
     8  H    2.099155   2.540730   1.088505   3.576956   2.778833
                    6          7          8
     6  H    0.000000
     7  H    3.612996   0.000000
     8  H    2.403487   1.885387   0.000000
 Stoichiometry    C2H5O(2)
 Framework group  C1[X(C2H5O)]
 Deg. of freedom    18
 Full point group                 C1      NOp   1
 Largest Abelian subgroup         C1      NOp   1
 Largest concise Abelian subgroup C1      NOp   1
                         Standard orientation:                         
 ---------------------------------------------------------------------
 Center     Atomic      Atomic             Coordinates (Angstroms)
 Number     Number       Type             X           Y           Z
 ---------------------------------------------------------------------
      1          8           0       -0.090900   -0.540577   -0.041577
      2          6           0        1.134789    0.167157    0.013959
      3          6           0       -1.200293    0.227290    0.075983
      4          1           0        1.933394   -0.559527   -0.146133
      5          1           0        1.268419    0.648140    0.991105
      6          1           0        1.181251    0.936028   -0.769745
      7          1           0       -2.121280   -0.331766   -0.035080
      8          1           0       -1.141554    1.265055   -0.247185
 ---------------------------------------------------------------------
 Rotational constants (GHZ):          47.4236886          10.6964908           9.2904450
 General basis read from cards:  (5D, 7F)
 There are   180 symmetry adapted cartesian basis functions of A   symmetry.
 There are   160 symmetry adapted basis functions of A   symmetry.
   160 basis functions,   243 primitive gaussians,   180 cartesian basis functions
    13 alpha electrons       12 beta electrons
       nuclear repulsion energy        77.3725656922 Hartrees.
 NAtoms=    8 NActive=    8 NUniq=    8 SFac= 1.00D+00 NAtFMM=   60 NAOKFM=F Big=F
 Integral buffers will be    131072 words long.
 Raffenetti 2 integral format.
 Two-electron integral symmetry is turned on.
 One-electron integrals computed using PRISM.
 NBasis=   160 RedAO= T EigKep=  1.53D-03  NBF=   160
 NBsUse=   160 1.00D-06 EigRej= -1.00D+00 NBFU=   160
 ExpMin= 7.42D-02 ExpMax= 1.36D+04 ExpMxC= 4.64D+02 IAcc=3 IRadAn=         5 AccDes= 0.00D+00
 Harris functional with IExCor=  402 and IRadAn=       5 diagonalized for initial guess.
 HarFok:  IExCor=  402 AccDes= 0.00D+00 IRadAn=         5 IDoV= 1 UseB2=F ITyADJ=14
 ICtDFT=  3500011 ScaDFX=  1.000000  1.000000  1.000000  1.000000
 FoFCou: FMM=F IPFlag=           0 FMFlag=      100000 FMFlg1=           0
         NFxFlg=           0 DoJE=T BraDBF=F KetDBF=T FulRan=T
         wScrn=  0.000000 ICntrl=       500 IOpCl=  0 I1Cent=   200000004 NGrid=           0
         NMat0=    1 NMatS0=      1 NMatT0=    0 NMatD0=    1 NMtDS0=    0 NMtDT0=    0
 Petite list used in FoFCou.
 Initial guess <Sx>= 0.0000 <Sy>= 0.0000 <Sz>= 0.5000 <S**2>= 0.7500 S= 0.5000
 Keep R1 and R2 ints in memory in canonical form, NReq=178021748.
 Requested convergence on RMS density matrix=1.00D-08 within 128 cycles.
 Requested convergence on MAX density matrix=1.00D-06.
 Requested convergence on             energy=1.00D-06.
 No special actions if energy rises.
 Integral accuracy reduced to 1.0D-05 until final iterations.
 Initial convergence to 1.0D-05 achieved.  Increase integral accuracy.
 SCF Done:  E(UB3LYP) =  -154.433799455     A.U. after   14 cycles
            NFock= 14  Conv=0.25D-08     -V/T= 2.0039
 <Sx>= 0.0000 <Sy>= 0.0000 <Sz>= 0.5000 <S**2>= 0.7535 S= 0.5018
 <L.S>=  0.00000000000    
 Annihilation of the first spin contaminant:
 S**2 before annihilation     0.7535,   after     0.7500

 **********************************************************************

            Population analysis using the SCF Density.

 **********************************************************************

 Orbital symmetries:
 Alpha Orbitals:
       Occupied  (A) (A) (A) (A) (A) (A) (A) (A) (A) (A) (A) (A)
                 (A)
       Virtual   (A) (A) (A) (A) (A) (A) (A) (A) (A) (A) (A) (A)
                 (A) (A) (A) (A) (A) (A) (A) (A) (A) (A) (A) (A)
                 (A) (A) (A) (A) (A) (A) (A) (A) (A) (A) (A) (A)
                 (A) (A) (A) (A) (A) (A) (A) (A) (A) (A) (A) (A)
                 (A) (A) (A) (A) (A) (A) (A) (A) (A) (A) (A) (A)
                 (A) (A) (A) (A) (A) (A) (A) (A) (A) (A) (A) (A)
                 (A) (A) (A) (A) (A) (A) (A) (A) (A) (A) (A) (A)
                 (A) (A) (A) (A) (A) (A) (A) (A) (A) (A) (A) (A)
                 (A) (A) (A) (A) (A) (A) (A) (A) (A) (A) (A) (A)
                 (A) (A) (A) (A) (A) (A) (A) (A) (A) (A) (A) (A)
                 (A) (A) (A) (A) (A) (A) (A) (A) (A) (A) (A) (A)
                 (A) (A) (A) (A) (A) (A) (A) (A) (A) (A) (A) (A)
                 (A) (A) (A)
 Beta  Orbitals:
       Occupied  (A) (A) (A) (A) (A) (A) (A) (A) (A) (A) (A) (A)
       Virtual   (A) (A) (A) (A) (A) (A) (A) (A) (A) (A) (A) (A)
                 (A) (A) (A) (A) (A) (A) (A) (A) (A) (A) (A) (A)
                 (A) (A) (A) (A) (A) (A) (A) (A) (A) (A) (A) (A)
                 (A) (A) (A) (A) (A) (A) (A) (A) (A) (A) (A) (A)
                 (A) (A) (A) (A) (A) (A) (A) (A) (A) (A) (A) (A)
                 (A) (A) (A) (A) (A) (A) (A) (A) (A) (A) (A) (A)
                 (A) (A) (A) (A) (A) (A) (A) (A) (A) (A) (A) (A)
                 (A) (A) (A) (A) (A) (A) (A) (A) (A) (A) (A) (A)
                 (A) (A) (A) (A) (A) (A) (A) (A) (A) (A) (A) (A)
                 (A) (A) (A) (A) (A) (A) (A) (A) (A) (A) (A) (A)
                 (A) (A) (A) (A) (A) (A) (A) (A) (A) (A) (A) (A)
                 (A) (A) (A) (A) (A) (A) (A) (A) (A) (A) (A) (A)
                 (A) (A) (A) (A)
 The electronic state is 2-A.
 Alpha  occ. eigenvalues --  -19.16364 -10.22801 -10.21697  -1.07374  -0.73577
 Alpha  occ. eigenvalues --   -0.63267  -0.50248  -0.49451  -0.47586  -0.39911
 Alpha  occ. eigenvalues --   -0.36057  -0.34015  -0.18228
 Alpha virt. eigenvalues --    0.01690   0.04770   0.06399   0.06816   0.07894
 Alpha virt. eigenvalues --    0.09143   0.14881   0.16792   0.18358   0.20674
 Alpha virt. eigenvalues --    0.25192   0.27616   0.29105   0.30661   0.32982
 Alpha virt. eigenvalues --    0.33152   0.34066   0.35419   0.37324   0.39260
 Alpha virt. eigenvalues --    0.45445   0.46262   0.52161   0.65021   0.71716
 Alpha virt. eigenvalues --    0.77010   0.82842   0.85440   0.88430   0.91502
 Alpha virt. eigenvalues --    0.94094   0.95701   0.97419   1.00132   1.02374
 Alpha virt. eigenvalues --    1.04662   1.05298   1.07115   1.09710   1.15577
 Alpha virt. eigenvalues --    1.21922   1.24169   1.27409   1.31726   1.34982
 Alpha virt. eigenvalues --    1.37823   1.49997   1.51460   1.54530   1.59112
 Alpha virt. eigenvalues --    1.63753   1.69663   1.70708   1.74385   1.78248
 Alpha virt. eigenvalues --    1.84618   1.88184   2.04103   2.07047   2.11729
 Alpha virt. eigenvalues --    2.21721   2.24448   2.30530   2.37003   2.46620
 Alpha virt. eigenvalues --    2.50375   2.59232   2.59551   2.79077   3.07778
 Alpha virt. eigenvalues --    3.19564   3.22353   3.25428   3.27306   3.28162
 Alpha virt. eigenvalues --    3.30684   3.38892   3.42188   3.45065   3.51816
 Alpha virt. eigenvalues --    3.66432   3.69789   3.73191   3.75792   3.79662
 Alpha virt. eigenvalues --    3.82441   3.85514   3.88065   3.91435   3.92790
 Alpha virt. eigenvalues --    3.98176   4.00548   4.02885   4.09089   4.12330
 Alpha virt. eigenvalues --    4.13476   4.23713   4.26600   4.29464   4.30561
 Alpha virt. eigenvalues --    4.32545   4.37009   4.41826   4.43991   4.46959
 Alpha virt. eigenvalues --    4.48382   4.50122   4.54281   4.57709   4.59095
 Alpha virt. eigenvalues --    4.62841   4.69145   4.70729   4.71392   4.78697
 Alpha virt. eigenvalues --    4.88137   4.96307   4.97735   4.98609   5.13825
 Alpha virt. eigenvalues --    5.14217   5.17381   5.33961   5.37290   5.44578
 Alpha virt. eigenvalues --    5.50842   5.59991   5.62938   5.66304   5.69665
 Alpha virt. eigenvalues --    5.78069   5.78762   5.81419   5.83452   5.86696
 Alpha virt. eigenvalues --    5.90149   5.93426   6.01913   6.06833   6.14304
 Alpha virt. eigenvalues --    6.35651   6.44986   6.46289   6.51197   6.69931
 Alpha virt. eigenvalues --    7.00731   7.20736
  Beta  occ. eigenvalues --  -19.15790 -10.22817 -10.20394  -1.06212  -0.72753
  Beta  occ. eigenvalues --   -0.61354  -0.49587  -0.48751  -0.46217  -0.39496
  Beta  occ. eigenvalues --   -0.34395  -0.32033
  Beta virt. eigenvalues --   -0.04663   0.01770   0.05010   0.06516   0.07112
  Beta virt. eigenvalues --    0.08245   0.09348   0.15046   0.17251   0.19353
  Beta virt. eigenvalues --    0.22417   0.26675   0.27916   0.29571   0.31403
  Beta virt. eigenvalues --    0.33250   0.33356   0.34659   0.36062   0.37759
  Beta virt. eigenvalues --    0.40290   0.45950   0.46779   0.52359   0.65339
  Beta virt. eigenvalues --    0.72041   0.77607   0.83313   0.87048   0.88665
  Beta virt. eigenvalues --    0.91767   0.94292   0.96061   0.97853   1.00730
  Beta virt. eigenvalues --    1.03406   1.04867   1.05547   1.07967   1.10904
  Beta virt. eigenvalues --    1.16095   1.22800   1.25033   1.30981   1.33673
  Beta virt. eigenvalues --    1.38125   1.38426   1.50721   1.52379   1.55451
  Beta virt. eigenvalues --    1.59906   1.64156   1.69865   1.71968   1.74911
  Beta virt. eigenvalues --    1.78602   1.85191   1.89228   2.04922   2.07815
  Beta virt. eigenvalues --    2.12395   2.22326   2.24953   2.31368   2.37943
  Beta virt. eigenvalues --    2.47768   2.51755   2.59536   2.60527   2.79569
  Beta virt. eigenvalues --    3.08152   3.20949   3.23628   3.25505   3.27801
  Beta virt. eigenvalues --    3.28970   3.31195   3.39965   3.44552   3.46678
  Beta virt. eigenvalues --    3.52948   3.67014   3.70453   3.73473   3.76845
  Beta virt. eigenvalues --    3.80992   3.82814   3.85896   3.90513   3.91888
  Beta virt. eigenvalues --    3.93214   3.99923   4.01602   4.03851   4.10321
  Beta virt. eigenvalues --    4.13822   4.16186   4.25824   4.27435   4.30260
  Beta virt. eigenvalues --    4.31181   4.33442   4.37301   4.42351   4.44493
  Beta virt. eigenvalues --    4.47647   4.49298   4.50782   4.54766   4.57969
  Beta virt. eigenvalues --    4.59331   4.63238   4.69418   4.71246   4.71691
  Beta virt. eigenvalues --    4.79056   4.88787   4.96841   4.98200   5.00174
  Beta virt. eigenvalues --    5.14219   5.14920   5.18167   5.35217   5.37772
  Beta virt. eigenvalues --    5.45533   5.51721   5.61151   5.63547   5.66662
  Beta virt. eigenvalues --    5.70339   5.78260   5.79291   5.81597   5.83756
  Beta virt. eigenvalues --    5.87313   5.90471   5.94038   6.02306   6.06922
  Beta virt. eigenvalues --    6.14673   6.36464   6.46328   6.47929   6.51839
  Beta virt. eigenvalues --    6.71571   7.01081   7.21080
          Condensed to atoms (all electrons):
               1          2          3          4          5          6
     1  O    8.123014   0.224482   0.220935  -0.035053  -0.050004  -0.041936
     2  C    0.224482   4.435310  -0.066039   0.415685   0.424341   0.420567
     3  C    0.220935  -0.066039   4.967299   0.009039   0.013956  -0.017897
     4  H   -0.035053   0.415685   0.009039   0.615056  -0.025534  -0.023119
     5  H   -0.050004   0.424341   0.013956  -0.025534   0.668190  -0.059061
     6  H   -0.041936   0.420567  -0.017897  -0.023119  -0.059061   0.684119
     7  H   -0.035757   0.005065   0.429995  -0.000358   0.000028  -0.000471
     8  H   -0.043932  -0.005771   0.396979   0.000467  -0.006514   0.014922
               7          8
     1  O   -0.035757  -0.043932
     2  C    0.005065  -0.005771
     3  C    0.429995   0.396979
     4  H   -0.000358   0.000467
     5  H    0.000028  -0.006514
     6  H   -0.000471   0.014922
     7  H    0.600902  -0.047963
     8  H   -0.047963   0.672006
          Atomic-Atomic Spin Densities.
               1          2          3          4          5          6
     1  O    0.304927   0.026429  -0.194061   0.000096  -0.014528  -0.006277
     2  C    0.026429  -0.003752  -0.019174   0.000370  -0.006833  -0.008554
     3  C   -0.194061  -0.019174   1.110087   0.000071   0.027364  -0.001065
     4  H    0.000096   0.000370   0.000071  -0.002121   0.000789  -0.000357
     5  H   -0.014528  -0.006833   0.027364   0.000789   0.033240  -0.015587
     6  H   -0.006277  -0.008554  -0.001065  -0.000357  -0.015587   0.035153
     7  H   -0.001825  -0.000618   0.008343   0.000060  -0.000252   0.000272
     8  H    0.000364  -0.004820  -0.014489  -0.000308  -0.004644   0.007276
               7          8
     1  O   -0.001825   0.000364
     2  C   -0.000618  -0.004820
     3  C    0.008343  -0.014489
     4  H    0.000060  -0.000308
     5  H   -0.000252  -0.004644
     6  H    0.000272   0.007276
     7  H   -0.034652   0.005761
     8  H    0.005761  -0.010494
 Mulliken charges and spin densities:
               1          2
     1  O   -0.361749   0.115126
     2  C    0.146361  -0.016951
     3  C    0.045733   0.917076
     4  H    0.043818  -0.001399
     5  H    0.034598   0.019549
     6  H    0.022876   0.010861
     7  H    0.048557  -0.022909
     8  H    0.019806  -0.021353
 Sum of Mulliken charges =  -0.00000   1.00000
 Mulliken charges and spin densities with hydrogens summed into heavy atoms:
               1          2
     1  O   -0.361749   0.115126
     2  C    0.247653   0.012059
     3  C    0.114096   0.872814
 Electronic spatial extent (au):  <R**2>=            174.7706
 Charge=             -0.0000 electrons
 Dipole moment (field-independent basis, Debye):
    X=              0.9190    Y=              0.9560    Z=             -0.3517  Tot=              1.3719
 Quadrupole moment (field-independent basis, Debye-Ang):
   XX=            -17.2097   YY=            -20.1015   ZZ=            -20.8819
   XY=              0.1945   XZ=              0.5752   YZ=             -0.4150
 Traceless Quadrupole moment (field-independent basis, Debye-Ang):
   XX=              2.1880   YY=             -0.7038   ZZ=             -1.4842
   XY=              0.1945   XZ=              0.5752   YZ=             -0.4150
 Octapole moment (field-independent basis, Debye-Ang**2):
  XXX=              1.0721  YYY=             -1.3401  ZZZ=             -0.8670  XYY=              0.5032
  XXY=             -2.8737  XXZ=             -1.1410  XZZ=              2.5994  YZZ=             -0.7913
  YYZ=             -0.8190  XYZ=              0.5465
 Hexadecapole moment (field-independent basis, Debye-Ang**3):
 XXXX=           -154.4094 YYYY=            -48.4027 ZZZZ=            -32.0023 XXXY=              1.8746
 XXXZ=              1.3967 YYYX=             -0.4836 YYYZ=             -0.9992 ZZZX=              1.6770
 ZZZY=             -0.3071 XXYY=            -33.3784 XXZZ=            -35.5509 YYZZ=            -13.4712
 XXYZ=             -0.1455 YYXZ=              0.4006 ZZXY=              1.4763
 N-N= 7.737256569220D+01 E-N=-5.157648209838D+02  KE= 1.538356521494D+02
                          Isotropic Fermi Contact Couplings
        Atom                 a.u.       MegaHertz       Gauss      10(-4) cm-1
     1  O(17)              0.06165     -37.37175     -13.33517     -12.46587
     2  C(13)             -0.00278      -3.12953      -1.11669      -1.04390
     3  C(13)              0.18065     203.08153      72.46454      67.74071
     4  H(1)              -0.00041      -1.83486      -0.65472      -0.61204
     5  H(1)               0.00267      11.94895       4.26368       3.98574
     6  H(1)               0.00248      11.07280       3.95105       3.69349
     7  H(1)              -0.00873     -39.01151     -13.92028     -13.01284
     8  H(1)              -0.00638     -28.49601     -10.16808      -9.50525
 --------------------------------------------------------
       Center         ----  Spin Dipole Couplings  ----
                      3XX-RR        3YY-RR        3ZZ-RR
 --------------------------------------------------------
     1   Atom       -0.464468     -0.483725      0.948193
     2   Atom        0.017929     -0.005641     -0.012288
     3   Atom       -0.521042     -0.492814      1.013856
     4   Atom        0.011223     -0.006230     -0.004993
     5   Atom        0.012154     -0.005427     -0.006728
     6   Atom        0.008004     -0.003389     -0.004615
     7   Atom        0.026926     -0.027798      0.000872
     8   Atom       -0.062744      0.055082      0.007663
 --------------------------------------------------------
                        XY            XZ            YZ
 --------------------------------------------------------
     1   Atom        0.009372     -0.054673      0.093839
     2   Atom        0.006788     -0.005350     -0.001192
     3   Atom        0.009579      0.024024      0.201577
     4   Atom       -0.001747     -0.001304      0.000316
     5   Atom        0.004557      0.005337      0.002057
     6   Atom        0.006470     -0.005814     -0.002356
     7   Atom        0.056140      0.004232      0.007826
     8   Atom        0.009031      0.001696     -0.017390
 --------------------------------------------------------


 ---------------------------------------------------------------------------------
              Anisotropic Spin Dipole Couplings in Principal Axis System
 ---------------------------------------------------------------------------------

       Atom             a.u.   MegaHertz   Gauss  10(-4) cm-1        Axes

              Baa    -0.4956    35.860    12.796    11.961 -0.4055  0.9110 -0.0746
     1 O(17)  Bbb    -0.4608    33.342    11.897    11.122  0.9133  0.4072  0.0083
              Bcc     0.9564   -69.202   -24.693   -23.083 -0.0379  0.0647  0.9972
 
              Baa    -0.0132    -1.772    -0.632    -0.591  0.1685  0.0041  0.9857
     2 C(13)  Bbb    -0.0074    -0.999    -0.357    -0.333 -0.2506  0.9673  0.0388
              Bcc     0.0207     2.772     0.989     0.925  0.9533  0.2535 -0.1640
 
              Baa    -0.5268   -70.696   -25.226   -23.582  0.7631 -0.6423  0.0721
     3 C(13)  Bbb    -0.5139   -68.964   -24.608   -23.004  0.6461  0.7553 -0.1098
              Bcc     1.0408   139.660    49.834    46.586  0.0160  0.1304  0.9913
 
              Baa    -0.0064    -3.430    -1.224    -1.144  0.0875  0.9866 -0.1376
     4 H(1)   Bbb    -0.0051    -2.707    -0.966    -0.903  0.0929  0.1294  0.9872
              Bcc     0.0115     6.138     2.190     2.047  0.9918 -0.0991 -0.0803
 
              Baa    -0.0085    -4.527    -1.615    -1.510 -0.1491 -0.3892  0.9090
     5 H(1)   Bbb    -0.0063    -3.351    -1.196    -1.118 -0.3154  0.8900  0.3294
              Bcc     0.0148     7.877     2.811     2.628  0.9372  0.2375  0.2555
 
              Baa    -0.0069    -3.691    -1.317    -1.231  0.4299 -0.2004  0.8804
     6 H(1)   Bbb    -0.0062    -3.320    -1.185    -1.108 -0.2717  0.9011  0.3378
              Bcc     0.0131     7.012     2.502     2.339  0.8610  0.3845 -0.3329
 
              Baa    -0.0632   -33.717   -12.031   -11.247 -0.5252  0.8482 -0.0689
     7 H(1)   Bbb     0.0002     0.112     0.040     0.037 -0.1416 -0.0072  0.9899
              Bcc     0.0630    33.605    11.991    11.209  0.8391  0.5296  0.1239
 
              Baa    -0.0636   -33.915   -12.102   -11.313  0.9957 -0.0822 -0.0438
     8 H(1)   Bbb     0.0023     1.208     0.431     0.403  0.0667  0.3017  0.9511
              Bcc     0.0613    32.707    11.671    10.910  0.0650  0.9498 -0.3059
 

 ---------------------------------------------------------------------------------

 Calling FoFJK, ICntrl=      2127 FMM=F ISym2X=0 I1Cent= 0 IOpClX= 1 NMat=1 NMatS=1 NMatT=0.
 ***** Axes restored to original set *****
 -------------------------------------------------------------------
 Center     Atomic                   Forces (Hartrees/Bohr)
 Number     Number              X              Y              Z
 -------------------------------------------------------------------
      1        8           0.002254713   -0.001587874    0.000977905
      2        6          -0.006117956   -0.001972799   -0.000262327
      3        6           0.002413784    0.001120573   -0.003531608
      4        1           0.002308283   -0.002087608    0.000351168
      5        1           0.000831012    0.001802161   -0.002235493
      6        1           0.000585786    0.002272364    0.001921534
      7        1          -0.002037496   -0.001581348    0.001097091
      8        1          -0.000238126    0.002034531    0.001681730
 -------------------------------------------------------------------
 Cartesian Forces:  Max     0.006117956 RMS     0.002163429

 GradGradGradGradGradGradGradGradGradGradGradGradGradGradGradGradGradGrad
 Berny optimization.
 FormGI is forming the generalized inverse of G from B-inverse, IUseBI=4.
 Internal  Forces:  Max     0.003132074 RMS     0.001548592
 Search for a local minimum.
 Step number   1 out of a maximum of   33
 All quantities printed in internal units (Hartrees-Bohrs-Radians)
 Mixed Optimization -- RFO/linear search
 Second derivative matrix not updated -- first step.
 ITU=  0
     Eigenvalues ---    0.01474   0.01851   0.02296   0.10156   0.10556
     Eigenvalues ---    0.14957   0.16000   0.16000   0.16000   0.16000
     Eigenvalues ---    0.25000   0.33807   0.33985   0.34635   0.34986
     Eigenvalues ---    0.35623   0.43002   0.54112
 RFO step:  Lambda=-2.63836790D-04 EMin= 1.47439480D-02
 Linear search not attempted -- first point.
 Iteration  1 RMS(Cart)=  0.01053736 RMS(Int)=  0.00030414
 Iteration  2 RMS(Cart)=  0.00020279 RMS(Int)=  0.00021755
 Iteration  3 RMS(Cart)=  0.00000003 RMS(Int)=  0.00021755
 Variable       Old X    -DE/DX   Delta X   Delta X   Delta X     New X
                                 (Linear)    (Quad)   (Total)
    R1        2.67667   0.00205   0.00000   0.00477   0.00477   2.68144
    R2        2.55930  -0.00082   0.00000  -0.00151  -0.00151   2.55779
    R3        2.06272  -0.00313   0.00000  -0.00904  -0.00904   2.05368
    R4        2.07355  -0.00290   0.00000  -0.00853  -0.00853   2.06502
    R5        2.07656  -0.00297   0.00000  -0.00879  -0.00879   2.06778
    R6        2.04675  -0.00265   0.00000  -0.00744  -0.00744   2.03931
    R7        2.05698  -0.00247   0.00000  -0.00704  -0.00704   2.04993
    A1        2.00660   0.00230   0.00000   0.00920   0.00920   2.01580
    A2        1.86995   0.00025   0.00000   0.00162   0.00162   1.87157
    A3        1.93834  -0.00088   0.00000  -0.00560  -0.00561   1.93273
    A4        1.93717  -0.00066   0.00000  -0.00407  -0.00407   1.93310
    A5        1.91063   0.00026   0.00000   0.00158   0.00158   1.91221
    A6        1.90739   0.00025   0.00000   0.00176   0.00176   1.90915
    A7        1.89997   0.00078   0.00000   0.00478   0.00477   1.90474
    A8        1.97686   0.00076   0.00000   0.01322   0.01266   1.98952
    A9        2.06073  -0.00052   0.00000   0.00673   0.00611   2.06684
   A10        2.10313   0.00040   0.00000   0.01068   0.01011   2.11325
    D1       -3.08947  -0.00001   0.00000   0.00136   0.00136  -3.08811
    D2        1.10792   0.00002   0.00000   0.00166   0.00166   1.10958
    D3       -1.00827   0.00007   0.00000   0.00218   0.00217  -1.00610
    D4        3.07561   0.00054   0.00000   0.02433   0.02438   3.09999
    D5        0.47845  -0.00072   0.00000  -0.03212  -0.03217   0.44628
    D6       -2.58253  -0.00098   0.00000  -0.05664  -0.05686  -2.63939
         Item               Value     Threshold  Converged?
 Maximum Force            0.003132     0.000450     NO 
 RMS     Force            0.001549     0.000300     NO 
 Maximum Displacement     0.028069     0.001800     NO 
 RMS     Displacement     0.010504     0.001200     NO 
 Predicted change in Energy=-1.352749D-04
 GradGradGradGradGradGradGradGradGradGradGradGradGradGradGradGradGradGrad

                          Input orientation:                          
 ---------------------------------------------------------------------
 Center     Atomic      Atomic             Coordinates (Angstroms)
 Number     Number       Type             X           Y           Z
 ---------------------------------------------------------------------
      1          8           0        0.062383    0.495955   -0.029942
      2          6           0       -1.163919   -0.216790    0.010255
      3          6           0        1.180463   -0.264188    0.034121
      4          1           0       -1.963064    0.510735   -0.104326
      5          1           0       -1.277507   -0.737882    0.964033
      6          1           0       -1.216114   -0.945043   -0.804754
      7          1           0        2.098390    0.298506   -0.039163
      8          1           0        1.125572   -1.292896   -0.305716
 ---------------------------------------------------------------------
                    Distance matrix (angstroms):
                    1          2          3          4          5
     1  O    0.000000
     2  C    1.418957   0.000000
     3  C    1.353523   2.344983   0.000000
     4  H    2.026867   1.086763   3.240592   0.000000
     5  H    2.075005   1.092764   2.670345   1.780568   0.000000
     6  H    2.076382   1.094220   2.628851   1.779838   1.781936
     7  H    2.045579   3.303124   1.079158   4.067517   3.671128
     8  H    2.099144   2.549433   1.084778   3.582361   2.774003
                    6          7          8
     6  H    0.000000
     7  H    3.621944   0.000000
     8  H    2.419407   1.884140   0.000000
 Stoichiometry    C2H5O(2)
 Framework group  C1[X(C2H5O)]
 Deg. of freedom    18
 Full point group                 C1      NOp   1
 Largest Abelian subgroup         C1      NOp   1
 Largest concise Abelian subgroup C1      NOp   1
                         Standard orientation:                         
 ---------------------------------------------------------------------
 Center     Atomic      Atomic             Coordinates (Angstroms)
 Number     Number       Type             X           Y           Z
 ---------------------------------------------------------------------
      1          8           0       -0.090812   -0.537645   -0.040801
      2          6           0        1.139604    0.166969    0.014269
      3          6           0       -1.204051    0.224467    0.068330
      4          1           0        1.933507   -0.558932   -0.140132
      5          1           0        1.267210    0.647281    0.987485
      6          1           0        1.185968    0.928325   -0.770271
      7          1           0       -2.125721   -0.330313   -0.017262
      8          1           0       -1.147787    1.266182   -0.229003
 ---------------------------------------------------------------------
 Rotational constants (GHZ):          47.9230889          10.6398709           9.2565599
 Basis read from rwf:  (5D, 7F)
 There are   180 symmetry adapted cartesian basis functions of A   symmetry.
 There are   160 symmetry adapted basis functions of A   symmetry.
   160 basis functions,   243 primitive gaussians,   180 cartesian basis functions
    13 alpha electrons       12 beta electrons
       nuclear repulsion energy        77.3758627778 Hartrees.
 NAtoms=    8 NActive=    8 NUniq=    8 SFac= 1.00D+00 NAtFMM=   60 NAOKFM=F Big=F
 Integral buffers will be    131072 words long.
 Raffenetti 2 integral format.
 Two-electron integral symmetry is turned on.
 One-electron integrals computed using PRISM.
 NBasis=   160 RedAO= T EigKep=  1.52D-03  NBF=   160
 NBsUse=   160 1.00D-06 EigRej= -1.00D+00 NBFU=   160
 Initial guess from the checkpoint file:  "/wrk/irikura/Gau-4134.chk"
 B after Tr=     0.000000    0.000000    0.000000
         Rot=    1.000000    0.000318    0.000146   -0.000100 Ang=   0.04 deg.
 Initial guess <Sx>= 0.0000 <Sy>= 0.0000 <Sz>= 0.5000 <S**2>= 0.7535 S= 0.5018
 ExpMin= 7.42D-02 ExpMax= 1.36D+04 ExpMxC= 4.64D+02 IAcc=3 IRadAn=         5 AccDes= 0.00D+00
 Harris functional with IExCor=  402 and IRadAn=       5 diagonalized for initial guess.
 HarFok:  IExCor=  402 AccDes= 0.00D+00 IRadAn=         5 IDoV= 1 UseB2=F ITyADJ=14
 ICtDFT=  3500011 ScaDFX=  1.000000  1.000000  1.000000  1.000000
 FoFCou: FMM=F IPFlag=           0 FMFlag=      100000 FMFlg1=           0
         NFxFlg=           0 DoJE=T BraDBF=F KetDBF=T FulRan=T
         wScrn=  0.000000 ICntrl=       500 IOpCl=  0 I1Cent=   200000004 NGrid=           0
         NMat0=    1 NMatS0=      1 NMatT0=    0 NMatD0=    1 NMtDS0=    0 NMtDT0=    0
 Petite list used in FoFCou.
 Keep R1 and R2 ints in memory in canonical form, NReq=178021748.
 Requested convergence on RMS density matrix=1.00D-08 within 128 cycles.
 Requested convergence on MAX density matrix=1.00D-06.
 Requested convergence on             energy=1.00D-06.
 No special actions if energy rises.
 Integral accuracy reduced to 1.0D-05 until final iterations.
 Initial convergence to 1.0D-05 achieved.  Increase integral accuracy.
 SCF Done:  E(UB3LYP) =  -154.433954178     A.U. after   11 cycles
            NFock= 11  Conv=0.50D-08     -V/T= 2.0038
 <Sx>= 0.0000 <Sy>= 0.0000 <Sz>= 0.5000 <S**2>= 0.7536 S= 0.5018
 <L.S>=  0.00000000000    
 Annihilation of the first spin contaminant:
 S**2 before annihilation     0.7536,   after     0.7500
 Calling FoFJK, ICntrl=      2127 FMM=F ISym2X=0 I1Cent= 0 IOpClX= 1 NMat=1 NMatS=1 NMatT=0.
 ***** Axes restored to original set *****
 -------------------------------------------------------------------
 Center     Atomic                   Forces (Hartrees/Bohr)
 Number     Number              X              Y              Z
 -------------------------------------------------------------------
      1        8           0.001680285    0.000117945    0.000498077
      2        6          -0.001040166   -0.001204765   -0.000184805
      3        6          -0.000261026    0.000001988   -0.001299191
      4        1           0.000366782    0.000162912   -0.000023546
      5        1           0.000160309    0.000186714   -0.000009285
      6        1           0.000132940    0.000216634    0.000069305
      7        1          -0.000706518    0.000118519    0.000322750
      8        1          -0.000332606    0.000400054    0.000626696
 -------------------------------------------------------------------
 Cartesian Forces:  Max     0.001680285 RMS     0.000611740

 GradGradGradGradGradGradGradGradGradGradGradGradGradGradGradGradGradGrad
 Berny optimization.
 Using GEDIIS/GDIIS optimizer.
 FormGI is forming the generalized inverse of G from B-inverse, IUseBI=4.
 Internal  Forces:  Max     0.001383051 RMS     0.000449799
 Search for a local minimum.
 Step number   2 out of a maximum of   33
 All quantities printed in internal units (Hartrees-Bohrs-Radians)
 Mixed Optimization -- En-DIIS/RFO-DIIS
 Update second derivatives using D2CorX and points    1    2
 DE= -1.55D-04 DEPred=-1.35D-04 R= 1.14D+00
 TightC=F SS=  1.41D+00  RLast= 7.55D-02 DXNew= 5.0454D-01 2.2643D-01
 Trust test= 1.14D+00 RLast= 7.55D-02 DXMaxT set to 3.00D-01
 ITU=  1  0
 Use linear search instead of GDIIS.
     Eigenvalues ---    0.01387   0.01480   0.02299   0.10214   0.10568
     Eigenvalues ---    0.14707   0.15657   0.16000   0.16000   0.16612
     Eigenvalues ---    0.26193   0.33190   0.33925   0.34319   0.35307
     Eigenvalues ---    0.35652   0.42500   0.54790
 RFO step:  Lambda=-3.08729757D-05 EMin= 1.38687018D-02
 Quartic linear search produced a step of  0.23686.
 Iteration  1 RMS(Cart)=  0.00685081 RMS(Int)=  0.00014014
 Iteration  2 RMS(Cart)=  0.00007141 RMS(Int)=  0.00011508
 Iteration  3 RMS(Cart)=  0.00000000 RMS(Int)=  0.00011508
 Variable       Old X    -DE/DX   Delta X   Delta X   Delta X     New X
                                 (Linear)    (Quad)   (Total)
    R1        2.68144   0.00065   0.00113   0.00124   0.00237   2.68381
    R2        2.55779  -0.00138  -0.00036  -0.00297  -0.00333   2.55446
    R3        2.05368  -0.00016  -0.00214   0.00061  -0.00153   2.05215
    R4        2.06502  -0.00011  -0.00202   0.00069  -0.00133   2.06370
    R5        2.06778  -0.00020  -0.00208   0.00040  -0.00168   2.06609
    R6        2.03931  -0.00056  -0.00176  -0.00099  -0.00275   2.03657
    R7        2.04993  -0.00056  -0.00167  -0.00106  -0.00273   2.04720
    A1        2.01580  -0.00047   0.00218  -0.00350  -0.00132   2.01448
    A2        1.87157  -0.00052   0.00038  -0.00451  -0.00413   1.86744
    A3        1.93273  -0.00016  -0.00133  -0.00038  -0.00172   1.93102
    A4        1.93310  -0.00008  -0.00096   0.00009  -0.00088   1.93222
    A5        1.91221   0.00025   0.00037   0.00140   0.00177   1.91398
    A6        1.90915   0.00023   0.00042   0.00128   0.00170   1.91085
    A7        1.90474   0.00028   0.00113   0.00206   0.00319   1.90793
    A8        1.98952  -0.00042   0.00300  -0.00133   0.00137   1.99088
    A9        2.06684  -0.00007   0.00145   0.00268   0.00379   2.07063
   A10        2.11325   0.00065   0.00240   0.00724   0.00934   2.12259
    D1       -3.08811   0.00002   0.00032   0.00184   0.00217  -3.08594
    D2        1.10958   0.00013   0.00039   0.00311   0.00350   1.11308
    D3       -1.00610  -0.00007   0.00051   0.00070   0.00122  -1.00488
    D4        3.09999   0.00006   0.00577  -0.00028   0.00550   3.10549
    D5        0.44628  -0.00044  -0.00762  -0.01937  -0.02699   0.41928
    D6       -2.63939  -0.00028  -0.01347  -0.01816  -0.03176  -2.67115
         Item               Value     Threshold  Converged?
 Maximum Force            0.001383     0.000450     NO 
 RMS     Force            0.000450     0.000300     NO 
 Maximum Displacement     0.021748     0.001800     NO 
 RMS     Displacement     0.006858     0.001200     NO 
 Predicted change in Energy=-2.039740D-05
 GradGradGradGradGradGradGradGradGradGradGradGradGradGradGradGradGradGrad

                          Input orientation:                          
 ---------------------------------------------------------------------
 Center     Atomic      Atomic             Coordinates (Angstroms)
 Number     Number       Type             X           Y           Z
 ---------------------------------------------------------------------
      1          8           0        0.062476    0.497060   -0.029673
      2          6           0       -1.163753   -0.218358    0.009521
      3          6           0        1.179371   -0.262302    0.026663
      4          1           0       -1.960561    0.511172   -0.100810
      5          1           0       -1.273861   -0.741605    0.961723
      6          1           0       -1.215681   -0.941654   -0.808719
      7          1           0        2.096647    0.299491   -0.039989
      8          1           0        1.121565   -1.295407   -0.294207
 ---------------------------------------------------------------------
                    Distance matrix (angstroms):
                    1          2          3          4          5
     1  O    0.000000
     2  C    1.420210   0.000000
     3  C    1.351762   2.343599   0.000000
     4  H    2.024336   1.085952   3.236307   0.000000
     5  H    2.074356   1.092061   2.668786   1.780444   0.000000
     6  H    2.076173   1.093330   2.625958   1.779518   1.782658
     7  H    2.043769   3.301640   1.077705   4.063182   3.667101
     8  H    2.098711   2.544595   1.083331   3.577797   2.760820
                    6          7          8
     6  H    0.000000
     7  H    3.619793   0.000000
     8  H    2.419211   1.886561   0.000000
 Stoichiometry    C2H5O(2)
 Framework group  C1[X(C2H5O)]
 Deg. of freedom    18
 Full point group                 C1      NOp   1
 Largest Abelian subgroup         C1      NOp   1
 Largest concise Abelian subgroup C1      NOp   1
                         Standard orientation:                         
 ---------------------------------------------------------------------
 Center     Atomic      Atomic             Coordinates (Angstroms)
 Number     Number       Type             X           Y           Z
 ---------------------------------------------------------------------
      1          8           0       -0.091742   -0.538358   -0.038667
      2          6           0        1.139519    0.167512    0.013691
      3          6           0       -1.202847    0.224668    0.063779
      4          1           0        1.930061   -0.561570   -0.137214
      5          1           0        1.265431    0.650302    0.985112
      6          1           0        1.185476    0.923677   -0.774645
      7          1           0       -2.124547   -0.328416   -0.013783
      8          1           0       -1.142514    1.269787   -0.214956
 ---------------------------------------------------------------------
 Rotational constants (GHZ):          47.8913698          10.6588678           9.2651855
 Basis read from rwf:  (5D, 7F)
 There are   180 symmetry adapted cartesian basis functions of A   symmetry.
 There are   160 symmetry adapted basis functions of A   symmetry.
   160 basis functions,   243 primitive gaussians,   180 cartesian basis functions
    13 alpha electrons       12 beta electrons
       nuclear repulsion energy        77.4165243935 Hartrees.
 NAtoms=    8 NActive=    8 NUniq=    8 SFac= 1.00D+00 NAtFMM=   60 NAOKFM=F Big=F
 Integral buffers will be    131072 words long.
 Raffenetti 2 integral format.
 Two-electron integral symmetry is turned on.
 One-electron integrals computed using PRISM.
 NBasis=   160 RedAO= T EigKep=  1.51D-03  NBF=   160
 NBsUse=   160 1.00D-06 EigRej= -1.00D+00 NBFU=   160
 Initial guess from the checkpoint file:  "/wrk/irikura/Gau-4134.chk"
 B after Tr=    -0.000000   -0.000000   -0.000000
         Rot=    1.000000    0.000831    0.000043    0.000345 Ang=   0.10 deg.
 Initial guess <Sx>= 0.0000 <Sy>= 0.0000 <Sz>= 0.5000 <S**2>= 0.7536 S= 0.5018
 ExpMin= 7.42D-02 ExpMax= 1.36D+04 ExpMxC= 4.64D+02 IAcc=3 IRadAn=         5 AccDes= 0.00D+00
 Harris functional with IExCor=  402 and IRadAn=       5 diagonalized for initial guess.
 HarFok:  IExCor=  402 AccDes= 0.00D+00 IRadAn=         5 IDoV= 1 UseB2=F ITyADJ=14
 ICtDFT=  3500011 ScaDFX=  1.000000  1.000000  1.000000  1.000000
 FoFCou: FMM=F IPFlag=           0 FMFlag=      100000 FMFlg1=           0
         NFxFlg=           0 DoJE=T BraDBF=F KetDBF=T FulRan=T
         wScrn=  0.000000 ICntrl=       500 IOpCl=  0 I1Cent=   200000004 NGrid=           0
         NMat0=    1 NMatS0=      1 NMatT0=    0 NMatD0=    1 NMtDS0=    0 NMtDT0=    0
 Petite list used in FoFCou.
 Keep R1 and R2 ints in memory in canonical form, NReq=178021748.
 Requested convergence on RMS density matrix=1.00D-08 within 128 cycles.
 Requested convergence on MAX density matrix=1.00D-06.
 Requested convergence on             energy=1.00D-06.
 No special actions if energy rises.
 Integral accuracy reduced to 1.0D-05 until final iterations.
 Initial convergence to 1.0D-05 achieved.  Increase integral accuracy.
 SCF Done:  E(UB3LYP) =  -154.433978553     A.U. after   10 cycles
            NFock= 10  Conv=0.45D-08     -V/T= 2.0037
 <Sx>= 0.0000 <Sy>= 0.0000 <Sz>= 0.5000 <S**2>= 0.7536 S= 0.5018
 <L.S>=  0.00000000000    
 Annihilation of the first spin contaminant:
 S**2 before annihilation     0.7536,   after     0.7500
 Calling FoFJK, ICntrl=      2127 FMM=F ISym2X=0 I1Cent= 0 IOpClX= 1 NMat=1 NMatS=1 NMatT=0.
 ***** Axes restored to original set *****
 -------------------------------------------------------------------
 Center     Atomic                   Forces (Hartrees/Bohr)
 Number     Number              X              Y              Z
 -------------------------------------------------------------------
      1        8           0.000287575    0.000096946    0.000209875
      2        6          -0.000046059    0.000025371   -0.000130429
      3        6           0.000122685   -0.000161726   -0.000298506
      4        1          -0.000321242    0.000184702   -0.000033771
      5        1          -0.000019231   -0.000141537    0.000235788
      6        1           0.000025765   -0.000160108   -0.000174173
      7        1           0.000112595    0.000220713    0.000026654
      8        1          -0.000162088   -0.000064362    0.000164561
 -------------------------------------------------------------------
 Cartesian Forces:  Max     0.000321242 RMS     0.000167943

 GradGradGradGradGradGradGradGradGradGradGradGradGradGradGradGradGradGrad
 Berny optimization.
 Using GEDIIS/GDIIS optimizer.
 FormGI is forming the generalized inverse of G from B-inverse, IUseBI=4.
 Internal  Forces:  Max     0.000363178 RMS     0.000160525
 Search for a local minimum.
 Step number   3 out of a maximum of   33
 All quantities printed in internal units (Hartrees-Bohrs-Radians)
 Mixed Optimization -- En-DIIS/RFO-DIIS
 Swapping is turned off.
 Update second derivatives using D2CorX and points    1    2    3
 DE= -2.44D-05 DEPred=-2.04D-05 R= 1.20D+00
 TightC=F SS=  1.41D+00  RLast= 4.44D-02 DXNew= 5.0454D-01 1.3305D-01
 Trust test= 1.20D+00 RLast= 4.44D-02 DXMaxT set to 3.00D-01
 ITU=  1  1  0
     Eigenvalues ---    0.00976   0.01476   0.02253   0.10334   0.10601
     Eigenvalues ---    0.14316   0.15792   0.16000   0.16194   0.16912
     Eigenvalues ---    0.26611   0.33839   0.34268   0.34359   0.35505
     Eigenvalues ---    0.38766   0.42234   0.55647
 En-DIIS/RFO-DIIS/Sim-DIIS IScMMF=       -3 using points:     3    2
 RFO step:  Lambda=-6.55328259D-06.
 DidBck=F Rises=F RFO-DIIS coefs:    1.45075   -0.45075
 Iteration  1 RMS(Cart)=  0.00438431 RMS(Int)=  0.00004721
 Iteration  2 RMS(Cart)=  0.00002270 RMS(Int)=  0.00004042
 Iteration  3 RMS(Cart)=  0.00000000 RMS(Int)=  0.00004042
 Variable       Old X    -DE/DX   Delta X   Delta X   Delta X     New X
                                 (Linear)    (Quad)   (Total)
    R1        2.68381   0.00035   0.00107   0.00039   0.00146   2.68527
    R2        2.55446   0.00006  -0.00150   0.00116  -0.00034   2.55412
    R3        2.05215   0.00036  -0.00069   0.00143   0.00074   2.05289
    R4        2.06370   0.00028  -0.00060   0.00110   0.00050   2.06420
    R5        2.06609   0.00024  -0.00076   0.00107   0.00031   2.06640
    R6        2.03657   0.00021  -0.00124   0.00133   0.00009   2.03666
    R7        2.04720   0.00002  -0.00123   0.00071  -0.00052   2.04668
    A1        2.01448   0.00007  -0.00060   0.00109   0.00049   2.01497
    A2        1.86744   0.00015  -0.00186   0.00262   0.00075   1.86819
    A3        1.93102  -0.00002  -0.00077   0.00014  -0.00063   1.93038
    A4        1.93222  -0.00008  -0.00040  -0.00050  -0.00090   1.93132
    A5        1.91398  -0.00002   0.00080  -0.00056   0.00024   1.91422
    A6        1.91085  -0.00001   0.00076  -0.00050   0.00026   1.91111
    A7        1.90793  -0.00001   0.00144  -0.00114   0.00030   1.90823
    A8        1.99088  -0.00008   0.00062   0.00031   0.00082   1.99170
    A9        2.07063  -0.00009   0.00171  -0.00061   0.00098   2.07161
   A10        2.12259   0.00022   0.00421  -0.00011   0.00400   2.12659
    D1       -3.08594   0.00001   0.00098  -0.00014   0.00083  -3.08511
    D2        1.11308  -0.00004   0.00158  -0.00113   0.00045   1.11353
    D3       -1.00488   0.00004   0.00055   0.00055   0.00110  -1.00378
    D4        3.10549  -0.00006   0.00248  -0.00457  -0.00210   3.10339
    D5        0.41928  -0.00022  -0.01217  -0.00365  -0.01581   0.40348
    D6       -2.67115  -0.00007  -0.01432   0.00109  -0.01328  -2.68443
         Item               Value     Threshold  Converged?
 Maximum Force            0.000363     0.000450     YES
 RMS     Force            0.000161     0.000300     YES
 Maximum Displacement     0.014753     0.001800     NO 
 RMS     Displacement     0.004386     0.001200     NO 
 Predicted change in Energy=-3.284191D-06
 GradGradGradGradGradGradGradGradGradGradGradGradGradGradGradGradGradGrad

                          Input orientation:                          
 ---------------------------------------------------------------------
 Center     Atomic      Atomic             Coordinates (Angstroms)
 Number     Number       Type             X           Y           Z
 ---------------------------------------------------------------------
      1          8           0        0.062873    0.497605   -0.028460
      2          6           0       -1.164031   -0.218281    0.009045
      3          6           0        1.179993   -0.261379    0.024022
      4          1           0       -1.961703    0.511277   -0.098700
      5          1           0       -1.273005   -0.744661    0.959953
      6          1           0       -1.215316   -0.939056   -0.811675
      7          1           0        2.097442    0.300147   -0.043276
      8          1           0        1.119949   -1.297255   -0.286400
 ---------------------------------------------------------------------
                    Distance matrix (angstroms):
                    1          2          3          4          5
     1  O    0.000000
     2  C    1.420983   0.000000
     3  C    1.351580   2.344468   0.000000
     4  H    2.025841   1.086345   3.237640   0.000000
     5  H    2.074791   1.092327   2.669594   1.781132   0.000000
     6  H    2.076340   1.093494   2.625860   1.780138   1.783195
     7  H    2.044182   3.302834   1.077754   4.065011   3.668516
     8  H    2.098920   2.543233   1.083054   3.578072   2.754085
                    6          7          8
     6  H    0.000000
     7  H    3.619452   0.000000
     8  H    2.420265   1.888464   0.000000
 Stoichiometry    C2H5O(2)
 Framework group  C1[X(C2H5O)]
 Deg. of freedom    18
 Full point group                 C1      NOp   1
 Largest Abelian subgroup         C1      NOp   1
 Largest concise Abelian subgroup C1      NOp   1
                         Standard orientation:                         
 ---------------------------------------------------------------------
 Center     Atomic      Atomic             Coordinates (Angstroms)
 Number     Number       Type             X           Y           Z
 ---------------------------------------------------------------------
      1          8           0       -0.092138   -0.538591   -0.036976
      2          6           0        1.140038    0.167410    0.013023
      3          6           0       -1.203224    0.224626    0.061790
      4          1           0        1.931175   -0.562126   -0.135384
      5          1           0        1.265350    0.653647    0.983099
      6          1           0        1.185261    0.920903   -0.778135
      7          1           0       -2.125321   -0.327876   -0.015886
      8          1           0       -1.140245    1.271963   -0.206769
 ---------------------------------------------------------------------
 Rotational constants (GHZ):          47.8883250          10.6541613           9.2592215
 Basis read from rwf:  (5D, 7F)
 There are   180 symmetry adapted cartesian basis functions of A   symmetry.
 There are   160 symmetry adapted basis functions of A   symmetry.
   160 basis functions,   243 primitive gaussians,   180 cartesian basis functions
    13 alpha electrons       12 beta electrons
       nuclear repulsion energy        77.4012364821 Hartrees.
 NAtoms=    8 NActive=    8 NUniq=    8 SFac= 1.00D+00 NAtFMM=   60 NAOKFM=F Big=F
 Integral buffers will be    131072 words long.
 Raffenetti 2 integral format.
 Two-electron integral symmetry is turned on.
 One-electron integrals computed using PRISM.
 NBasis=   160 RedAO= T EigKep=  1.51D-03  NBF=   160
 NBsUse=   160 1.00D-06 EigRej= -1.00D+00 NBFU=   160
 Initial guess from the checkpoint file:  "/wrk/irikura/Gau-4134.chk"
 B after Tr=    -0.000000    0.000000    0.000000
         Rot=    1.000000    0.000656    0.000017    0.000113 Ang=   0.08 deg.
 Initial guess <Sx>= 0.0000 <Sy>= 0.0000 <Sz>= 0.5000 <S**2>= 0.7536 S= 0.5018
 Keep R1 and R2 ints in memory in canonical form, NReq=178021748.
 Requested convergence on RMS density matrix=1.00D-08 within 128 cycles.
 Requested convergence on MAX density matrix=1.00D-06.
 Requested convergence on             energy=1.00D-06.
 No special actions if energy rises.
 SCF Done:  E(UB3LYP) =  -154.433982501     A.U. after    9 cycles
            NFock=  9  Conv=0.24D-08     -V/T= 2.0037
 <Sx>= 0.0000 <Sy>= 0.0000 <Sz>= 0.5000 <S**2>= 0.7536 S= 0.5018
 <L.S>=  0.00000000000    
 Annihilation of the first spin contaminant:
 S**2 before annihilation     0.7536,   after     0.7500
 Calling FoFJK, ICntrl=      2127 FMM=F ISym2X=0 I1Cent= 0 IOpClX= 1 NMat=1 NMatS=1 NMatT=0.
 ***** Axes restored to original set *****
 -------------------------------------------------------------------
 Center     Atomic                   Forces (Hartrees/Bohr)
 Number     Number              X              Y              Z
 -------------------------------------------------------------------
      1        8          -0.000256106    0.000101454    0.000086783
      2        6           0.000285416    0.000100312   -0.000085010
      3        6           0.000099862   -0.000133146   -0.000020953
      4        1          -0.000039744    0.000057437    0.000000930
      5        1          -0.000046675   -0.000067210    0.000078923
      6        1          -0.000030419   -0.000076810   -0.000059438
      7        1           0.000025658    0.000065724   -0.000042963
      8        1          -0.000037991   -0.000047761    0.000041728
 -------------------------------------------------------------------
 Cartesian Forces:  Max     0.000285416 RMS     0.000102216

 GradGradGradGradGradGradGradGradGradGradGradGradGradGradGradGradGradGrad
 Berny optimization.
 Using GEDIIS/GDIIS optimizer.
 FormGI is forming the generalized inverse of G from B-inverse, IUseBI=4.
 Internal  Forces:  Max     0.000154045 RMS     0.000068894
 Search for a local minimum.
 Step number   4 out of a maximum of   33
 All quantities printed in internal units (Hartrees-Bohrs-Radians)
 Mixed Optimization -- En-DIIS/RFO-DIIS
 Swapping is turned off.
 Update second derivatives using D2CorX and points    1    2    3    4
 DE= -3.95D-06 DEPred=-3.28D-06 R= 1.20D+00
 TightC=F SS=  1.41D+00  RLast= 2.14D-02 DXNew= 5.0454D-01 6.4053D-02
 Trust test= 1.20D+00 RLast= 2.14D-02 DXMaxT set to 3.00D-01
 ITU=  1  1  1  0
     Eigenvalues ---    0.00774   0.01476   0.02077   0.10409   0.10602
     Eigenvalues ---    0.14570   0.15982   0.16015   0.16041   0.17213
     Eigenvalues ---    0.27226   0.33842   0.34257   0.34417   0.35366
     Eigenvalues ---    0.35770   0.45013   0.56777
 En-DIIS/RFO-DIIS/Sim-DIIS IScMMF=       -3 using points:     4    3    2
 RFO step:  Lambda=-1.36111433D-06.
 DidBck=F Rises=F RFO-DIIS coefs:    1.72908   -0.85695    0.12787
 Iteration  1 RMS(Cart)=  0.00340511 RMS(Int)=  0.00001080
 Iteration  2 RMS(Cart)=  0.00000960 RMS(Int)=  0.00000569
 Iteration  3 RMS(Cart)=  0.00000000 RMS(Int)=  0.00000569
 Variable       Old X    -DE/DX   Delta X   Delta X   Delta X     New X
                                 (Linear)    (Quad)   (Total)
    R1        2.68527  -0.00015   0.00076  -0.00093  -0.00016   2.68510
    R2        2.55412   0.00014   0.00017   0.00005   0.00023   2.55434
    R3        2.05289   0.00007   0.00074  -0.00056   0.00018   2.05308
    R4        2.06420   0.00011   0.00054  -0.00020   0.00033   2.06453
    R5        2.06640   0.00010   0.00044  -0.00019   0.00025   2.06666
    R6        2.03666   0.00006   0.00042  -0.00037   0.00005   2.03671
    R7        2.04668   0.00004  -0.00003  -0.00010  -0.00013   2.04655
    A1        2.01497  -0.00009   0.00053  -0.00081  -0.00028   2.01468
    A2        1.86819  -0.00004   0.00108  -0.00144  -0.00036   1.86783
    A3        1.93038   0.00006  -0.00024   0.00055   0.00031   1.93069
    A4        1.93132   0.00004  -0.00055   0.00073   0.00019   1.93150
    A5        1.91422  -0.00002  -0.00005  -0.00007  -0.00012   1.91410
    A6        1.91111  -0.00001  -0.00003   0.00006   0.00004   1.91115
    A7        1.90823  -0.00004  -0.00019   0.00014  -0.00005   1.90817
    A8        1.99170  -0.00005   0.00042  -0.00047  -0.00003   1.99167
    A9        2.07161  -0.00000   0.00023   0.00006   0.00031   2.07192
   A10        2.12659   0.00005   0.00172  -0.00028   0.00145   2.12804
    D1       -3.08511  -0.00001   0.00033  -0.00047  -0.00014  -3.08525
    D2        1.11353   0.00001  -0.00012   0.00017   0.00005   1.11358
    D3       -1.00378  -0.00001   0.00065  -0.00086  -0.00021  -1.00399
    D4        3.10339  -0.00008  -0.00223  -0.00298  -0.00522   3.09817
    D5        0.40348  -0.00009  -0.00807  -0.00138  -0.00945   0.39403
    D6       -2.68443   0.00000  -0.00562   0.00157  -0.00404  -2.68847
         Item               Value     Threshold  Converged?
 Maximum Force            0.000154     0.000450     YES
 RMS     Force            0.000069     0.000300     YES
 Maximum Displacement     0.010797     0.001800     NO 
 RMS     Displacement     0.003405     0.001200     NO 
 Predicted change in Energy=-6.631759D-07
 GradGradGradGradGradGradGradGradGradGradGradGradGradGradGradGradGradGrad

                          Input orientation:                          
 ---------------------------------------------------------------------
 Center     Atomic      Atomic             Coordinates (Angstroms)
 Number     Number       Type             X           Y           Z
 ---------------------------------------------------------------------
      1          8           0        0.062815    0.498158   -0.027049
      2          6           0       -1.163686   -0.218337    0.008660
      3          6           0        1.180166   -0.260816    0.023716
      4          1           0       -1.961496    0.511478   -0.097280
      5          1           0       -1.272819   -0.747201    0.958372
      6          1           0       -1.214868   -0.937168   -0.813948
      7          1           0        2.097434    0.300602   -0.047276
      8          1           0        1.118657   -1.298320   -0.280687
 ---------------------------------------------------------------------
                    Distance matrix (angstroms):
                    1          2          3          4          5
     1  O    0.000000
     2  C    1.420896   0.000000
     3  C    1.351700   2.344285   0.000000
     4  H    2.025573   1.086441   3.237455   0.000000
     5  H    2.075065   1.092502   2.669698   1.781278   0.000000
     6  H    2.076499   1.093628   2.625894   1.780349   1.783414
     7  H    2.044287   3.302625   1.077780   4.064711   3.669854
[...]
  Atom  AN      X      Y      Z        X      Y      Z        X      Y      Z
     1   8    -0.00   0.00   0.00    -0.00   0.00  -0.00    -0.00  -0.00   0.00
     2   6    -0.00  -0.00  -0.00    -0.05   0.07   0.02     0.00  -0.00  -0.00
     3   6     0.03  -0.05   0.02     0.00  -0.00  -0.00    -0.06  -0.08   0.01
     4   1     0.01  -0.01  -0.00     0.69  -0.65  -0.13    -0.00   0.01   0.00
     5   1     0.00   0.01   0.02    -0.03  -0.08  -0.20     0.00   0.00   0.00
     6   1     0.01   0.01  -0.01    -0.01  -0.11   0.15     0.00   0.00  -0.00
     7   1    -0.45  -0.28  -0.02     0.01   0.00   0.00     0.73   0.44   0.06
     8   1     0.06   0.82  -0.18     0.00   0.00   0.00     0.03   0.50  -0.12

 -------------------
 - Thermochemistry -
 -------------------
 Temperature   298.150 Kelvin.  Pressure   1.00000 Atm.
 Atom     1 has atomic number  8 and mass  15.99491
 Atom     2 has atomic number  6 and mass  12.00000
 Atom     3 has atomic number  6 and mass  12.00000
 Atom     4 has atomic number  1 and mass   1.00783
 Atom     5 has atomic number  1 and mass   1.00783
 Atom     6 has atomic number  1 and mass   1.00783
 Atom     7 has atomic number  1 and mass   1.00783
 Atom     8 has atomic number  1 and mass   1.00783
 Molecular mass:    45.03404 amu.
 Principal axes and moments of inertia in atomic units:
                           1         2         3
     Eigenvalues --    37.70211 169.34011 194.91358
           X            0.99997   0.00376   0.00730
           Y           -0.00350   0.99939  -0.03481
           Z           -0.00743   0.03479   0.99937
 This molecule is an asymmetric top.
 Rotational symmetry number  1.
 Rotational temperatures (Kelvin)      2.29732     0.51148     0.44437
 Rotational constants (GHZ):          47.86844    10.65749     9.25919
 Zero-point vibrational energy     171896.4 (Joules/Mol)
                                   41.08422 (Kcal/Mol)
 Warning -- explicit consideration of   4 degrees of freedom as
           vibrations may cause significant error
 Vibrational temperatures:    228.79   421.66   616.96   758.12  1377.11
          (Kelvin)           1633.74  1683.08  1796.73  1849.56  2099.10
                             2139.86  2151.14  2162.09  4325.21  4406.03
                             4486.90  4511.51  4701.20
 
 Zero-point correction=                           0.065472 (Hartree/Particle)
 Thermal correction to Energy=                    0.069979
 Thermal correction to Enthalpy=                  0.070923
 Thermal correction to Gibbs Free Energy=         0.039439
 Sum of electronic and zero-point Energies=           -154.368512
 Sum of electronic and thermal Energies=              -154.364005
 Sum of electronic and thermal Enthalpies=            -154.363060
 Sum of electronic and thermal Free Energies=         -154.394545
 
                     E (Thermal)             CV                S
                      KCal/Mol        Cal/Mol-Kelvin    Cal/Mol-Kelvin
 Total                   43.912             13.688             66.264
 Electronic               0.000              0.000              1.377
 Translational            0.889              2.981             37.340
 Rotational               0.889              2.981             21.747
 Vibrational             42.135              7.726              5.799
 Vibration     1          0.621              1.892              2.561
 Vibration     2          0.688              1.687              1.456
 Vibration     3          0.790              1.408              0.863
 Vibration     4          0.882              1.190              0.594
                       Q            Log10(Q)             Ln(Q)
 Total Bot       0.723271D-18        -18.140699        -41.770503
 Total V=0       0.942427D+12         11.974248         27.571725
 Vib (Bot)       0.241089D-29        -29.617823        -68.197559
 Vib (Bot)    1  0.127175D+01          0.104400          0.240390
 Vib (Bot)    2  0.651425D+00         -0.186135         -0.428593
 Vib (Bot)    3  0.406707D+00         -0.390718         -0.899662
 Vib (Bot)    4  0.304387D+00         -0.516574         -1.189455
 Vib (V=0)       0.314140D+01          0.497123          1.144668
 Vib (V=0)    1  0.186650D+01          0.271029          0.624068
 Vib (V=0)    2  0.132119D+01          0.120966          0.278534
 Vib (V=0)    3  0.114452D+01          0.058625          0.134988
 Vib (V=0)    4  0.108536D+01          0.035576          0.081916
 Electronic      0.200000D+01          0.301030          0.693147
 Translational   0.118786D+08          7.074765         16.290249
 Rotational      0.126279D+05          4.101329          9.443660
 ***** Axes restored to original set *****
 -------------------------------------------------------------------
 Center     Atomic                   Forces (Hartrees/Bohr)
 Number     Number              X              Y              Z
 -------------------------------------------------------------------
      1        8          -0.000020285   -0.000032483   -0.000013376
      2        6           0.000029440    0.000019335   -0.000000004
      3        6          -0.000023476    0.000029629    0.000026072
      4        1           0.000005011   -0.000007112    0.000006473
      5        1          -0.000003784   -0.000000086   -0.000006653
      6        1          -0.000005074    0.000006621    0.000002641
      7        1           0.000007512   -0.000011718   -0.000008422
      8        1           0.000010655   -0.000004188   -0.000006731
 -------------------------------------------------------------------
 Cartesian Forces:  Max     0.000032483 RMS     0.000015396
 FormGI is forming the generalized inverse of G from B-inverse, IUseBI=4.

 GradGradGradGradGradGradGradGradGradGradGradGradGradGradGradGradGradGrad
 Berny optimization.
 Internal  Forces:  Max     0.000031373 RMS     0.000010163
 Search for a local minimum.
 Step number   1 out of a maximum of    2
 All quantities printed in internal units (Hartrees-Bohrs-Radians)
 Second derivative matrix not updated -- analytic derivatives used.
 ITU=  0
     Eigenvalues ---    0.00298   0.00661   0.01115   0.08557   0.08607
     Eigenvalues ---    0.10242   0.13005   0.16225   0.17975   0.18263
     Eigenvalues ---    0.22891   0.32475   0.32996   0.34437   0.35304
     Eigenvalues ---    0.36707   0.38321   0.46059
 Angle between quadratic step and forces=  69.16 degrees.
 Linear search not attempted -- first point.
 Iteration  1 RMS(Cart)=  0.00125578 RMS(Int)=  0.00000089
 Iteration  2 RMS(Cart)=  0.00000098 RMS(Int)=  0.00000002
 Variable       Old X    -DE/DX   Delta X   Delta X   Delta X     New X
                                 (Linear)    (Quad)   (Total)
    R1        2.68473  -0.00003   0.00000  -0.00012  -0.00012   2.68461
    R2        2.55458  -0.00001   0.00000  -0.00004  -0.00004   2.55454
    R3        2.05314  -0.00001   0.00000  -0.00002  -0.00002   2.05312
    R4        2.06462  -0.00001   0.00000  -0.00001  -0.00001   2.06461
    R5        2.06670  -0.00001   0.00000  -0.00001  -0.00001   2.06669
    R6        2.03672   0.00000   0.00000   0.00002   0.00002   2.03674
    R7        2.04652   0.00001   0.00000   0.00004   0.00004   2.04655
    A1        2.01482   0.00001   0.00000   0.00006   0.00006   2.01488
    A2        1.86810   0.00000   0.00000   0.00001   0.00001   1.86811
    A3        1.93092   0.00001   0.00000   0.00009   0.00009   1.93100
    A4        1.93160   0.00000   0.00000   0.00002   0.00002   1.93162
    A5        1.91384  -0.00001   0.00000  -0.00007  -0.00007   1.91377
    A6        1.91104  -0.00000   0.00000  -0.00003  -0.00003   1.91101
    A7        1.90795  -0.00000   0.00000  -0.00001  -0.00001   1.90793
    A8        1.99164   0.00001   0.00000   0.00004   0.00004   1.99169
    A9        2.07184   0.00001   0.00000   0.00001   0.00001   2.07185
   A10        2.12804  -0.00002   0.00000  -0.00030  -0.00030   2.12774
    D1       -3.08609  -0.00001   0.00000  -0.00251  -0.00251  -3.08860
    D2        1.11275  -0.00001   0.00000  -0.00247  -0.00247   1.11028
    D3       -1.00475  -0.00001   0.00000  -0.00253  -0.00253  -1.00728
    D4        3.09459  -0.00001   0.00000  -0.00071  -0.00071   3.09388
    D5        0.39071   0.00000   0.00000  -0.00009  -0.00009   0.39061
    D6       -2.68819   0.00000   0.00000   0.00055   0.00055  -2.68764
         Item               Value     Threshold  Converged?
 Maximum Force            0.000031     0.000450     YES
 RMS     Force            0.000010     0.000300     YES
 Maximum Displacement     0.003586     0.001800     NO 
 RMS     Displacement     0.001256     0.001200     NO 
 Predicted change in Energy=-3.856423D-08
                           ----------------------------
                           ! Non-Optimized Parameters !
                           ! (Angstroms and Degrees)  !
 --------------------------                            --------------------------
 ! Name  Definition              Value          Derivative Info.                !
 --------------------------------------------------------------------------------
 ! R1    R(1,2)                  1.4206         -DE/DX =    0.0                 !
 ! R2    R(1,3)                  1.3518         -DE/DX =    0.0                 !
 ! R3    R(2,4)                  1.0865         -DE/DX =    0.0                 !
 ! R4    R(2,5)                  1.0925         -DE/DX =    0.0                 !
 ! R5    R(2,6)                  1.0936         -DE/DX =    0.0                 !
 ! R6    R(3,7)                  1.0778         -DE/DX =    0.0                 !
 ! R7    R(3,8)                  1.083          -DE/DX =    0.0                 !
 ! A1    A(2,1,3)              115.4444         -DE/DX =    0.0                 !
 ! A2    A(1,2,4)              107.035          -DE/DX =    0.0                 !
 ! A3    A(1,2,5)              110.6382         -DE/DX =    0.0                 !
 ! A4    A(1,2,6)              110.6736         -DE/DX =    0.0                 !
 ! A5    A(4,2,5)              109.6509         -DE/DX =    0.0                 !
 ! A6    A(4,2,6)              109.4926         -DE/DX =    0.0                 !
 ! A7    A(5,2,6)              109.3166         -DE/DX =    0.0                 !
 ! A8    A(1,3,7)              114.1152         -DE/DX =    0.0                 !
 ! A9    A(1,3,8)              118.7084         -DE/DX =    0.0                 !
 ! A10   A(7,3,8)              121.9103         -DE/DX =    0.0                 !
 ! D1    D(3,1,2,4)           -176.9636         -DE/DX =    0.0                 !
 ! D2    D(3,1,2,5)             63.6142         -DE/DX =    0.0                 !
 ! D3    D(3,1,2,6)            -57.7128         -DE/DX =    0.0                 !
 ! D4    D(2,1,3,7)            177.2662         -DE/DX =    0.0                 !
 ! D5    D(2,1,3,8)             22.3806         -DE/DX =    0.0                 !
 ! D6    D(1,3,7,8)           -153.9901         -DE/DX =    0.0                 !
 --------------------------------------------------------------------------------
 GradGradGradGradGradGradGradGradGradGradGradGradGradGradGradGradGradGrad


 ----------------------------------------------------------------------

 Electric dipole moment (input orientation):
 (Debye = 10**-18 statcoulomb cm , SI units = C m)
                  (au)            (Debye)         (10**-30 SI)
   Tot        0.549203D+00      0.139593D+01      0.465634D+01
   x         -0.373179D+00     -0.948525D+00     -0.316394D+01
   y         -0.382368D+00     -0.971884D+00     -0.324185D+01
   z         -0.127106D+00     -0.323072D+00     -0.107765D+01

 Dipole polarizability, Alpha (input orientation).
 (esu units = cm**3 , SI units = C**2 m**2 J**-1)
 Alpha(0;0):
               (au)            (10**-24 esu)      (10**-40 SI)
   iso        0.316009D+02      0.468277D+01      0.521029D+01
   aniso      0.979835D+01      0.145197D+01      0.161553D+01
   xx         0.380996D+02      0.564577D+01      0.628177D+01
   yx        -0.414920D+00     -0.614848D-01     -0.684110D-01
   yy         0.285812D+02      0.423530D+01      0.471241D+01
   zx        -0.271148D+00     -0.401800D-01     -0.447063D-01
   zy         0.173039D+00      0.256417D-01      0.285303D-01
   zz         0.281220D+02      0.416725D+01      0.463669D+01

 ----------------------------------------------------------------------

 Dipole orientation:
     8         -0.25359690         -0.56018504         -0.72456794
     6         -1.22674517         -0.58356081          1.77747535
     6          1.55233578          1.18738310         -1.18336514
     1         -2.56451040         -2.13711909          1.88802646
     1         -2.18943058          1.19326592          2.20031294
     1          0.29120618         -0.88167140          3.14794858
     1          2.32295561          1.11276363         -3.06719460
     1          2.62066653          1.93451594          0.39419548

 Electric dipole moment (dipole orientation):
 (Debye = 10**-18 statcoulomb cm , SI units = C m)
                  (au)            (Debye)         (10**-30 SI)
   Tot        0.549203D+00      0.139593D+01      0.465634D+01
   x          0.000000D+00      0.000000D+00      0.000000D+00
   y          0.000000D+00      0.000000D+00      0.000000D+00
   z          0.549203D+00      0.139593D+01      0.465634D+01

 Dipole polarizability, Alpha (dipole orientation).
 (esu units = cm**3 , SI units = C**2 m**2 J**-1)
 Alpha(0;0):
               (au)            (10**-24 esu)      (10**-40 SI)
   iso        0.316009D+02      0.468277D+01      0.521029D+01
   aniso      0.979835D+01      0.145197D+01      0.161553D+01
   xx         0.326080D+02      0.483201D+01      0.537634D+01
   yx         0.269919D+01      0.399979D+00      0.445036D+00
   yy         0.296655D+02      0.439598D+01      0.489119D+01
   zx        -0.403137D+01     -0.597387D+00     -0.664683D+00
   zy        -0.237784D+01     -0.352360D+00     -0.392053D+00
   zz         0.325292D+02      0.482034D+01      0.536335D+01

 ----------------------------------------------------------------------
 1\1\GINC-GAMBA\Freq\UB3LYP\Gen\C2H5O1(2)\IRIKURA\16-Jun-2022\0\\#N Geo
 m=AllCheck Guess=TCheck SCRF=Check GenChk UB3LYP/ChkBas Freq\\methoxyl
 methyl, B3LYP/pcseg-2\\0,2\O,0.0627699217,0.4982552907,-0.0264617041\C
 ,-1.1635337913,-0.2182279233,0.0084133054\C,1.1803572499,-0.2606013826
 ,0.024215979\H,-1.9616050806,0.511503114,-0.0964754515\H,-1.2727860107
 ,-0.7484503893,0.9574110479\H,-1.2148268527,-0.9360772199,-0.815073974
 3\H,2.09745689,0.300732845,-0.0496531735\H,1.1183706738,-1.2987383346,
 -0.2778680289\\Version=ES64L-G16RevB.01\State=2-A\HF=-154.4339837\S2=0
 .753634\S2-1=0.\S2A=0.750009\RMSD=4.252e-09\RMSF=1.540e-05\ZeroPoint=0
 .0654719\Thermal=0.069979\Dipole=-0.3731786,-0.3823685,-0.1271062\Dipo
 leDeriv=-1.2733591,0.1002577,-0.0317065,0.1821437,-0.6232094,0.0082404
 ,-0.081672,0.0024012,-0.2308449,0.7843249,0.128858,-0.0050561,0.300189
 7,0.3721032,0.0052564,-0.0088794,0.0141155,0.3801246,0.6340601,-0.2187
 624,0.044958,-0.350904,0.3673562,0.0727436,0.0106013,0.0988823,-0.3259
 966,-0.0662057,0.0465989,-0.0082608,0.1004287,-0.019373,0.0140835,-0.0
 154513,0.0115052,0.0807027,-0.0115471,0.0057557,-0.0337939,-0.1055096,
 0.0098973,0.0745644,0.0733959,0.0920844,-0.1163561,-0.0104903,0.024981
 9,0.0411286,-0.0945433,-0.0358601,-0.100954,-0.0391997,-0.1172987,-0.0
 852556,-0.0521208,-0.0216701,0.0192445,-0.0593026,0.0056565,-0.001347,
 0.061276,0.0038496,0.1645438,-0.0046621,-0.0660196,-0.0265137,0.027497
 5,-0.0765707,-0.0725872,-0.0000709,-0.1055395,0.133082\Polar=38.099565
 4,-0.4149198,28.581238,-0.2711483,0.1730389,28.1219907\Quadrupole=1.62
 77473,-0.5179537,-1.1097936,0.1649539,-0.3820377,0.2850217\PG=C01 [X(C
 2H5O1)]\NImag=0\\0.55354331,-0.04750625,0.32773216,0.00547222,-0.00436
 067,0.05470468,-0.17471595,-0.04072607,0.00301631,0.50333460,-0.081843
 82,-0.12463449,0.00246042,-0.08167011,0.55666692,0.00352116,0.00230500
 ,-0.06044158,0.00413106,-0.00187543,0.56141261,-0.26998121,0.09926467,
 -0.02104392,-0.05251789,0.02144977,-0.00253408,0.63039218,0.14668481,-
 0.18505599,0.00944148,-0.01470246,0.00823006,-0.00179889,0.04781140,0.
 63340517,-0.01363630,-0.00053475,-0.00844436,0.00175719,0.00064892,-0.
 00313783,0.00756725,0.07378266,0.05176586,-0.03480401,0.01723911,-0.00
 236876,-0.18079964,0.12860757,-0.01828224,-0.00260704,-0.00489121,-0.0
 0018569,0.21252668,-0.02078634,0.01467716,-0.00202449,0.14258899,-0.18
 400661,0.01886865,-0.00271408,-0.00138004,-0.00020820,-0.14106706,0.19
 044014,0.00099194,-0.00109383,0.00050281,-0.01963269,0.01867831,-0.053
 72977,0.00043923,-0.00022542,0.00072260,0.02053266,-0.02017530,0.04953
 928,-0.01993049,-0.02237806,0.02819605,-0.04960568,-0.00117323,0.00926
 828,0.00570497,-0.00372425,0.00076966,0.00406723,0.00957070,-0.0203634
 1,0.05814920,-0.01315379,-0.01264353,0.01468837,-0.00510645,-0.1044903
 7,0.10162229,0.00156000,0.00037264,-0.00106107,-0.00104111,-0.00862251
 ,0.01963761,0.01596173,0.11364510,0.00504794,0.00245687,0.00637419,0.0
 1379130,0.10371043,-0.24816473,-0.00015741,-0.00043688,0.00118438,-0.0
 0052124,-0.00006908,-0.00101730,-0.01876031,-0.11663248,0.26305645,-0.
 01809477,-0.02715645,-0.02397924,-0.04948981,0.00550413,0.00194927,0.0
 0519210,-0.00546756,-0.00135336,0.00278868,0.01345700,0.01810138,0.002
 03948,0.00202920,0.00027117,0.05702674,-0.01420322,-0.01670543,-0.0118
 8523,0.00076359,-0.15078824,-0.12039219,0.00281675,0.00028705,0.000736
 72,0.00017252,-0.01219039,-0.01709474,0.00103415,0.01149954,0.01144224
 ,0.01005727,0.16690801,-0.00418623,0.00031515,0.00696026,-0.00118056,-
 0.12289525,-0.19903036,0.00057378,-0.00009922,0.00007156,0.00072138,0.
 00333309,0.00376934,0.00098619,-0.01852016,-0.02061138,0.00409552,0.13
 701855,0.20866381,-0.02916903,-0.01177253,0.00240055,-0.00055335,0.004
 65659,0.00027087,-0.25563414,-0.13171728,0.01435451,-0.00118108,-0.000
 76177,0.00004729,-0.00015104,-0.00014042,0.00015113,0.00001685,-0.0001
 0847,-0.00017526,0.28250855,0.02435529,0.01319443,-0.00081221,0.002296
 90,-0.00171753,-0.00021633,-0.14638129,-0.14780610,0.00274866,0.000899
 30,0.00065469,0.00003656,0.00036192,0.00008875,-0.00024656,0.00029728,
 0.00022130,0.00043078,0.13754878,0.14108418,-0.00027239,-0.00234656,-0
 .00295293,-0.00107721,-0.00044587,0.00270844,0.02740698,0.01411888,-0.
 00996981,-0.00001728,0.00000731,0.00044687,-0.00047368,-0.00004284,-0.
 00005688,0.00043704,0.00046511,0.00025008,-0.01869003,-0.00673359,0.00
 848690,-0.00684785,0.03303557,0.00830680,0.00434772,0.00446910,0.00167
 568,-0.06054897,-0.03399345,-0.00927326,0.00000918,-0.00028745,-0.0001
 1640,-0.00027366,-0.00010915,0.00017742,0.00052074,-0.00053259,-0.0008
 3482,0.00416323,-0.01937817,-0.00731344,0.05862962,0.00645332,-0.01656
 431,-0.00750767,-0.00344438,0.00074026,0.00148692,-0.02380722,-0.30805
 278,-0.07611294,0.00008089,0.00042755,0.00023681,0.00034703,0.00015038
 ,-0.00022453,0.00127912,0.00076816,0.00041704,0.00229510,-0.00571972,-
 0.00502245,0.01679615,0.32825046,0.00306166,0.00325880,0.00329692,-0.0
 0080540,-0.00028153,0.00038322,-0.01225183,-0.09478261,-0.03219239,0.0
 0012117,0.00026802,-0.00023384,0.00037722,0.00030829,-0.00076473,0.000
 47823,-0.00029047,-0.00007331,0.00164093,0.00479269,0.00108734,0.00737
 802,0.08672682,0.02849679\\0.00002028,0.00003248,0.00001338,-0.0000294
 4,-0.00001934,0.,0.00002348,-0.00002963,-0.00002607,-0.00000501,0.0000
 0711,-0.00000647,0.00000378,0.00000009,0.00000665,0.00000507,-0.000006
 62,-0.00000264,-0.00000751,0.00001172,0.00000842,-0.00001066,0.0000041
 9,0.00000673\\\@


 THE FIRST AND LAST THING REQUIRED OF GENIUS IS THE LOVE OF TRUTH.

                          -- GOETHE
 Job cpu time:       0 days  0 hours 14 minutes 54.7 seconds.
 Elapsed time:       0 days  0 hours  1 minutes 15.1 seconds.
 File lengths (MBytes):  RWF=     38 Int=      0 D2E=      0 Chk=      4 Scr=      1
 Normal termination of Gaussian 16 at Thu Jun 16 18:46:59 2022.
