 Entering Gaussian System, Link 0=g16
 AtFile(1): pcseg2.gbs
            -H     0
            S   4   1.00
                  0.754732D+02           0.427821D-02
                  0.113575D+02           0.328672D-01
                  0.260081D+01           0.159578D+00
                  0.735503D+00           0.500000D+00
            S   1   1.00
                  0.231761D+00           1.0000000
            S   1   1.00
                  0.741675D-01           1.0000000
            P   1   1.00
                  0.160000D+01           1.0000000
            P   1   1.00
                  0.450000D+00           1.0000000
            D   1   1.00
                  0.125000D+01           1.0000000
            ****
            -C     0
            S   7   1.00
                  0.731999D+04           0.695369D-03
                  0.109818D+04           0.537138D-02
                  0.250014D+03           0.274734D-01
                  0.707586D+02           0.105078D+00
                  0.228595D+02           0.291262D+00
                  0.803936D+01           0.500000D+00
                  0.289309D+01           0.362224D+00
            S   2   1.00
                  0.521640D+01          -0.957844D-01
                  0.556124D+00           0.500000D+00
            S   1   1.00
                  0.228813D+00           1.0000000
            S   1   1.00
                  0.936338D-01           1.0000000
            P   4   1.00
                  0.339855D+02           0.818395D-02
                  0.772957D+01           0.586921D-01
                  0.224954D+01           0.222514D+00
                  0.767681D+00           0.500000D+00
            P   1   1.00
                  0.263283D+00           1.0000000
            P   1   1.00
                  0.848744D-01           1.0000000
            D   1   1.00
                  0.140000D+01           1.0000000
            D   1   1.00
                  0.450000D+00           1.0000000
            F   1   1.00
                  0.950000D+00           1.0000000
            ****
            -O     0
            S   7   1.00
                  0.135887D+05           0.665492D-03
                  0.203847D+04           0.514222D-02
                  0.464041D+03           0.263472D-01
                  0.131339D+03           0.101500D+00
                  0.425340D+02           0.285877D+00
                  0.150429D+02           0.500000D+00
                  0.546616D+01           0.368211D+00
            S   2   1.00
                  0.100915D+02          -0.100084D+00
                  0.110429D+01           0.500000D+00
            S   1   1.00
                  0.448082D+00           1.0000000
            S   1   1.00
                  0.175325D+00           1.0000000
            P   4   1.00
                  0.608220D+02           0.908253D-02
                  0.140332D+02           0.645878D-01
                  0.418244D+01           0.241502D+00
                  0.142490D+01           0.500000D+00
            P   1   1.00
                  0.478741D+00           1.0000000
            P   1   1.00
                  0.146257D+00           1.0000000
            D   1   1.00
                  0.220000D+01           1.0000000
            D   1   1.00
                  0.650000D+00           1.0000000
            F   1   1.00
                  0.110000D+01           1.0000000
            ****
            -N     0
            S   7   1.00
                  0.101643D+05           0.682757D-03
                  0.152481D+04           0.527488D-02
                  0.347119D+03           0.270037D-01
                  0.982389D+02           0.103673D+00
                  0.317799D+02           0.289575D+00
                  0.112240D+02           0.500000D+00
                  0.406611D+01           0.364621D+00
            S   2   1.00
                  0.747898D+01          -0.975681D-01
                  0.805040D+00           0.500000D+00
            S   1   1.00
                  0.324626D+00           1.0000000
            S   1   1.00
                  0.128132D+00           1.0000000
            P   4   1.00
                  0.482704D+02           0.829547D-02
                  0.110815D+02           0.596223D-01
                  0.326643D+01           0.227889D+00
                  0.111680D+01           0.500000D+00
            P   1   1.00
                  0.382049D+00           1.0000000
            P   1   1.00
                  0.121222D+00           1.0000000
            D   1   1.00
                  0.180000D+01           1.0000000
            D   1   1.00
                  0.550000D+00           1.0000000
            F   1   1.00
                  0.102000D+01           1.0000000
            ****
            -F     0
            S   7   1.00
                  0.174507D+05           0.655972D-03
                  0.261768D+04           0.506944D-02
                  0.595857D+03           0.259899D-01
                  0.168651D+03           0.100353D+00
                  0.546654D+02           0.284095D+00
                  0.193717D+02           0.500000D+00
                  0.706202D+01           0.370721D+00
            S   2   1.00
                  0.131197D+02          -0.101997D+00
                  0.145046D+01           0.500000D+00
            S   1   1.00
                  0.588255D+00           1.0000000
            S   1   1.00
                  0.227960D+00           1.0000000
            P   4   1.00
                  0.779407D+02           0.931135D-02
                  0.180425D+02           0.663964D-01
                  0.542342D+01           0.246386D+00
                  0.184876D+01           0.500000D+00
            P   1   1.00
                  0.617455D+00           1.0000000
            P   1   1.00
                  0.185496D+00           1.0000000
            D   1   1.00
                  0.280000D+01           1.0000000
            D   1   1.00
                  0.800000D+00           1.0000000
            F   1   1.00
                  0.120000D+01           1.0000000
            ****
            -Cl     0
            S   8   1.00
                  0.154272D+06           0.222473D-03
                  0.231232D+05           0.172590D-02
                  0.526257D+04           0.899286D-02
                  0.148995D+04           0.367724D-01
                  0.485417D+03           0.121446D+00
                  0.174634D+03           0.304148D+00
                  0.672393D+02           0.500000D+00
                  0.265780D+02           0.360252D+00
            S   3   1.00
                  0.131826D+03          -0.531330D-01
                  0.400703D+02          -0.233346D+00
                  0.789448D+01           0.500000D+00
            S   2   1.00
                  0.427711D+01           0.500000D+00
                  0.196233D+01           0.370517D+00
            S   1   1.00
                  0.520793D+00           1.0000000
            S   1   1.00
                  0.181633D+00           1.0000000
            P   7   1.00
                  0.124440D+04           0.988206D-03
                  0.295109D+03           0.829674D-02
                  0.947224D+02           0.430906D-01
                  0.352588D+02           0.148443D+00
                  0.144211D+02           0.344744D+00
                  0.610371D+01           0.500000D+00
                  0.258886D+01           0.348278D+00
            P   2   1.00
                  0.109447D+02          -0.196768D-01
                  0.104413D+01           0.500000D+00
            P   1   1.00
                  0.376184D+00           1.0000000
            P   1   1.00
                  0.120613D+00           1.0000000
            D   1   1.00
                  0.231000D+01           1.0000000
            D   1   1.00
                  0.520000D+00           1.0000000
            F   1   1.00
                  0.720000D+00           1.0000000
            ****
            -S     0
            S   8   1.00
                  0.134700D+06           0.226231D-03
                  0.201904D+05           0.175488D-02
                  0.459528D+04           0.914190D-02
                  0.130109D+04           0.373551D-01
                  0.423902D+03           0.123121D+00
                  0.152485D+03           0.306801D+00
                  0.586925D+02           0.500000D+00
                  0.231461D+02           0.354358D+00
            S   3   1.00
                  0.116327D+03          -0.491772D-01
                  0.352841D+02          -0.215962D+00
                  0.677831D+01           0.500000D+00
            S   2   1.00
                  0.360404D+01           0.500000D+00
                  0.164871D+01           0.366278D+00
            S   1   1.00
                  0.421821D+00           1.0000000
            S   1   1.00
                  0.147554D+00           1.0000000
            P   7   1.00
                  0.104863D+04           0.105273D-02
                  0.248717D+03           0.879338D-02
                  0.797887D+02           0.453358D-01
                  0.296023D+02           0.154476D+00
                  0.120627D+02           0.352366D+00
                  0.507628D+01           0.500000D+00
                  0.213375D+01           0.346429D+00
            P   2   1.00
                  0.928958D+01          -0.185932D-01
                  0.837819D+00           0.500000D+00
            P   1   1.00
                  0.301495D+00           1.0000000
            P   1   1.00
                  0.974740D-01           1.0000000
            D   1   1.00
                  0.210000D+01           1.0000000
            D   1   1.00
                  0.480000D+00           1.0000000
            F   1   1.00
                  0.660000D+00           1.0000000
            ****
            -Br     0
            S    10   1.00
                  0.233625D+07           0.532336D-04
                  0.349961D+06           0.413715D-03
                  0.796444D+05           0.217123D-02
                  0.225555D+05           0.910109D-02
                  0.735546D+04           0.323789D-01
                  0.265352D+04           0.988755D-01
                  0.103517D+04           0.248138D+00
                  0.422205D+03           0.474328D+00
                  0.180035D+03           0.500000D+00
                  0.793308D+02           0.187769D+00
            S    4   1.00
                  0.620834D+03          -0.226511D-01
                  0.190829D+03          -0.109497D+00
                  0.312505D+02           0.500000D+00
                  0.135270D+02           0.492812D+00
            S    2   1.00
                  0.216097D+02          -0.165418D+00
                  0.372566D+01           0.500000D+00
            S    1   1.00
                  0.169770D+01           1.0000000
            S    1   1.00
                  0.489332D+00           1.0000000
            S    1   1.00
                  0.175712D+00           1.0000000
            P    8   1.00
                  0.960829D+04           0.478974D-03
                  0.227618D+04           0.417853D-02
                  0.736723D+03           0.229315D-01
                  0.281579D+03           0.892653D-01
                  0.118395D+03           0.255288D+00
                  0.527481D+02           0.479074D+00
                  0.245098D+02           0.500000D+00
                  0.112009D+02           0.200944D+00
            P    4   1.00
                  0.587849D+02          -0.189674D-01
                  0.918962D+01           0.264104D+00
                  0.413895D+01           0.500000D+00
                  0.184225D+01           0.319316D+00
            P    1   1.00
                  0.713862D+00           1.0000000
            P    1   1.00
                  0.274232D+00           1.0000000
            P    1   1.00
                  0.944411D-01           1.0000000
            D    7   1.00
                  0.398470D+03           0.204066D-02
                  0.118967D+03           0.175171D-01
                  0.450197D+02           0.829708D-01
                  0.190320D+02           0.236284D+00
                  0.855686D+01           0.428468D+00
                  0.382950D+01           0.500000D+00
                  0.166291D+01           0.349360D+00
            D    1   1.00
                  0.672953D+00           1.0000000
            D    1   1.00
                  0.252000D+00           1.0000000
            F    1   1.00
                  0.530000D+00           1.0000000
            ****
            -Si     0
            S    8   1.00
                  0.996133D+05           0.235546D-03
                  0.149311D+05           0.182707D-02
                  0.339820D+04           0.951425D-02
                  0.962140D+03           0.388172D-01
                  0.313430D+03           0.127328D+00
                  0.112683D+03           0.313522D+00
                  0.433372D+02           0.500000D+00
                  0.170029D+02           0.340347D+00
            S    3   1.00
                  0.884208D+02          -0.404451D-01
                  0.266756D+02          -0.178059D+00
                  0.479640D+01           0.500000D+00
            S    2   1.00
                  0.239385D+01           0.500000D+00
                  0.108333D+01           0.338016D+00
            S    1   1.00
                  0.252420D+00           1.0000000
            S    1   1.00
                  0.891210D-01           1.0000000
            P    7   1.00
                  0.709901D+03           0.123028D-02
                  0.168426D+03           0.101366D-01
                  0.539946D+02           0.511840D-01
                  0.198646D+02           0.169967D+00
                  0.801369D+01           0.370717D+00
                  0.331870D+01           0.500000D+00
                  0.136112D+01           0.344128D+00
            P    2   1.00
                  0.622158D+01          -0.166609D-01
                  0.503049D+00           0.500000D+00
            P    1   1.00
                  0.179848D+00           1.0000000
            P    1   1.00
                  0.591912D-01           1.0000000
            D    1   1.00
                  0.168000D+01           1.0000000
            D    1   1.00
                  0.380000D+00           1.0000000
            F    1   1.00
                  0.540000D+00           1.0000000
            ****
            -P     0
            S    8   1.00
                  0.116416D+06           0.230715D-03
                  0.174500D+05           0.178960D-02
                  0.397149D+04           0.932116D-02
                  0.112447D+04           0.380591D-01
                  0.366347D+03           0.125148D+00
                  0.131757D+03           0.310022D+00
                  0.506988D+02           0.500000D+00
                  0.199436D+02           0.347528D+00
            S    3   1.00
                  0.101878D+03          -0.446755D-01
                  0.308249D+02          -0.196376D+00
                  0.573688D+01           0.500000D+00
            S    2   1.00
                  0.296868D+01           0.500000D+00
                  0.135315D+01           0.355098D+00
            S    1   1.00
                  0.332196D+00           1.0000000
            S    1   1.00
                  0.116229D+00           1.0000000
            P    7   1.00
                  0.873928D+03           0.112375D-02
                  0.207298D+03           0.933330D-02
                  0.664628D+02           0.477213D-01
                  0.245665D+02           0.160733D+00
                  0.996820D+01           0.359760D+00
                  0.416536D+01           0.500000D+00
                  0.173022D+01           0.346593D+00
            P    2   1.00
                  0.772530D+01          -0.175718D-01
                  0.657252D+00           0.500000D+00
            P    1   1.00
                  0.239903D+00           1.0000000
            P    1   1.00
                  0.800988D-01           1.0000000
            D    1   1.00
                  0.189000D+01           1.0000000
            D    1   1.00
                  0.430000D+00           1.0000000
            F    1   1.00
                  0.600000D+00           1.0000000
            ****
            
 Initial command:
 /usr/local/apps/g16_b01_avx/g16/l1.exe "/wrk/irikura/Gau-353668.inp" -scrdir="/wrk/irikura/"
 Entering Link 1 = /usr/local/apps/g16_b01_avx/g16/l1.exe PID=    353670.
  
 Copyright (c) 1988-2017, Gaussian, Inc.  All Rights Reserved.
  
 This is part of the Gaussian(R) 16 program.  It is based on
 the Gaussian(R) 09 system (copyright 2009, Gaussian, Inc.),
 the Gaussian(R) 03 system (copyright 2003, Gaussian, Inc.),
 the Gaussian(R) 98 system (copyright 1998, Gaussian, Inc.),
 the Gaussian(R) 94 system (copyright 1995, Gaussian, Inc.),
 the Gaussian 92(TM) system (copyright 1992, Gaussian, Inc.),
 the Gaussian 90(TM) system (copyright 1990, Gaussian, Inc.),
 the Gaussian 88(TM) system (copyright 1988, Gaussian, Inc.),
 the Gaussian 86(TM) system (copyright 1986, Carnegie Mellon
 University), and the Gaussian 82(TM) system (copyright 1983,
 Carnegie Mellon University). Gaussian is a federally registered
 trademark of Gaussian, Inc.
  
 This software contains proprietary and confidential information,
 including trade secrets, belonging to Gaussian, Inc.
  
 This software is provided under written license and may be
 used, copied, transmitted, or stored only in accord with that
 written license.
  
 The following legend is applicable only to US Government
 contracts under FAR:
  
                    RESTRICTED RIGHTS LEGEND
  
 Use, reproduction and disclosure by the US Government is
 subject to restrictions as set forth in subparagraphs (a)
 and (c) of the Commercial Computer Software - Restricted
 Rights clause in FAR 52.227-19.
  
 Gaussian, Inc.
 340 Quinnipiac St., Bldg. 40, Wallingford CT 06492
  
  
 ---------------------------------------------------------------
 Warning -- This program may not be used in any manner that
 competes with the business of Gaussian, Inc. or will provide
 assistance to any competitor of Gaussian, Inc.  The licensee
 of this program is prohibited from giving any competitor of
 Gaussian, Inc. access to this program.  By using this program,
 the user acknowledges that Gaussian, Inc. is engaged in the
 business of creating and licensing software in the field of
 computational chemistry and represents and warrants to the
 licensee that it is not a competitor of Gaussian, Inc. and that
 it will not use this program in any manner prohibited above.
 ---------------------------------------------------------------
  

 Cite this work as:
 Gaussian 16, Revision B.01,
 M. J. Frisch, G. W. Trucks, H. B. Schlegel, G. E. Scuseria, 
 M. A. Robb, J. R. Cheeseman, G. Scalmani, V. Barone, 
 G. A. Petersson, H. Nakatsuji, X. Li, M. Caricato, A. V. Marenich, 
 J. Bloino, B. G. Janesko, R. Gomperts, B. Mennucci, H. P. Hratchian, 
 J. V. Ortiz, A. F. Izmaylov, J. L. Sonnenberg, D. Williams-Young, 
 F. Ding, F. Lipparini, F. Egidi, J. Goings, B. Peng, A. Petrone, 
 T. Henderson, D. Ranasinghe, V. G. Zakrzewski, J. Gao, N. Rega, 
 G. Zheng, W. Liang, M. Hada, M. Ehara, K. Toyota, R. Fukuda, 
 J. Hasegawa, M. Ishida, T. Nakajima, Y. Honda, O. Kitao, H. Nakai, 
 T. Vreven, K. Throssell, J. A. Montgomery, Jr., J. E. Peralta, 
 F. Ogliaro, M. J. Bearpark, J. J. Heyd, E. N. Brothers, K. N. Kudin, 
 V. N. Staroverov, T. A. Keith, R. Kobayashi, J. Normand, 
 K. Raghavachari, A. P. Rendell, J. C. Burant, S. S. Iyengar, 
 J. Tomasi, M. Cossi, J. M. Millam, M. Klene, C. Adamo, R. Cammi, 
 J. W. Ochterski, R. L. Martin, K. Morokuma, O. Farkas, 
 J. B. Foresman, and D. J. Fox, Gaussian, Inc., Wallingford CT, 2016.
 
 ******************************************
 Gaussian 16:  ES64L-G16RevB.01 20-Dec-2017
                29-Sep-2023 
 ******************************************
 %chk=ch3ocl.chk
 %mem=500mw
 %nprocs=4
 Will use up to    4 processors via shared memory.
 ---------------------------------------
 # b3lyp/gen opt freq CPHF(Grid=OneStep)
 ---------------------------------------
 1/18=20,19=15,26=3,38=1/1,3;
 2/9=110,12=2,17=6,18=5,40=1/2;
 3/5=7,11=2,25=1,30=1,71=1,74=-5/1,2,3;
 4//1;
 5/5=2,38=5/2;
 6/7=2,8=2,9=2,10=2,28=1/1;
 7//1,2,3,16;
 1/18=20,19=15,26=3/3(2);
 2/9=110/2;
 99//99;
 2/9=110/2;
 3/5=7,6=1,11=2,25=1,30=1,71=1,74=-5,82=7/1,2,3;
 4/5=5,16=3,69=1/1;
 5/5=2,38=5/2;
 7//1,2,3,16;
 1/18=20,19=15,26=3/3(-5);
 2/9=110/2;
 6/7=2,8=2,9=2,10=2,19=2,28=1/1;
 99/9=1/99;
 ----------------------------------
 methyl hypochlorite, B3LYP/pcseg-2
 ----------------------------------
 Symbolic Z-matrix:
 Charge =  0 Multiplicity = 1
 O                     0.        0.80102   0. 
 Cl                   -0.81083  -0.70208   0. 
 C                     1.41326   0.61868   0. 
 H                     1.80996   1.63371   0. 
 H                     1.74732   0.09075   0.89449 
 H                     1.74732   0.09075  -0.89449 
 

 GradGradGradGradGradGradGradGradGradGradGradGradGradGradGradGradGradGrad
 Berny optimization.
 Initialization pass.
                           ----------------------------
                           !    Initial Parameters    !
                           ! (Angstroms and Degrees)  !
 --------------------------                            --------------------------
 ! Name  Definition              Value          Derivative Info.                !
 --------------------------------------------------------------------------------
 ! R1    R(1,2)                  1.7079         estimate D2E/DX2                !
 ! R2    R(1,3)                  1.425          estimate D2E/DX2                !
 ! R3    R(3,4)                  1.0898         estimate D2E/DX2                !
 ! R4    R(3,5)                  1.0911         estimate D2E/DX2                !
 ! R5    R(3,6)                  1.0911         estimate D2E/DX2                !
 ! A1    A(2,1,3)              110.9928         estimate D2E/DX2                !
 ! A2    A(1,3,4)              103.9954         estimate D2E/DX2                !
 ! A3    A(1,3,5)              111.4428         estimate D2E/DX2                !
 ! A4    A(1,3,6)              111.4428         estimate D2E/DX2                !
 ! A5    A(4,3,5)              109.8295         estimate D2E/DX2                !
 ! A6    A(4,3,6)              109.8295         estimate D2E/DX2                !
 ! A7    A(5,3,6)              110.1362         estimate D2E/DX2                !
 ! D1    D(2,1,3,4)            180.0            estimate D2E/DX2                !
 ! D2    D(2,1,3,5)            -61.739          estimate D2E/DX2                !
 ! D3    D(2,1,3,6)             61.739          estimate D2E/DX2                !
 --------------------------------------------------------------------------------
 Trust Radius=3.00D-01 FncErr=1.00D-07 GrdErr=1.00D-06 EigMax=2.50D+02 EigMin=1.00D-04
 Number of steps in this run=     25 maximum allowed number of steps=    100.
 GradGradGradGradGradGradGradGradGradGradGradGradGradGradGradGradGradGrad

                          Input orientation:                          
 ---------------------------------------------------------------------
 Center     Atomic      Atomic             Coordinates (Angstroms)
 Number     Number       Type             X           Y           Z
 ---------------------------------------------------------------------
      1          8           0        0.000000    0.801016    0.000000
      2         17           0       -0.810833   -0.702084    0.000000
      3          6           0        1.413260    0.618683    0.000000
      4          1           0        1.809959    1.633712    0.000000
      5          1           0        1.747317    0.090749    0.894492
      6          1           0        1.747317    0.090749   -0.894492
 ---------------------------------------------------------------------
                    Distance matrix (angstroms):
                    1          2          3          4          5
     1  O    0.000000
     2  Cl   1.707852   0.000000
     3  C    1.424973   2.586700   0.000000
     4  H    1.992319   3.510626   1.089795   0.000000
     5  H    2.087513   2.823620   1.091066   1.784594   0.000000
     6  H    2.087513   2.823620   1.091066   1.784594   1.788984
                    6
     6  H    0.000000
 Stoichiometry    CH3ClO
 Framework group  CS[SG(CHClO),X(H2)]
 Deg. of freedom     8
 Full point group                 CS      NOp   2
 Largest Abelian subgroup         CS      NOp   2
 Largest concise Abelian subgroup CS      NOp   2
                         Standard orientation:                         
 ---------------------------------------------------------------------
 Center     Atomic      Atomic             Coordinates (Angstroms)
 Number     Number       Type             X           Y           Z
 ---------------------------------------------------------------------
      1          8           0        0.000000    0.801016    0.000000
      2         17           0       -0.810833   -0.702084    0.000000
      3          6           0        1.413260    0.618683    0.000000
      4          1           0        1.809959    1.633712    0.000000
      5          1           0        1.747317    0.090749    0.894492
      6          1           0        1.747317    0.090749   -0.894492
 ---------------------------------------------------------------------
 Rotational constants (GHZ):          42.8547485           6.1633431           5.5802982
 General basis read from cards:  (5D, 7F)
 There are   101 symmetry adapted cartesian basis functions of A'  symmetry.
 There are    53 symmetry adapted cartesian basis functions of A"  symmetry.
 There are    87 symmetry adapted basis functions of A'  symmetry.
 There are    49 symmetry adapted basis functions of A"  symmetry.
   136 basis functions,   226 primitive gaussians,   154 cartesian basis functions
    17 alpha electrons       17 beta electrons
       nuclear repulsion energy       105.5692592028 Hartrees.
 NAtoms=    6 NActive=    6 NUniq=    5 SFac= 1.44D+00 NAtFMM=   60 NAOKFM=F Big=F
 Integral buffers will be    131072 words long.
 Raffenetti 2 integral format.
 Two-electron integral symmetry is turned on.
 One-electron integrals computed using PRISM.
 NBasis=   136 RedAO= T EigKep=  1.88D-03  NBF=    87    49
 NBsUse=   136 1.00D-06 EigRej= -1.00D+00 NBFU=    87    49
 ExpMin= 7.42D-02 ExpMax= 1.54D+05 ExpMxC= 1.49D+03 IAcc=3 IRadAn=         5 AccDes= 0.00D+00
 Harris functional with IExCor=  402 and IRadAn=       5 diagonalized for initial guess.
 HarFok:  IExCor=  402 AccDes= 0.00D+00 IRadAn=         5 IDoV= 1 UseB2=F ITyADJ=14
 ICtDFT=  3500011 ScaDFX=  1.000000  1.000000  1.000000  1.000000
 FoFCou: FMM=F IPFlag=           0 FMFlag=      100000 FMFlg1=           0
         NFxFlg=           0 DoJE=T BraDBF=F KetDBF=T FulRan=T
         wScrn=  0.000000 ICntrl=       500 IOpCl=  0 I1Cent=   200000004 NGrid=           0
         NMat0=    1 NMatS0=      1 NMatT0=    0 NMatD0=    1 NMtDS0=    0 NMtDT0=    0
 Petite list used in FoFCou.
 Initial guess orbital symmetries:
       Occupied  (A') (A') (A') (A') (A') (A') (A") (A') (A') (A')
                 (A') (A") (A') (A') (A") (A') (A")
       Virtual   (A') (A') (A') (A') (A") (A') (A") (A') (A') (A')
                 (A") (A') (A') (A") (A') (A') (A") (A') (A") (A')
                 (A") (A') (A') (A") (A') (A') (A") (A') (A") (A')
                 (A') (A") (A') (A') (A") (A') (A') (A") (A') (A")
                 (A') (A") (A') (A') (A') (A") (A') (A') (A') (A")
                 (A") (A') (A") (A') (A') (A") (A') (A') (A") (A')
                 (A") (A') (A') (A') (A") (A') (A") (A') (A") (A')
                 (A") (A') (A") (A') (A') (A") (A') (A") (A') (A")
                 (A") (A') (A') (A') (A") (A') (A") (A') (A') (A")
                 (A") (A') (A") (A') (A') (A") (A') (A") (A') (A')
                 (A') (A") (A') (A') (A") (A') (A') (A") (A') (A")
                 (A") (A') (A') (A") (A') (A") (A') (A') (A')
 The electronic state of the initial guess is 1-A'.
 Keep R1 ints in memory in symmetry-blocked form, NReq=65277708.
 Requested convergence on RMS density matrix=1.00D-08 within 128 cycles.
 Requested convergence on MAX density matrix=1.00D-06.
 Requested convergence on             energy=1.00D-06.
 No special actions if energy rises.
 Integral accuracy reduced to 1.0D-05 until final iterations.
 Initial convergence to 1.0D-05 achieved.  Increase integral accuracy.
 SCF Done:  E(RB3LYP) =  -575.352813377     A.U. after   12 cycles
            NFock= 12  Conv=0.87D-08     -V/T= 2.0014

 **********************************************************************

            Population analysis using the SCF Density.

 **********************************************************************

 Orbital symmetries:
       Occupied  (A') (A') (A') (A') (A') (A') (A") (A') (A') (A')
                 (A') (A") (A') (A') (A") (A') (A")
       Virtual   (A') (A') (A') (A") (A') (A') (A") (A') (A') (A')
                 (A') (A") (A") (A') (A') (A') (A") (A') (A") (A')
                 (A") (A') (A') (A") (A') (A') (A") (A') (A") (A')
                 (A') (A") (A') (A') (A") (A') (A') (A") (A') (A")
                 (A") (A') (A') (A') (A') (A") (A') (A') (A") (A')
                 (A") (A') (A') (A") (A') (A') (A") (A') (A") (A')
                 (A') (A") (A') (A') (A") (A') (A") (A') (A") (A')
                 (A") (A') (A") (A') (A') (A") (A") (A') (A") (A')
                 (A") (A') (A') (A') (A") (A") (A') (A') (A') (A")
                 (A") (A') (A") (A') (A') (A") (A') (A") (A') (A')
                 (A') (A") (A') (A') (A") (A') (A") (A') (A') (A")
                 (A") (A') (A') (A") (A') (A") (A') (A') (A')
 The electronic state is 1-A'.
 Alpha  occ. eigenvalues -- -101.55054 -19.19562 -10.23742  -9.49156  -7.25700
 Alpha  occ. eigenvalues --   -7.24283  -7.24261  -1.07225  -0.81715  -0.68601
 Alpha  occ. eigenvalues --   -0.51073  -0.48165  -0.47762  -0.38376  -0.37226
 Alpha  occ. eigenvalues --   -0.31880  -0.27936
 Alpha virt. eigenvalues --   -0.07887   0.01865   0.06487   0.07379   0.07929
 Alpha virt. eigenvalues --    0.16479   0.17212   0.24373   0.28398   0.28950
 Alpha virt. eigenvalues --    0.31460   0.31811   0.32591   0.33126   0.34684
 Alpha virt. eigenvalues --    0.38245   0.40002   0.42151   0.53828   0.54430
 Alpha virt. eigenvalues --    0.59532   0.60677   0.65357   0.69795   0.75279
 Alpha virt. eigenvalues --    0.81369   0.90799   0.91952   0.94760   0.95371
 Alpha virt. eigenvalues --    1.03915   1.04386   1.04576   1.11782   1.19588
 Alpha virt. eigenvalues --    1.25214   1.36585   1.37782   1.50806   1.62590
 Alpha virt. eigenvalues --    1.64517   1.64781   1.71770   1.73779   1.82201
 Alpha virt. eigenvalues --    1.86636   1.97255   2.02166   2.10694   2.11014
 Alpha virt. eigenvalues --    2.11782   2.16588   2.17761   2.17964   2.22924
 Alpha virt. eigenvalues --    2.27823   2.28713   2.33789   2.39512   2.43606
 Alpha virt. eigenvalues --    2.63560   2.63646   2.71804   3.03790   3.25100
 Alpha virt. eigenvalues --    3.26162   3.27051   3.27829   3.34618   3.36891
 Alpha virt. eigenvalues --    3.47635   3.51209   3.51327   3.65514   3.69950
 Alpha virt. eigenvalues --    3.70843   3.80841   3.82603   3.90157   3.91264
 Alpha virt. eigenvalues --    3.94053   3.97456   4.02859   4.11751   4.22872
 Alpha virt. eigenvalues --    4.32472   4.32757   4.36933   4.42274   4.45671
 Alpha virt. eigenvalues --    4.47778   4.50259   4.57446   4.65491   4.69440
 Alpha virt. eigenvalues --    4.71150   4.84081   4.94500   5.01271   5.08680
 Alpha virt. eigenvalues --    5.19648   5.39895   5.44048   5.64431   5.72663
 Alpha virt. eigenvalues --    5.75171   5.77014   5.77342   5.83484   5.87289
 Alpha virt. eigenvalues --    6.06757   6.10514   6.12562   6.25863   6.39651
 Alpha virt. eigenvalues --    6.56348   6.72203   7.01295  32.44153
          Condensed to atoms (all electrons):
               1          2          3          4          5          6
     1  O    8.207119   0.029789   0.202102  -0.030425  -0.043749  -0.043749
     2  Cl   0.029789  16.966663  -0.048871   0.008789   0.000885   0.000885
     3  C    0.202102  -0.048871   4.436041   0.399307   0.426580   0.426580
     4  H   -0.030425   0.008789   0.399307   0.625788  -0.023332  -0.023332
     5  H   -0.043749   0.000885   0.426580  -0.023332   0.649621  -0.048883
     6  H   -0.043749   0.000885   0.426580  -0.023332  -0.048883   0.649621
 Mulliken charges:
               1
     1  O   -0.321086
     2  Cl   0.041861
     3  C    0.158262
     4  H    0.043206
     5  H    0.038878
     6  H    0.038878
 Sum of Mulliken charges =  -0.00000
 Mulliken charges with hydrogens summed into heavy atoms:
               1
     1  O   -0.321086
     2  Cl   0.041861
     3  C    0.279225
 Electronic spatial extent (au):  <R**2>=            242.1736
 Charge=              0.0000 electrons
 Dipole moment (field-independent basis, Debye):
    X=              1.8727    Y=             -0.1364    Z=             -0.0000  Tot=              1.8776
 Quadrupole moment (field-independent basis, Debye-Ang):
   XX=            -22.6804   YY=            -24.7058   ZZ=            -25.5160
   XY=              2.1173   XZ=             -0.0000   YZ=             -0.0000
 Traceless Quadrupole moment (field-independent basis, Debye-Ang):
   XX=              1.6203   YY=             -0.4051   ZZ=             -1.2153
   XY=              2.1173   XZ=             -0.0000   YZ=             -0.0000
 Octapole moment (field-independent basis, Debye-Ang**2):
  XXX=              0.5735  YYY=             -0.3043  ZZZ=             -0.0000  XYY=             -0.4938
  XXY=              1.1319  XXZ=             -0.0000  XZZ=              0.2178  YZZ=              0.0180
  YYZ=             -0.0000  XYZ=              0.0000
 Hexadecapole moment (field-independent basis, Debye-Ang**3):
 XXXX=           -174.4348 YYYY=            -99.8398 ZZZZ=            -34.2965 XXXY=            -36.9414
 XXXZ=             -0.0000 YYYX=            -33.0073 YYYZ=              0.0000 ZZZX=             -0.0000
 ZZZY=             -0.0000 XXYY=            -41.3903 XXZZ=            -35.0276 YYZZ=            -24.8710
 XXYZ=             -0.0000 YYXZ=              0.0000 ZZXY=            -14.8837
 N-N= 1.055692592028D+02 E-N=-1.576196592840D+03  KE= 5.745387087002D+02
 Symmetry A'   KE= 5.213717471738D+02
 Symmetry A"   KE= 5.316696152643D+01
 Calling FoFJK, ICntrl=      2127 FMM=F ISym2X=1 I1Cent= 0 IOpClX= 0 NMat=1 NMatS=1 NMatT=0.
 ***** Axes restored to original set *****
 -------------------------------------------------------------------
 Center     Atomic                   Forces (Hartrees/Bohr)
 Number     Number              X              Y              Z
 -------------------------------------------------------------------
      1        8          -0.000127862    0.000017415    0.000000000
      2       17          -0.000038179   -0.000039284   -0.000000000
      3        6           0.000198884    0.000057070    0.000000000
      4        1          -0.000005625   -0.000007519    0.000000000
      5        1          -0.000013609   -0.000013841   -0.000017923
      6        1          -0.000013609   -0.000013841    0.000017923
 -------------------------------------------------------------------
 Cartesian Forces:  Max     0.000198884 RMS     0.000059605

 GradGradGradGradGradGradGradGradGradGradGradGradGradGradGradGradGradGrad
 Berny optimization.
 FormGI is forming the generalized inverse of G from B-inverse, IUseBI=4.
 Internal  Forces:  Max     0.000163605 RMS     0.000048644
 Search for a local minimum.
 Step number   1 out of a maximum of   25
 All quantities printed in internal units (Hartrees-Bohrs-Radians)
 Mixed Optimization -- En-DIIS/RFO-DIIS
 Second derivative matrix not updated -- first step.
 The second derivative matrix:
                          R1        R2        R3        R4        R5
           R1           0.34962
           R2           0.00000   0.41720
           R3           0.00000   0.00000   0.34836
           R4           0.00000   0.00000   0.00000   0.34690
           R5           0.00000   0.00000   0.00000   0.00000   0.34690
           A1           0.00000   0.00000   0.00000   0.00000   0.00000
           A2           0.00000   0.00000   0.00000   0.00000   0.00000
           A3           0.00000   0.00000   0.00000   0.00000   0.00000
           A4           0.00000   0.00000   0.00000   0.00000   0.00000
           A5           0.00000   0.00000   0.00000   0.00000   0.00000
           A6           0.00000   0.00000   0.00000   0.00000   0.00000
           A7           0.00000   0.00000   0.00000   0.00000   0.00000
           D1           0.00000   0.00000   0.00000   0.00000   0.00000
           D2           0.00000   0.00000   0.00000   0.00000   0.00000
           D3           0.00000   0.00000   0.00000   0.00000   0.00000
                          A1        A2        A3        A4        A5
           A1           0.25000
           A2           0.00000   0.16000
           A3           0.00000   0.00000   0.16000
           A4           0.00000   0.00000   0.00000   0.16000
           A5           0.00000   0.00000   0.00000   0.00000   0.16000
           A6           0.00000   0.00000   0.00000   0.00000   0.00000
           A7           0.00000   0.00000   0.00000   0.00000   0.00000
           D1           0.00000   0.00000   0.00000   0.00000   0.00000
           D2           0.00000   0.00000   0.00000   0.00000   0.00000
           D3           0.00000   0.00000   0.00000   0.00000   0.00000
                          A6        A7        D1        D2        D3
           A6           0.16000
           A7           0.00000   0.16000
           D1           0.00000   0.00000   0.01361
           D2           0.00000   0.00000   0.00000   0.01361
           D3           0.00000   0.00000   0.00000   0.00000   0.01361
 ITU=  0
     Eigenvalues ---    0.01361   0.10008   0.10821   0.16000   0.16000
     Eigenvalues ---    0.16000   0.25000   0.34690   0.34690   0.34836
     Eigenvalues ---    0.34962   0.41720
 RFO step:  Lambda=-1.08998937D-07 EMin= 1.36143037D-02
 Linear search not attempted -- first point.
 Iteration  1 RMS(Cart)=  0.00019302 RMS(Int)=  0.00000002
 Iteration  2 RMS(Cart)=  0.00000002 RMS(Int)=  0.00000001
 ClnCor:  largest displacement from symmetrization is 1.16D-11 for atom     6.
 Variable       Old X    -DE/DX   Delta X   Delta X   Delta X     New X
                                 (Linear)    (Quad)   (Total)
    R1        3.22737   0.00005   0.00000   0.00015   0.00015   3.22752
    R2        2.69281   0.00016   0.00000   0.00039   0.00039   2.69320
    R3        2.05941  -0.00001   0.00000  -0.00003  -0.00003   2.05939
    R4        2.06182  -0.00001   0.00000  -0.00003  -0.00003   2.06178
    R5        2.06182  -0.00001   0.00000  -0.00003  -0.00003   2.06178
    A1        1.93719   0.00006   0.00000   0.00023   0.00023   1.93742
    A2        1.81506   0.00002   0.00000   0.00015   0.00015   1.81521
    A3        1.94504  -0.00002   0.00000  -0.00014  -0.00014   1.94491
    A4        1.94504  -0.00002   0.00000  -0.00014  -0.00014   1.94491
    A5        1.91689   0.00002   0.00000   0.00016   0.00016   1.91704
    A6        1.91689   0.00002   0.00000   0.00016   0.00016   1.91704
    A7        1.92224  -0.00001   0.00000  -0.00017  -0.00017   1.92207
    D1        3.14159  -0.00000   0.00000  -0.00000   0.00000   3.14159
    D2       -1.07755   0.00002   0.00000   0.00021   0.00021  -1.07734
    D3        1.07755  -0.00002   0.00000  -0.00021  -0.00021   1.07734
         Item               Value     Threshold  Converged?
 Maximum Force            0.000164     0.000450     YES
 RMS     Force            0.000049     0.000300     YES
 Maximum Displacement     0.000462     0.001800     YES
 RMS     Displacement     0.000193     0.001200     YES
 Predicted change in Energy=-5.449799D-08
 Optimization completed.
    -- Stationary point found.
                           ----------------------------
                           !   Optimized Parameters   !
                           ! (Angstroms and Degrees)  !
 --------------------------                            --------------------------
 ! Name  Definition              Value          Derivative Info.                !
 --------------------------------------------------------------------------------
 ! R1    R(1,2)                  1.7079         -DE/DX =    0.0001              !
 ! R2    R(1,3)                  1.425          -DE/DX =    0.0002              !
 ! R3    R(3,4)                  1.0898         -DE/DX =    0.0                 !
 ! R4    R(3,5)                  1.0911         -DE/DX =    0.0                 !
 ! R5    R(3,6)                  1.0911         -DE/DX =    0.0                 !
 ! A1    A(2,1,3)              110.9928         -DE/DX =    0.0001              !
 ! A2    A(1,3,4)              103.9954         -DE/DX =    0.0                 !
 ! A3    A(1,3,5)              111.4428         -DE/DX =    0.0                 !
 ! A4    A(1,3,6)              111.4428         -DE/DX =    0.0                 !
 ! A5    A(4,3,5)              109.8295         -DE/DX =    0.0                 !
 ! A6    A(4,3,6)              109.8295         -DE/DX =    0.0                 !
 ! A7    A(5,3,6)              110.1362         -DE/DX =    0.0                 !
 ! D1    D(2,1,3,4)            180.0            -DE/DX =    0.0                 !
 ! D2    D(2,1,3,5)            -61.739          -DE/DX =    0.0                 !
 ! D3    D(2,1,3,6)             61.739          -DE/DX =    0.0                 !
 --------------------------------------------------------------------------------
 GradGradGradGradGradGradGradGradGradGradGradGradGradGradGradGradGradGrad

                          Input orientation:                          
 ---------------------------------------------------------------------
 Center     Atomic      Atomic             Coordinates (Angstroms)
 Number     Number       Type             X           Y           Z
 ---------------------------------------------------------------------
      1          8           0       -0.000000    0.801016    0.000000
      2         17           0       -0.810833   -0.702084    0.000000
      3          6           0        1.413260    0.618683    0.000000
      4          1           0        1.809959    1.633712    0.000000
      5          1           0        1.747317    0.090749    0.894492
      6          1           0        1.747317    0.090749   -0.894492
 ---------------------------------------------------------------------
                    Distance matrix (angstroms):
                    1          2          3          4          5
     1  O    0.000000
     2  Cl   1.707852   0.000000
     3  C    1.424973   2.586700   0.000000
     4  H    1.992319   3.510626   1.089795   0.000000
     5  H    2.087513   2.823620   1.091066   1.784594   0.000000
     6  H    2.087513   2.823620   1.091066   1.784594   1.788984
                    6
     6  H    0.000000
 Stoichiometry    CH3ClO
 Framework group  CS[SG(CHClO),X(H2)]
 Deg. of freedom     8
 Full point group                 CS      NOp   2
 Largest Abelian subgroup         CS      NOp   2
 Largest concise Abelian subgroup CS      NOp   2
                         Standard orientation:                         
 ---------------------------------------------------------------------
 Center     Atomic      Atomic             Coordinates (Angstroms)
 Number     Number       Type             X           Y           Z
 ---------------------------------------------------------------------
      1          8           0        0.000000    0.801016    0.000000
      2         17           0       -0.810833   -0.702084    0.000000
      3          6           0        1.413260    0.618683    0.000000
      4          1           0        1.809959    1.633712    0.000000
      5          1           0        1.747317    0.090749    0.894492
      6          1           0        1.747317    0.090749   -0.894492
 ---------------------------------------------------------------------
 Rotational constants (GHZ):          42.8547485           6.1633431           5.5802982
 1\1\GINC-GAMBA\FOpt\RB3LYP\Gen\C1H3Cl1O1\IRIKURA\29-Sep-2023\0\\# b3ly
 p/gen opt freq CPHF(Grid=OneStep)\\methyl hypochlorite, B3LYP/pcseg-2\
 \0,1\O,0.,0.801016,0.\Cl,-0.810833,-0.702084,0.\C,1.41326,0.618683,0.\
 H,1.809959,1.633712,0.\H,1.747317,0.090749,0.894492\H,1.747317,0.09074
 9,-0.894492\\Version=ES64L-G16RevB.01\State=1-A'\HF=-575.3528134\RMSD=
 8.655e-09\RMSF=5.960e-05\Dipole=0.7367579,-0.0536576,0.\Quadrupole=1.2
 046733,-0.3011573,-0.903516,1.5741483,0.,0.\PG=CS [SG(C1H1Cl1O1),X(H2)
 ]\\@


 Everywhere is walking distance if you have the time.
                                    -- Steven Wright
 Job cpu time:       0 days  0 hours  0 minutes 35.3 seconds.
 Elapsed time:       0 days  0 hours  0 minutes  9.0 seconds.
 File lengths (MBytes):  RWF=     14 Int=      0 D2E=      0 Chk=      2 Scr=      1
 Normal termination of Gaussian 16 at Fri Sep 29 06:27:52 2023.
 Link1:  Proceeding to internal job step number  2.
 ------------------------------------------------------------------
 #N Geom=AllCheck Guess=TCheck SCRF=Check GenChk RB3LYP/ChkBas Freq
 ------------------------------------------------------------------
 1/10=4,29=7,30=1,38=1,40=1/1,3;
 2/12=2,40=1/2;
 3/5=7,6=2,11=2,14=-4,25=1,30=1,67=1,70=2,71=2,74=-5,82=7,116=1,140=1/1,2,3;
 4/5=101/1;
 5/5=2,38=6,98=1/2;
 8/6=4,10=90,11=11/1;
 11/6=1,8=1,9=11,15=111,16=1/1,2,10;
 10/6=1,60=-420/2;
 6/7=2,8=2,9=2,10=2,28=1/1;
 7/8=1,10=1,25=1/1,2,3,16;
 1/10=4,30=1/3;
 99//99;
 Structure from the checkpoint file:  "ch3ocl.chk"
 ----------------------------------
 methyl hypochlorite, B3LYP/pcseg-2
 ----------------------------------
 Charge =  0 Multiplicity = 1
 Redundant internal coordinates found in file.  (old form).
 O,0,0.,0.801016,0.
 Cl,0,-0.810833,-0.702084,0.
 C,0,1.41326,0.618683,0.
 H,0,1.809959,1.633712,0.
 H,0,1.747317,0.090749,0.894492
 H,0,1.747317,0.090749,-0.894492
 Recover connectivity data from disk.

 GradGradGradGradGradGradGradGradGradGradGradGradGradGradGradGradGradGrad
 Berny optimization.
 Initialization pass.
                           ----------------------------
                           !    Initial Parameters    !
                           ! (Angstroms and Degrees)  !
 --------------------------                            --------------------------
 ! Name  Definition              Value          Derivative Info.                !
 --------------------------------------------------------------------------------
 ! R1    R(1,2)                  1.7079         calculate D2E/DX2 analytically  !
 ! R2    R(1,3)                  1.425          calculate D2E/DX2 analytically  !
 ! R3    R(3,4)                  1.0898         calculate D2E/DX2 analytically  !
 ! R4    R(3,5)                  1.0911         calculate D2E/DX2 analytically  !
 ! R5    R(3,6)                  1.0911         calculate D2E/DX2 analytically  !
 ! A1    A(2,1,3)              110.9928         calculate D2E/DX2 analytically  !
 ! A2    A(1,3,4)              103.9954         calculate D2E/DX2 analytically  !
 ! A3    A(1,3,5)              111.4428         calculate D2E/DX2 analytically  !
 ! A4    A(1,3,6)              111.4428         calculate D2E/DX2 analytically  !
 ! A5    A(4,3,5)              109.8295         calculate D2E/DX2 analytically  !
 ! A6    A(4,3,6)              109.8295         calculate D2E/DX2 analytically  !
 ! A7    A(5,3,6)              110.1362         calculate D2E/DX2 analytically  !
 ! D1    D(2,1,3,4)            180.0            calculate D2E/DX2 analytically  !
 ! D2    D(2,1,3,5)            -61.739          calculate D2E/DX2 analytically  !
 ! D3    D(2,1,3,6)             61.739          calculate D2E/DX2 analytically  !
 --------------------------------------------------------------------------------
 Trust Radius=3.00D-01 FncErr=1.00D-07 GrdErr=1.00D-07 EigMax=2.50D+02 EigMin=1.00D-04
 Number of steps in this run=      2 maximum allowed number of steps=      2.
 GradGradGradGradGradGradGradGradGradGradGradGradGradGradGradGradGradGrad

                          Input orientation:                          
 ---------------------------------------------------------------------
 Center     Atomic      Atomic             Coordinates (Angstroms)
 Number     Number       Type             X           Y           Z
 ---------------------------------------------------------------------
      1          8           0       -0.000000    0.801016    0.000000
      2         17           0       -0.810833   -0.702084    0.000000
      3          6           0        1.413260    0.618683    0.000000
      4          1           0        1.809959    1.633712    0.000000
      5          1           0        1.747317    0.090749    0.894492
      6          1           0        1.747317    0.090749   -0.894492
 ---------------------------------------------------------------------
                    Distance matrix (angstroms):
                    1          2          3          4          5
     1  O    0.000000
     2  Cl   1.707852   0.000000
     3  C    1.424973   2.586700   0.000000
     4  H    1.992319   3.510626   1.089795   0.000000
     5  H    2.087513   2.823620   1.091066   1.784594   0.000000
     6  H    2.087513   2.823620   1.091066   1.784594   1.788984
                    6
     6  H    0.000000
 Stoichiometry    CH3ClO
 Framework group  CS[SG(CHClO),X(H2)]
 Deg. of freedom     8
 Full point group                 CS      NOp   2
 Largest Abelian subgroup         CS      NOp   2
 Largest concise Abelian subgroup CS      NOp   2
                         Standard orientation:                         
 ---------------------------------------------------------------------
 Center     Atomic      Atomic             Coordinates (Angstroms)
 Number     Number       Type             X           Y           Z
 ---------------------------------------------------------------------
      1          8           0        0.000000    0.801016    0.000000
      2         17           0       -0.810833   -0.702084    0.000000
      3          6           0        1.413260    0.618683    0.000000
      4          1           0        1.809959    1.633712    0.000000
      5          1           0        1.747317    0.090749    0.894492
      6          1           0        1.747317    0.090749   -0.894492
 ---------------------------------------------------------------------
 Rotational constants (GHZ):          42.8547485           6.1633431           5.5802982
 Basis read from chk: "ch3ocl.chk" (5D, 7F)
 There are   101 symmetry adapted cartesian basis functions of A'  symmetry.
 There are    53 symmetry adapted cartesian basis functions of A"  symmetry.
 There are    87 symmetry adapted basis functions of A'  symmetry.
 There are    49 symmetry adapted basis functions of A"  symmetry.
   136 basis functions,   226 primitive gaussians,   154 cartesian basis functions
    17 alpha electrons       17 beta electrons
       nuclear repulsion energy       105.5692592028 Hartrees.
 NAtoms=    6 NActive=    6 NUniq=    5 SFac= 1.44D+00 NAtFMM=   60 NAOKFM=F Big=F
 Integral buffers will be    131072 words long.
 Raffenetti 2 integral format.
 Two-electron integral symmetry is turned on.
 One-electron integrals computed using PRISM.
 NBasis=   136 RedAO= T EigKep=  1.88D-03  NBF=    87    49
 NBsUse=   136 1.00D-06 EigRej= -1.00D+00 NBFU=    87    49
 Initial guess from the checkpoint file:  "ch3ocl.chk"
 B after Tr=    -0.000000    0.000000   -0.000000
         Rot=    1.000000    0.000000    0.000000   -0.000000 Ang=   0.00 deg.
 Initial guess orbital symmetries:
       Occupied  (A') (A') (A') (A') (A') (A') (A") (A') (A') (A')
                 (A') (A") (A') (A') (A") (A') (A")
       Virtual   (A') (A') (A') (A") (A') (A') (A") (A') (A') (A')
                 (A') (A") (A") (A') (A') (A') (A") (A') (A") (A')
                 (A") (A') (A') (A") (A') (A') (A") (A') (A") (A')
                 (A') (A") (A') (A') (A") (A') (A') (A") (A') (A")
                 (A") (A') (A') (A') (A') (A") (A') (A') (A") (A')
                 (A") (A') (A') (A") (A') (A') (A") (A') (A") (A')
                 (A') (A") (A') (A') (A") (A') (A") (A') (A") (A')
                 (A") (A') (A") (A') (A') (A") (A") (A') (A") (A')
                 (A") (A') (A') (A') (A") (A") (A') (A') (A') (A")
                 (A") (A') (A") (A') (A') (A") (A') (A") (A') (A')
                 (A') (A") (A') (A') (A") (A') (A") (A') (A') (A")
                 (A") (A') (A') (A") (A') (A") (A') (A') (A')
 Keep R1 ints in memory in symmetry-blocked form, NReq=65277708.
 Requested convergence on RMS density matrix=1.00D-08 within 128 cycles.
 Requested convergence on MAX density matrix=1.00D-06.
 Requested convergence on             energy=1.00D-06.
 No special actions if energy rises.
 SCF Done:  E(RB3LYP) =  -575.352813377     A.U. after    1 cycles
            NFock=  1  Conv=0.32D-08     -V/T= 2.0014
 DoSCS=F DFT=T ScalE2(SS,OS)=  1.000000  1.000000
 Range of M.O.s used for correlation:     1   136
 NBasis=   136 NAE=    17 NBE=    17 NFC=     0 NFV=     0
 NROrb=    136 NOA=    17 NOB=    17 NVA=   119 NVB=   119
 Symmetrizing basis deriv contribution to polar:
 IMax=3 JMax=2 DiffMx= 0.00D+00
 G2DrvN: will do     7 centers at a time, making    1 passes.
 Calling FoFCou, ICntrl=  3107 FMM=F I1Cent=   0 AccDes= 0.00D+00.
 End of G2Drv F.D. properties file   721 does not exist.
 End of G2Drv F.D. properties file   722 does not exist.
 End of G2Drv F.D. properties file   788 does not exist.
          IDoAtm=111111
          Differentiating once with respect to electric field.
                with respect to dipole field.
          Differentiating once with respect to nuclear coordinates.
 Keep R1 ints in memory in symmetry-blocked form, NReq=65281494.
          There are    18 degrees of freedom in the 1st order CPHF.  IDoFFX=4 NUNeed=    18.
     18 vectors produced by pass  0 Test12= 1.12D-14 5.56D-09 XBig12= 2.26D+01 2.10D+00.
 AX will form    18 AO Fock derivatives at one time.
     18 vectors produced by pass  1 Test12= 1.12D-14 5.56D-09 XBig12= 7.55D+00 9.28D-01.
     18 vectors produced by pass  2 Test12= 1.12D-14 5.56D-09 XBig12= 1.06D-01 6.92D-02.
     18 vectors produced by pass  3 Test12= 1.12D-14 5.56D-09 XBig12= 9.84D-04 6.08D-03.
     18 vectors produced by pass  4 Test12= 1.12D-14 5.56D-09 XBig12= 2.65D-06 3.63D-04.
     14 vectors produced by pass  5 Test12= 1.12D-14 5.56D-09 XBig12= 4.10D-09 1.15D-05.
      5 vectors produced by pass  6 Test12= 1.12D-14 5.56D-09 XBig12= 5.94D-12 5.33D-07.
      2 vectors produced by pass  7 Test12= 1.12D-14 5.56D-09 XBig12= 6.59D-15 1.46D-08.
 InvSVY:  IOpt=1 It=  1 EMax= 3.55D-15
 Solved reduced A of dimension   111 with    18 vectors.
 Isotropic polarizability for W=    0.000000       29.99 Bohr**3.
 End of Minotr F.D. properties file   721 does not exist.
 End of Minotr F.D. properties file   722 does not exist.
 End of Minotr F.D. properties file   788 does not exist.

 **********************************************************************

            Population analysis using the SCF Density.

 **********************************************************************

 Orbital symmetries:
       Occupied  (A') (A') (A') (A') (A') (A') (A") (A') (A') (A')
                 (A') (A") (A') (A') (A") (A') (A")
       Virtual   (A') (A') (A') (A") (A') (A') (A") (A') (A') (A')
                 (A') (A") (A") (A') (A') (A') (A") (A') (A") (A')
                 (A") (A') (A') (A") (A') (A') (A") (A') (A") (A')
                 (A') (A") (A') (A') (A") (A') (A') (A") (A') (A")
                 (A") (A') (A') (A') (A') (A") (A') (A') (A") (A')
                 (A") (A') (A') (A") (A') (A') (A") (A') (A") (A')
                 (A') (A") (A') (A') (A") (A') (A") (A') (A") (A')
                 (A") (A') (A") (A') (A') (A") (A") (A') (A") (A')
                 (A") (A') (A') (A') (A") (A") (A') (A') (A') (A")
                 (A") (A') (A") (A') (A') (A") (A') (A") (A') (A')
                 (A') (A") (A') (A') (A") (A') (A") (A') (A') (A")
                 (A") (A') (A') (A") (A') (A") (A') (A') (A')
 The electronic state is 1-A'.
 Alpha  occ. eigenvalues -- -101.55055 -19.19562 -10.23742  -9.49156  -7.25700
 Alpha  occ. eigenvalues --   -7.24283  -7.24261  -1.07225  -0.81715  -0.68601
 Alpha  occ. eigenvalues --   -0.51073  -0.48165  -0.47762  -0.38376  -0.37226
 Alpha  occ. eigenvalues --   -0.31880  -0.27936
 Alpha virt. eigenvalues --   -0.07887   0.01865   0.06487   0.07379   0.07929
 Alpha virt. eigenvalues --    0.16479   0.17212   0.24373   0.28398   0.28950
 Alpha virt. eigenvalues --    0.31460   0.31811   0.32591   0.33126   0.34684
 Alpha virt. eigenvalues --    0.38245   0.40002   0.42151   0.53828   0.54430
 Alpha virt. eigenvalues --    0.59532   0.60677   0.65357   0.69795   0.75279
 Alpha virt. eigenvalues --    0.81369   0.90799   0.91952   0.94760   0.95371
 Alpha virt. eigenvalues --    1.03915   1.04386   1.04576   1.11782   1.19588
 Alpha virt. eigenvalues --    1.25214   1.36585   1.37782   1.50806   1.62590
 Alpha virt. eigenvalues --    1.64517   1.64781   1.71770   1.73779   1.82201
 Alpha virt. eigenvalues --    1.86636   1.97255   2.02166   2.10693   2.11014
 Alpha virt. eigenvalues --    2.11782   2.16588   2.17761   2.17964   2.22924
 Alpha virt. eigenvalues --    2.27823   2.28713   2.33789   2.39512   2.43606
 Alpha virt. eigenvalues --    2.63560   2.63646   2.71804   3.03790   3.25100
 Alpha virt. eigenvalues --    3.26162   3.27052   3.27829   3.34618   3.36891
 Alpha virt. eigenvalues --    3.47635   3.51209   3.51327   3.65514   3.69950
 Alpha virt. eigenvalues --    3.70843   3.80841   3.82603   3.90157   3.91264
 Alpha virt. eigenvalues --    3.94053   3.97456   4.02859   4.11751   4.22872
 Alpha virt. eigenvalues --    4.32472   4.32757   4.36933   4.42274   4.45671
 Alpha virt. eigenvalues --    4.47778   4.50259   4.57446   4.65491   4.69440
 Alpha virt. eigenvalues --    4.71150   4.84081   4.94500   5.01271   5.08680
 Alpha virt. eigenvalues --    5.19648   5.39895   5.44048   5.64431   5.72663
 Alpha virt. eigenvalues --    5.75171   5.77014   5.77342   5.83484   5.87289
 Alpha virt. eigenvalues --    6.06757   6.10514   6.12562   6.25863   6.39651
 Alpha virt. eigenvalues --    6.56348   6.72203   7.01295  32.44153
          Condensed to atoms (all electrons):
               1          2          3          4          5          6
     1  O    8.207119   0.029789   0.202102  -0.030425  -0.043749  -0.043749
     2  Cl   0.029789  16.966663  -0.048871   0.008789   0.000885   0.000885
     3  C    0.202102  -0.048871   4.436040   0.399307   0.426580   0.426580
     4  H   -0.030425   0.008789   0.399307   0.625788  -0.023332  -0.023332
     5  H   -0.043749   0.000885   0.426580  -0.023332   0.649621  -0.048883
     6  H   -0.043749   0.000885   0.426580  -0.023332  -0.048883   0.649621
 Mulliken charges:
               1
     1  O   -0.321086
     2  Cl   0.041861
     3  C    0.158262
     4  H    0.043206
     5  H    0.038878
     6  H    0.038878
 Sum of Mulliken charges =  -0.00000
 Mulliken charges with hydrogens summed into heavy atoms:
               1
     1  O   -0.321086
     2  Cl   0.041861
     3  C    0.279226
 APT charges:
               1
     1  O   -0.351207
     2  Cl  -0.028203
     3  C    0.413915
     4  H    0.008097
     5  H   -0.021301
     6  H   -0.021301
 Sum of APT charges =  -0.00000
 APT charges with hydrogens summed into heavy atoms:
               1
     1  O   -0.351207
     2  Cl  -0.028203
     3  C    0.379410
 Electronic spatial extent (au):  <R**2>=            242.1736
 Charge=             -0.0000 electrons
 Dipole moment (field-independent basis, Debye):
    X=              1.8727    Y=             -0.1364    Z=             -0.0000  Tot=              1.8776
 Quadrupole moment (field-independent basis, Debye-Ang):
   XX=            -22.6804   YY=            -24.7058   ZZ=            -25.5160
   XY=              2.1173   XZ=             -0.0000   YZ=             -0.0000
 Traceless Quadrupole moment (field-independent basis, Debye-Ang):
   XX=              1.6203   YY=             -0.4051   ZZ=             -1.2153
   XY=              2.1173   XZ=             -0.0000   YZ=             -0.0000
 Octapole moment (field-independent basis, Debye-Ang**2):
  XXX=              0.5735  YYY=             -0.3043  ZZZ=             -0.0000  XYY=             -0.4938
  XXY=              1.1319  XXZ=             -0.0000  XZZ=              0.2178  YZZ=              0.0180
  YYZ=             -0.0000  XYZ=             -0.0000
 Hexadecapole moment (field-independent basis, Debye-Ang**3):
 XXXX=           -174.4348 YYYY=            -99.8398 ZZZZ=            -34.2965 XXXY=            -36.9414
 XXXZ=              0.0000 YYYX=            -33.0073 YYYZ=             -0.0000 ZZZX=              0.0000
 ZZZY=              0.0000 XXYY=            -41.3903 XXZZ=            -35.0276 YYZZ=            -24.8710
 XXYZ=              0.0000 YYXZ=              0.0000 ZZXY=            -14.8837
 N-N= 1.055692592028D+02 E-N=-1.576196602369D+03  KE= 5.745387127575D+02
 Symmetry A'   KE= 5.213717499125D+02
 Symmetry A"   KE= 5.316696284504D+01
  Exact polarizability:  34.835   8.631  32.509   0.000   0.000  22.614
 Approx polarizability:  45.323  12.626  51.298  -0.000  -0.000  30.674
 Calling FoFJK, ICntrl=    100127 FMM=F ISym2X=1 I1Cent= 0 IOpClX= 0 NMat=1 NMatS=1 NMatT=0.
 Full mass-weighted force constant matrix:
 Low frequencies ---   -9.9501   -7.5775   -0.0043    0.0003    0.0033    3.5631
 Low frequencies ---  244.2699  366.2216  678.6315
 Diagonal vibrational polarizability:
        1.7640217       0.7746026       1.5518218
 Harmonic frequencies (cm**-1), IR intensities (KM/Mole), Raman scattering
 activities (A**4/AMU), depolarization ratios for plane and unpolarized
 incident light, reduced masses (AMU), force constants (mDyne/A),
 and normal coordinates:
                      1                      2                      3
                     A"                     A'                     A'
 Frequencies --    244.2698               366.2215               678.6315
 Red. masses --      1.1784                 3.6261                 8.9419
 Frc consts  --      0.0414                 0.2865                 2.4263
 IR Inten    --      2.9798                 3.1053                 4.4685
  Atom  AN      X      Y      Z        X      Y      Z        X      Y      Z
     1   8     0.00  -0.00  -0.09    -0.15   0.15  -0.00     0.11   0.56   0.00
     2  17    -0.00  -0.00   0.03     0.16   0.04   0.00    -0.12  -0.25  -0.00
     3   6     0.00   0.00   0.02    -0.20  -0.23   0.00     0.17   0.02  -0.00
     4   1    -0.00   0.00   0.63     0.20  -0.39   0.00     0.69  -0.17  -0.00
     5   1    -0.13  -0.48  -0.22    -0.42  -0.38  -0.01    -0.10  -0.14  -0.00
     6   1     0.13   0.48  -0.22    -0.42  -0.38   0.01    -0.10  -0.14   0.00
                      4                      5                      6
                     A'                     A"                     A'
 Frequencies --   1008.2322              1170.4841              1193.4041
 Red. masses --      6.6162                 1.2574                 1.4596
 Frc consts  --      3.9626                 1.0150                 1.2248
 IR Inten    --     42.4640                 1.1514                12.8194
  Atom  AN      X      Y      Z        X      Y      Z        X      Y      Z
     1   8     0.44   0.05   0.00     0.00  -0.00  -0.06     0.05  -0.08   0.00
     2  17    -0.01  -0.03  -0.00    -0.00  -0.00   0.00    -0.01  -0.00  -0.00
     3   6    -0.49  -0.03  -0.00    -0.00   0.00   0.13    -0.04   0.16  -0.00
     4   1    -0.68   0.08   0.00     0.00  -0.00  -0.25     0.73  -0.15   0.00
     5   1    -0.10   0.19   0.02     0.64  -0.14  -0.18    -0.39  -0.22  -0.09
     6   1    -0.10   0.19  -0.02    -0.64   0.14  -0.18    -0.39  -0.22   0.09
                      7                      8                      9
                     A'                     A"                     A'
 Frequencies --   1455.0103              1462.8456              1506.2533
 Red. masses --      1.1301                 1.0483                 1.0558
 Frc consts  --      1.4096                 1.3217                 1.4114
 IR Inten    --      2.6071                 7.7245                10.9729
  Atom  AN      X      Y      Z        X      Y      Z        X      Y      Z
     1   8    -0.02  -0.00   0.00    -0.00  -0.00  -0.01     0.01  -0.01  -0.00
     2  17     0.00   0.00   0.00    -0.00  -0.00  -0.00    -0.00   0.00   0.00
     3   6    -0.10  -0.02   0.00    -0.00  -0.00  -0.06     0.03  -0.05   0.00
     4   1     0.59  -0.28  -0.00     0.00  -0.00   0.73     0.15  -0.08  -0.00
     5   1     0.46   0.26  -0.03     0.31   0.37   0.07    -0.32   0.46   0.41
     6   1     0.46   0.26   0.03    -0.31  -0.37   0.07    -0.32   0.46  -0.41
                     10                     11                     12
                     A'                     A"                     A'
 Frequencies --   3019.8827              3091.1461              3114.9695
 Red. masses --      1.0280                 1.1078                 1.1043
 Frc consts  --      5.5237                 6.2366                 6.3129
 IR Inten    --     34.1454                31.2817                 8.6384
  Atom  AN      X      Y      Z        X      Y      Z        X      Y      Z
     1   8    -0.00  -0.00  -0.00     0.00   0.00   0.00    -0.00  -0.00   0.00
     2  17     0.00   0.00   0.00    -0.00  -0.00   0.00     0.00   0.00   0.00
     3   6    -0.04   0.01  -0.00     0.00   0.00  -0.10    -0.01  -0.09  -0.00
     4   1     0.17   0.43  -0.00    -0.00  -0.00  -0.02     0.32   0.83  -0.00
     5   1     0.18  -0.30   0.52     0.20  -0.35   0.57    -0.09   0.14  -0.27
     6   1     0.18  -0.30  -0.52    -0.20   0.35   0.57    -0.09   0.14   0.27

 -------------------
 - Thermochemistry -
 -------------------
 Temperature   298.150 Kelvin.  Pressure   1.00000 Atm.
 Atom     1 has atomic number  8 and mass  15.99491
 Atom     2 has atomic number 17 and mass  34.96885
 Atom     3 has atomic number  6 and mass  12.00000
 Atom     4 has atomic number  1 and mass   1.00783
 Atom     5 has atomic number  1 and mass   1.00783
 Atom     6 has atomic number  1 and mass   1.00783
 Molecular mass:    65.98724 amu.
 Principal axes and moments of inertia in atomic units:
                           1         2         3
     Eigenvalues --    42.11298 292.81855 323.41304
           X            0.80663  -0.59106   0.00000
           Y            0.59106   0.80663   0.00000
           Z           -0.00000   0.00000   1.00000
 This molecule is an asymmetric top.
 Rotational symmetry number  1.
 Rotational temperatures (Kelvin)      2.05670     0.29579     0.26781
 Rotational constants (GHZ):          42.85475     6.16334     5.58030
 Zero-point vibrational energy     109526.2 (Joules/Mol)
                                   26.17739 (Kcal/Mol)
 Warning -- explicit consideration of   2 degrees of freedom as
           vibrations may cause significant error
 Vibrational temperatures:    351.45   526.91   976.40  1450.62  1684.07
          (Kelvin)           1717.04  2093.44  2104.71  2167.16  4344.94
                             4447.47  4481.75
 
 Zero-point correction=                           0.041716 (Hartree/Particle)
 Thermal correction to Energy=                    0.045597
 Thermal correction to Enthalpy=                  0.046541
 Thermal correction to Gibbs Free Energy=         0.015752
 Sum of electronic and zero-point Energies=           -575.311097
 Sum of electronic and thermal Energies=              -575.307216
 Sum of electronic and thermal Enthalpies=            -575.306272
 Sum of electronic and thermal Free Energies=         -575.337062
 
                     E (Thermal)             CV                S
                      KCal/Mol        Cal/Mol-Kelvin    Cal/Mol-Kelvin
 Total                   28.612             11.195             64.802
 Electronic               0.000              0.000              0.000
 Translational            0.889              2.981             38.479
 Rotational               0.889              2.981             22.904
 Vibrational             26.835              5.234              3.419
 Vibration     1          0.660              1.772              1.772
 Vibration     2          0.739              1.542              1.096
                       Q            Log10(Q)             Ln(Q)
 Total Bot       0.568602D-07         -7.245192        -16.682670
 Total V=0       0.876939D+12         11.942969         27.499703
 Vib (Bot)       0.119380D-18        -18.923067        -43.571972
 Vib (Bot)    1  0.801148D+00         -0.096287         -0.221710
 Vib (Bot)    2  0.498405D+00         -0.302417         -0.696342
 Vib (V=0)       0.184117D+01          0.265094          0.610401
 Vib (V=0)    1  0.144437D+01          0.159679          0.367674
 Vib (V=0)    2  0.120598D+01          0.081340          0.187293
 Electronic      0.100000D+01          0.000000          0.000000
 Translational   0.210690D+08          7.323644         16.863313
 Rotational      0.226064D+05          4.354232         10.025989
 ***** Axes restored to original set *****
 -------------------------------------------------------------------
 Center     Atomic                   Forces (Hartrees/Bohr)
 Number     Number              X              Y              Z
 -------------------------------------------------------------------
      1        8          -0.000127827    0.000017463    0.000000000
      2       17          -0.000038212   -0.000039320   -0.000000000
      3        6           0.000198938    0.000057052   -0.000000000
      4        1          -0.000005648   -0.000007552    0.000000000
      5        1          -0.000013626   -0.000013821   -0.000017950
      6        1          -0.000013626   -0.000013821    0.000017950
 -------------------------------------------------------------------
 Cartesian Forces:  Max     0.000198938 RMS     0.000059614
 FormGI is forming the generalized inverse of G from B-inverse, IUseBI=4.

 GradGradGradGradGradGradGradGradGradGradGradGradGradGradGradGradGradGrad
 Berny optimization.
 Internal  Forces:  Max     0.000163600 RMS     0.000048649
 Search for a local minimum.
 Step number   1 out of a maximum of    2
 All quantities printed in internal units (Hartrees-Bohrs-Radians)
 Second derivative matrix not updated -- analytic derivatives used.
 The second derivative matrix:
                          R1        R2        R3        R4        R5
           R1           0.21484
           R2           0.01802   0.31285
           R3          -0.00371   0.01182   0.33974
           R4           0.00066   0.01474   0.00280   0.33312
           R5           0.00066   0.01474   0.00280   0.00375   0.33312
           A1           0.04548   0.04033   0.00625  -0.00382  -0.00382
           A2           0.01636   0.01837   0.00598  -0.00420  -0.00420
           A3          -0.00806   0.03234  -0.00522  -0.00061  -0.00500
           A4          -0.00806   0.03234  -0.00522  -0.00500  -0.00061
           A5           0.00015  -0.02678   0.00509   0.00664  -0.00514
           A6           0.00015  -0.02678   0.00509  -0.00514   0.00664
           A7           0.00032  -0.02863  -0.00476   0.00768   0.00768
           D1          -0.00000   0.00000   0.00000  -0.00457   0.00457
           D2           0.00568  -0.00503   0.00691   0.00055  -0.00642
           D3          -0.00568   0.00503  -0.00691   0.00642  -0.00055
                          A1        A2        A3        A4        A5
           A1           0.28219
           A2           0.02544   0.13362
           A3          -0.00827  -0.02640   0.13885
           A4          -0.00827  -0.02640  -0.03321   0.13885
           A5          -0.00500  -0.03708  -0.03440  -0.00385   0.06730
           A6          -0.00500  -0.03708  -0.00385  -0.03440   0.00394
           A7           0.00198  -0.00201  -0.04120  -0.04120   0.00431
           D1          -0.00000  -0.00000  -0.01689   0.01689  -0.01938
           D2           0.00475   0.02059  -0.00427  -0.01938   0.02170
           D3          -0.00475  -0.02059   0.01938   0.00427  -0.00064
                          A6        A7        D1        D2        D3
           A6           0.06730
           A7           0.00431   0.07162
           D1           0.01938   0.00000   0.02302
           D2           0.00064  -0.01642  -0.00825   0.02725
           D3          -0.02170   0.01642  -0.00825  -0.01137   0.02725
 ITU=  0
     Eigenvalues ---    0.00721   0.08356   0.08410   0.12896   0.16527
     Eigenvalues ---    0.18250   0.19253   0.28479   0.33040   0.33743
     Eigenvalues ---    0.33820   0.37594
 Angle between quadratic step and forces=  32.55 degrees.
 Linear search not attempted -- first point.
 Iteration  1 RMS(Cart)=  0.00017658 RMS(Int)=  0.00000004
 Iteration  2 RMS(Cart)=  0.00000003 RMS(Int)=  0.00000003
 ClnCor:  largest displacement from symmetrization is 1.70D-11 for atom     6.
 Variable       Old X    -DE/DX   Delta X   Delta X   Delta X     New X
                                 (Linear)    (Quad)   (Total)
    R1        3.22737   0.00005   0.00000   0.00014   0.00014   3.22751
    R2        2.69281   0.00016   0.00000   0.00061   0.00061   2.69341
    R3        2.05941  -0.00001   0.00000  -0.00008  -0.00008   2.05934
    R4        2.06182  -0.00001   0.00000  -0.00006  -0.00006   2.06176
    R5        2.06182  -0.00001   0.00000  -0.00006  -0.00006   2.06176
    A1        1.93719   0.00006   0.00000   0.00009   0.00009   1.93727
    A2        1.81506   0.00002   0.00000   0.00000   0.00000   1.81506
    A3        1.94504  -0.00002   0.00000  -0.00022  -0.00022   1.94482
    A4        1.94504  -0.00002   0.00000  -0.00022  -0.00022   1.94482
    A5        1.91689   0.00002   0.00000   0.00029   0.00029   1.91718
    A6        1.91689   0.00002   0.00000   0.00029   0.00029   1.91718
    A7        1.92224  -0.00001   0.00000  -0.00011  -0.00011   1.92213
    D1        3.14159  -0.00000   0.00000  -0.00000   0.00000   3.14159
    D2       -1.07755   0.00002   0.00000   0.00024   0.00024  -1.07731
    D3        1.07755  -0.00002   0.00000  -0.00024  -0.00024   1.07731
         Item               Value     Threshold  Converged?
 Maximum Force            0.000164     0.000450     YES
 RMS     Force            0.000049     0.000300     YES
 Maximum Displacement     0.000382     0.001800     YES
 RMS     Displacement     0.000177     0.001200     YES
 Predicted change in Energy=-7.090790D-08
 Optimization completed.
    -- Stationary point found.
                           ----------------------------
                           !   Optimized Parameters   !
                           ! (Angstroms and Degrees)  !
 --------------------------                            --------------------------
 ! Name  Definition              Value          Derivative Info.                !
 --------------------------------------------------------------------------------
 ! R1    R(1,2)                  1.7079         -DE/DX =    0.0001              !
 ! R2    R(1,3)                  1.425          -DE/DX =    0.0002              !
 ! R3    R(3,4)                  1.0898         -DE/DX =    0.0                 !
 ! R4    R(3,5)                  1.0911         -DE/DX =    0.0                 !
 ! R5    R(3,6)                  1.0911         -DE/DX =    0.0                 !
 ! A1    A(2,1,3)              110.9928         -DE/DX =    0.0001              !
 ! A2    A(1,3,4)              103.9954         -DE/DX =    0.0                 !
 ! A3    A(1,3,5)              111.4428         -DE/DX =    0.0                 !
 ! A4    A(1,3,6)              111.4428         -DE/DX =    0.0                 !
 ! A5    A(4,3,5)              109.8295         -DE/DX =    0.0                 !
 ! A6    A(4,3,6)              109.8295         -DE/DX =    0.0                 !
 ! A7    A(5,3,6)              110.1362         -DE/DX =    0.0                 !
 ! D1    D(2,1,3,4)            180.0            -DE/DX =    0.0                 !
 ! D2    D(2,1,3,5)            -61.739          -DE/DX =    0.0                 !
 ! D3    D(2,1,3,6)             61.739          -DE/DX =    0.0                 !
 --------------------------------------------------------------------------------
 GradGradGradGradGradGradGradGradGradGradGradGradGradGradGradGradGradGrad


 ----------------------------------------------------------------------

 Electric dipole moment (input orientation):
 (Debye = 10**-18 statcoulomb cm , SI units = C m)
                  (au)            (Debye)         (10**-30 SI)
   Tot        0.738711D+00      0.187762D+01      0.626305D+01
   x          0.736759D+00      0.187266D+01      0.624651D+01
   y         -0.536575D-01     -0.136384D+00     -0.454927D+00
   z          0.000000D+00      0.000000D+00      0.000000D+00

 Dipole polarizability, Alpha (input orientation).
 (esu units = cm**3 , SI units = C**2 m**2 J**-1)
 Alpha(0;0):
               (au)            (10**-24 esu)      (10**-40 SI)
   iso        0.299861D+02      0.444349D+01      0.494405D+01
   aniso      0.187035D+02      0.277158D+01      0.308380D+01
   xx         0.348352D+02      0.516205D+01      0.574355D+01
   yx         0.863110D+01      0.127900D+01      0.142308D+01
   yy         0.325089D+02      0.481733D+01      0.536000D+01
   zx         0.000000D+00      0.000000D+00      0.000000D+00
   zy         0.000000D+00      0.000000D+00      0.000000D+00
   zz         0.226142D+02      0.335108D+01      0.372858D+01

 ----------------------------------------------------------------------

 Dipole orientation:
     8          0.10965973          1.50571445         -0.10995017
    17         -0.10420016         -1.43075014         -1.43183438
     6          0.09878890          1.35644937          2.57869715
     1          0.24170242          3.31876440          3.18704306
     1         -1.65603482          0.53257606          3.28077186
     1          1.71572478          0.28701405          3.28077186

 Electric dipole moment (dipole orientation):
 (Debye = 10**-18 statcoulomb cm , SI units = C m)
                  (au)            (Debye)         (10**-30 SI)
   Tot        0.738711D+00      0.187762D+01      0.626305D+01
   x          0.000000D+00      0.000000D+00      0.000000D+00
   y          0.000000D+00      0.000000D+00      0.000000D+00
   z          0.738711D+00      0.187762D+01      0.626305D+01

 Dipole polarizability, Alpha (dipole orientation).
 (esu units = cm**3 , SI units = C**2 m**2 J**-1)
 Alpha(0;0):
               (au)            (10**-24 esu)      (10**-40 SI)
   iso        0.299861D+02      0.444349D+01      0.494405D+01
   aniso      0.187035D+02      0.277158D+01      0.308380D+01
   xx         0.226731D+02      0.335981D+01      0.373829D+01
   yx         0.808305D+00      0.119778D+00      0.133272D+00
   yy         0.337129D+02      0.499574D+01      0.555851D+01
   zx         0.632560D+00      0.937357D-01      0.104295D+00
   zy         0.868554D+01      0.128706D+01      0.143205D+01
   zz         0.335724D+02      0.497492D+01      0.553534D+01

 ----------------------------------------------------------------------
[...]
 ! R5    R(3,6)                  1.0911                                         !
 ! A1    A(2,1,3)              110.9928                                         !
 ! A2    A(1,3,4)              103.9954                                         !
 ! A3    A(1,3,5)              111.4428                                         !
 ! A4    A(1,3,6)              111.4428                                         !
 ! A5    A(4,3,5)              109.8295                                         !
 ! A6    A(4,3,6)              109.8295                                         !
 ! A7    A(5,3,6)              110.1362                                         !
 ! D1    D(2,1,3,4)            180.0                                            !
 ! D2    D(2,1,3,5)            -61.739                                          !
 ! D3    D(2,1,3,6)             61.739                                          !
 --------------------------------------------------------------------------------
                          Input orientation:                          
 ---------------------------------------------------------------------
 Center     Atomic      Atomic             Coordinates (Angstroms)
 Number     Number       Type             X           Y           Z
 ---------------------------------------------------------------------
      1          8           0       -0.000000    0.801016    0.000000
      2         17           0       -0.810833   -0.702084    0.000000
      3          6           0        1.413260    0.618683    0.000000
      4          1           0        1.809959    1.633712    0.000000
      5          1           0        1.747317    0.090749    0.894492
      6          1           0        1.747317    0.090749   -0.894492
 ---------------------------------------------------------------------
                    Distance matrix (angstroms):
                    1          2          3          4          5
     1  O    0.000000
     2  Cl   1.707852   0.000000
     3  C    1.424973   2.586700   0.000000
     4  H    1.992319   3.510626   1.089795   0.000000
     5  H    2.087513   2.823620   1.091066   1.784594   0.000000
     6  H    2.087513   2.823620   1.091066   1.784594   1.788984
                    6
     6  H    0.000000
 Stoichiometry    CH3ClO
 Framework group  CS[SG(CHClO),X(H2)]
 Deg. of freedom     8
 Full point group                 CS      NOp   2
 Largest Abelian subgroup         CS      NOp   2
 Largest concise Abelian subgroup CS      NOp   2
                         Standard orientation:                         
 ---------------------------------------------------------------------
 Center     Atomic      Atomic             Coordinates (Angstroms)
 Number     Number       Type             X           Y           Z
 ---------------------------------------------------------------------
      1          8           0        0.000000    0.801016    0.000000
      2         17           0       -0.810833   -0.702084    0.000000
      3          6           0        1.413260    0.618683    0.000000
      4          1           0        1.809959    1.633712    0.000000
      5          1           0        1.747317    0.090749    0.894492
      6          1           0        1.747317    0.090749   -0.894492
 ---------------------------------------------------------------------
 Rotational constants (GHZ):          42.8547485           6.1633431           5.5802982
 General basis read from cards:  (5D, 7F)
 There are   166 symmetry adapted cartesian basis functions of A'  symmetry.
 There are    87 symmetry adapted cartesian basis functions of A"  symmetry.
 There are   142 symmetry adapted basis functions of A'  symmetry.
 There are    80 symmetry adapted basis functions of A"  symmetry.
   222 basis functions,   348 primitive gaussians,   253 cartesian basis functions
    17 alpha electrons       17 beta electrons
       nuclear repulsion energy       105.5692592028 Hartrees.
 NAtoms=    6 NActive=    6 NUniq=    5 SFac= 1.44D+00 NAtFMM=   60 NAOKFM=F Big=F
 Integral buffers will be    131072 words long.
 Raffenetti 2 integral format.
 Two-electron integral symmetry is turned on.
 One-electron integrals computed using PRISM.
 NBasis=   222 RedAO= T EigKep=  8.99D-05  NBF=   142    80
 NBsUse=   222 1.00D-06 EigRej= -1.00D+00 NBFU=   142    80
 Initial guess from the checkpoint file:  "ch3ocl.chk"
 B after Tr=     0.000000   -0.000000   -0.000000
         Rot=    1.000000    0.000000   -0.000000    0.000000 Ang=   0.00 deg.
 Initial guess orbital symmetries:
       Occupied  (A') (A') (A') (A') (A') (A') (A") (A') (A') (A')
                 (A') (A") (A') (A') (A") (A') (A")
       Virtual   (A') (A') (A') (A") (A') (A') (A") (A') (A') (A')
                 (A') (A") (A") (A') (A') (A') (A") (A') (A") (A')
                 (A") (A') (A') (A") (A') (A') (A") (A') (A") (A')
                 (A') (A") (A') (A') (A") (A') (A') (A") (A') (A")
                 (A") (A') (A') (A') (A') (A") (A') (A') (A") (A')
                 (A") (A') (A') (A") (A') (A') (A") (A') (A") (A')
                 (A') (A") (A') (A') (A") (A') (A") (A') (A") (A')
                 (A") (A') (A") (A') (A') (A") (A") (A') (A") (A')
                 (A") (A') (A') (A') (A") (A") (A') (A') (A') (A")
                 (A") (A') (A") (A') (A') (A") (A') (A") (A') (A')
                 (A') (A") (A') (A') (A") (A') (A") (A') (A') (A")
                 (A") (A') (A') (A") (A') (A") (A') (A') (A') (A')
                 (A') (A') (A') (A') (A') (A') (A') (A') (A') (A')
                 (A') (A') (A') (A') (A') (A') (A') (A') (A') (A')
                 (A') (A') (A') (A') (A') (A') (A') (A') (A') (A')
                 (A') (A') (A') (A') (A') (A') (A') (A') (A') (A')
                 (A') (A') (A') (A') (A') (A') (A') (A') (A') (A')
                 (A') (A') (A') (A') (A") (A") (A") (A") (A") (A")
                 (A") (A") (A") (A") (A") (A") (A") (A") (A") (A")
                 (A") (A") (A") (A") (A") (A") (A") (A") (A") (A")
                 (A") (A") (A") (A") (A")
 Keep R1 and R2 ints in memory in symmetry-blocked form, NReq=462724233.
 Requested convergence on RMS density matrix=1.00D-08 within 128 cycles.
 Requested convergence on MAX density matrix=1.00D-06.
 Requested convergence on             energy=1.00D-06.
 No special actions if energy rises.
 SCF Done:  E(ROHF) =  -573.970593212     A.U. after   13 cycles
            NFock= 13  Conv=0.24D-08     -V/T= 2.0003
 <Sx>= 0.0000 <Sy>= 0.0000 <Sz>= 0.0000 <S**2>=-0.0000 S=-0.0000
 <L.S>=  0.00000000000    
 Annihilation of the first spin contaminant:
 S**2 before annihilation    -0.0000,   after     0.0000

 **********************************************************************

            Population analysis using the SCF Density.

 **********************************************************************

 Orbital symmetries:
       Occupied  (A') (A') (A') (A') (A') (A') (A") (A') (A') (A')
                 (A") (A') (A') (A") (A') (A') (A")
       Virtual   (A') (A') (A') (A") (A') (A') (A") (A') (A') (A")
                 (A') (A') (A") (A') (A') (A') (A') (A") (A') (A")
                 (A') (A') (A') (A") (A') (A") (A') (A') (A") (A')
                 (A") (A') (A") (A') (A') (A") (A') (A') (A") (A')
                 (A') (A") (A') (A') (A') (A") (A') (A") (A') (A')
                 (A') (A") (A") (A') (A") (A') (A') (A') (A") (A')
                 (A") (A") (A") (A') (A') (A') (A') (A") (A") (A')
                 (A') (A') (A") (A") (A") (A') (A') (A") (A') (A')
                 (A') (A') (A") (A') (A') (A") (A') (A") (A') (A")
                 (A') (A') (A") (A") (A') (A') (A") (A') (A") (A')
                 (A') (A") (A') (A") (A') (A") (A') (A") (A') (A')
                 (A") (A') (A") (A') (A') (A') (A") (A') (A') (A")
                 (A') (A') (A') (A") (A") (A") (A') (A') (A') (A")
                 (A') (A') (A') (A") (A') (A") (A') (A') (A") (A")
                 (A') (A") (A') (A') (A") (A") (A') (A') (A') (A')
                 (A") (A') (A") (A') (A") (A') (A") (A') (A') (A")
                 (A') (A') (A') (A") (A') (A") (A') (A") (A") (A')
                 (A') (A') (A") (A') (A") (A') (A') (A') (A") (A')
                 (A") (A') (A') (A") (A') (A") (A') (A') (A") (A')
                 (A') (A") (A') (A") (A') (A') (A') (A') (A") (A')
                 (A') (A") (A') (A') (A')
 The electronic state is 1-A'.
 Alpha  occ. eigenvalues -- -104.88056 -20.63234 -11.29438 -10.60107  -8.06813
 Alpha  occ. eigenvalues --   -8.06575  -8.06560  -1.40613  -1.07338  -0.92463
 Alpha  occ. eigenvalues --   -0.67003  -0.66024  -0.64799  -0.53146  -0.52358
 Alpha  occ. eigenvalues --   -0.45949  -0.43191
 Alpha virt. eigenvalues --    0.05333   0.05968   0.06857   0.07025   0.07833
 Alpha virt. eigenvalues --    0.11317   0.11618   0.14853   0.16978   0.18882
 Alpha virt. eigenvalues --    0.20939   0.21631   0.22492   0.24290   0.25426
 Alpha virt. eigenvalues --    0.29349   0.30615   0.35292   0.38166   0.41737
 Alpha virt. eigenvalues --    0.45253   0.47284   0.47754   0.48459   0.48924
 Alpha virt. eigenvalues --    0.49276   0.51381   0.52257   0.55113   0.55686
 Alpha virt. eigenvalues --    0.58695   0.62326   0.63285   0.65737   0.71983
 Alpha virt. eigenvalues --    0.72564   0.74301   0.77401   0.79479   0.81092
 Alpha virt. eigenvalues --    0.86087   0.88652   0.90064   0.94466   0.96833
 Alpha virt. eigenvalues --    0.98495   1.00647   1.03633   1.06060   1.10287
 Alpha virt. eigenvalues --    1.14603   1.21582   1.24795   1.27282   1.28759
 Alpha virt. eigenvalues --    1.31391   1.33924   1.39861   1.39910   1.47896
 Alpha virt. eigenvalues --    1.48140   1.49030   1.51612   1.52343   1.53088
 Alpha virt. eigenvalues --    1.57768   1.62747   1.63563   1.69221   1.69227
 Alpha virt. eigenvalues --    1.72737   1.76160   1.78245   1.81250   1.83075
 Alpha virt. eigenvalues --    1.83257   1.84042   1.85949   1.87505   1.93698
 Alpha virt. eigenvalues --    1.94567   1.95208   1.99037   1.99472   2.03378
 Alpha virt. eigenvalues --    2.05786   2.08732   2.11951   2.17472   2.18249
 Alpha virt. eigenvalues --    2.27540   2.28553   2.29120   2.33533   2.34723
 Alpha virt. eigenvalues --    2.35057   2.38780   2.45755   2.50697   2.54757
 Alpha virt. eigenvalues --    2.58872   2.60289   2.65923   2.69581   2.79239
 Alpha virt. eigenvalues --    2.85847   2.91121   2.94268   2.98498   3.02017
 Alpha virt. eigenvalues --    3.06498   3.08546   3.11988   3.14265   3.22539
 Alpha virt. eigenvalues --    3.27612   3.38398   3.42662   3.48514   3.48595
 Alpha virt. eigenvalues --    3.49455   3.53429   3.54651   3.57892   3.68763
 Alpha virt. eigenvalues --    3.71155   3.71653   3.74174   3.81773   3.84420
 Alpha virt. eigenvalues --    3.95029   4.08627   4.15922   4.16402   4.29136
 Alpha virt. eigenvalues --    4.32203   4.70722   4.82316   4.86229   4.88215
 Alpha virt. eigenvalues --    4.89746   4.94683   4.97846   5.05172   5.05322
 Alpha virt. eigenvalues --    5.07747   5.16525   5.23345   5.61514   5.85131
 Alpha virt. eigenvalues --    5.93516   5.95045   5.98193   6.00237   6.08432
 Alpha virt. eigenvalues --    6.09017   6.10130   6.13107   6.23303   6.24346
 Alpha virt. eigenvalues --    6.27095   6.75646   6.92065   7.00617   7.04263
 Alpha virt. eigenvalues --    7.09330   7.12616   7.20545   7.27238   7.29214
 Alpha virt. eigenvalues --    7.54547   7.69023   8.33789   8.42571   8.62477
 Alpha virt. eigenvalues --    8.77012   9.03318   9.42081   9.46453   9.53326
 Alpha virt. eigenvalues --   10.04051  10.33381  10.70875  11.36988  11.44545
 Alpha virt. eigenvalues --   11.52416  11.75896  12.16974  21.54554  21.54894
 Alpha virt. eigenvalues --   21.71447  22.15758  22.16323  22.21571  22.27925
 Alpha virt. eigenvalues --   22.39212  22.74543  23.74185  28.34935  28.39517
 Alpha virt. eigenvalues --   28.75972  37.57535  37.81941  38.12037  42.46919
          Condensed to atoms (all electrons):
               1          2          3          4          5          6
     1  O    8.300427   0.005197   0.161797  -0.047240  -0.030286  -0.030286
     2  Cl   0.005197  16.901232  -0.006435   0.010016  -0.003270  -0.003270
     3  C    0.161797  -0.006435   4.629911   0.426280   0.428306   0.428306
     4  H   -0.047240   0.010016   0.426280   0.557266  -0.033394  -0.033394
     5  H   -0.030286  -0.003270   0.428306  -0.033394   0.578342  -0.045088
     6  H   -0.030286  -0.003270   0.428306  -0.033394  -0.045088   0.578342
          Atomic-Atomic Spin Densities.
               1          2          3          4          5          6
     1  O    0.000000   0.000000   0.000000   0.000000   0.000000   0.000000
     2  Cl   0.000000   0.000000   0.000000   0.000000   0.000000   0.000000
     3  C    0.000000   0.000000   0.000000   0.000000   0.000000   0.000000
     4  H    0.000000   0.000000   0.000000   0.000000   0.000000   0.000000
     5  H    0.000000   0.000000   0.000000   0.000000   0.000000   0.000000
     6  H    0.000000   0.000000   0.000000   0.000000   0.000000   0.000000
 Mulliken charges and spin densities:
               1          2
     1  O   -0.359609   0.000000
     2  Cl   0.096531   0.000000
     3  C   -0.068165   0.000000
     4  H    0.120465   0.000000
     5  H    0.105389   0.000000
     6  H    0.105389   0.000000
 Sum of Mulliken charges =  -0.00000   0.00000
 Mulliken charges and spin densities with hydrogens summed into heavy atoms:
               1          2
     1  O   -0.359609   0.000000
     2  Cl   0.096531   0.000000
     3  C    0.263078   0.000000
 Electronic spatial extent (au):  <R**2>=            241.8491
 Charge=              0.0000 electrons
 Dipole moment (field-independent basis, Debye):
    X=              1.9354    Y=             -0.1414    Z=              0.0000  Tot=              1.9406
 Quadrupole moment (field-independent basis, Debye-Ang):
   XX=            -22.4377   YY=            -24.7092   ZZ=            -25.3189
   XY=              2.0805   XZ=             -0.0000   YZ=             -0.0000
 Traceless Quadrupole moment (field-independent basis, Debye-Ang):
   XX=              1.7176   YY=             -0.5539   ZZ=             -1.1637
   XY=              2.0805   XZ=             -0.0000   YZ=             -0.0000
 Octapole moment (field-independent basis, Debye-Ang**2):
  XXX=              1.0619  YYY=             -0.0514  ZZZ=             -0.0000  XYY=             -0.5738
  XXY=              1.0600  XXZ=             -0.0000  XZZ=              0.5057  YZZ=              0.2609
  YYZ=             -0.0000  XYZ=             -0.0000
 Hexadecapole moment (field-independent basis, Debye-Ang**3):
 XXXX=           -172.5017 YYYY=            -98.8595 ZZZZ=            -32.7220 XXXY=            -37.2559
 XXXZ=             -0.0000 YYYX=            -32.8388 YYYZ=              0.0000 ZZZX=              0.0000
 ZZZY=              0.0000 XXYY=            -40.8693 XXZZ=            -34.3174 YYZZ=            -24.5498
 XXYZ=             -0.0000 YYXZ=              0.0000 ZZXY=            -15.0400
 N-N= 1.055692592028D+02 E-N=-1.574979234029D+03  KE= 5.737728718185D+02
 Symmetry A'   KE= 5.209346648515D+02
 Symmetry A"   KE= 5.283820696709D+01
 Symmetry A'   SP= 0.000000000000D+00
 Symmetry A"   SP= 0.000000000000D+00
                          Isotropic Fermi Contact Couplings
        Atom                 a.u.       MegaHertz       Gauss      10(-4) cm-1
     1  O(17)              0.00000      -0.00000      -0.00000      -0.00000
     2  Cl(35)             0.00000       0.00000       0.00000       0.00000
     3  C(13)              0.00000       0.00000       0.00000       0.00000
     4  H(1)               0.00000       0.00000       0.00000       0.00000
     5  H(1)               0.00000       0.00000       0.00000       0.00000
     6  H(1)               0.00000       0.00000       0.00000       0.00000
 --------------------------------------------------------
       Center         ----  Spin Dipole Couplings  ----
                      3XX-RR        3YY-RR        3ZZ-RR
 --------------------------------------------------------
     1   Atom        0.000000      0.000000      0.000000
     2   Atom        0.000000      0.000000      0.000000
     3   Atom        0.000000      0.000000      0.000000
     4   Atom        0.000000      0.000000      0.000000
     5   Atom        0.000000      0.000000      0.000000
     6   Atom        0.000000      0.000000      0.000000
 --------------------------------------------------------
                        XY            XZ            YZ
 --------------------------------------------------------
     1   Atom        0.000000      0.000000      0.000000
     2   Atom        0.000000      0.000000      0.000000
     3   Atom        0.000000      0.000000      0.000000
     4   Atom        0.000000      0.000000      0.000000
     5   Atom        0.000000      0.000000      0.000000
     6   Atom        0.000000      0.000000      0.000000
 --------------------------------------------------------


 ---------------------------------------------------------------------------------
              Anisotropic Spin Dipole Couplings in Principal Axis System
 ---------------------------------------------------------------------------------

       Atom             a.u.   MegaHertz   Gauss  10(-4) cm-1        Axes

              Baa     0.0000    -0.000    -0.000    -0.000  1.0000  0.0000  0.0000
     1 O(17)  Bbb     0.0000    -0.000    -0.000    -0.000 -0.0000  1.0000  0.0000
              Bcc     0.0000    -0.000    -0.000    -0.000  0.0000  0.0000  1.0000
 
              Baa     0.0000     0.000     0.000     0.000  1.0000  0.0000  0.0000
     2 Cl(35) Bbb     0.0000     0.000     0.000     0.000 -0.0000  1.0000  0.0000
              Bcc     0.0000     0.000     0.000     0.000  0.0000  0.0000  1.0000
 
              Baa     0.0000     0.000     0.000     0.000  1.0000  0.0000  0.0000
     3 C(13)  Bbb     0.0000     0.000     0.000     0.000 -0.0000  1.0000  0.0000
              Bcc     0.0000     0.000     0.000     0.000  0.0000  0.0000  1.0000
 
              Baa     0.0000     0.000     0.000     0.000  1.0000  0.0000  0.0000
     4 H(1)   Bbb     0.0000     0.000     0.000     0.000 -0.0000  1.0000  0.0000
              Bcc     0.0000     0.000     0.000     0.000  0.0000  0.0000  1.0000
 
              Baa     0.0000     0.000     0.000     0.000  1.0000  0.0000  0.0000
     5 H(1)   Bbb     0.0000     0.000     0.000     0.000 -0.0000  1.0000  0.0000
              Bcc     0.0000     0.000     0.000     0.000  0.0000  0.0000  1.0000
 
              Baa     0.0000     0.000     0.000     0.000  1.0000  0.0000  0.0000
     6 H(1)   Bbb     0.0000     0.000     0.000     0.000 -0.0000  1.0000  0.0000
              Bcc     0.0000     0.000     0.000     0.000  0.0000  0.0000  1.0000
 

 ---------------------------------------------------------------------------------

 1\1\GINC-GAMBA\SP\ROHF\Gen\C1H3Cl1O1\IRIKURA\29-Sep-2023\0\\# rohf/gen
  geom=check guess=check\\methyl hypochlorite, ROHF/cc-pVTZ-F12\\0,1\O,
 0,0.,0.801016,0.\Cl,0,-0.810833,-0.702084,0.\C,0,1.41326,0.618683,0.\H
 ,0,1.809959,1.633712,0.\H,0,1.747317,0.090749,0.894492\H,0,1.747317,0.
 090749,-0.894492\\Version=ES64L-G16RevB.01\State=1-A'\HF=-573.9705932\
 RMSD=2.404e-09\Dipole=0.7614631,-0.0556328,0.\Quadrupole=1.2769827,-0.
 4118288,-0.865154,1.5467694,0.,0.\PG=CS [SG(C1H1Cl1O1),X(H2)]\\@


 READER, WHETHER YOU BE DILETTANTE OR PROFESSOR ... SHOW YOURSELF TO BE
 MORE HUMAN THAN CRITICAL, AND THEN YOUR PLEASURE WILL INCREASE.
                                           -- DOMENICO SCARLATTI (1738)
 Job cpu time:       0 days  0 hours  0 minutes 59.6 seconds.
 Elapsed time:       0 days  0 hours  0 minutes 16.3 seconds.
 File lengths (MBytes):  RWF=     26 Int=      0 D2E=      0 Chk=      5 Scr=      1
 Normal termination of Gaussian 16 at Fri Sep 29 06:29:13 2023.
