 Entering Gaussian System, Link 0=g16
 AtFile(1): pcseg2.gbs
            -H     0
            S   4   1.00
                  0.754732D+02           0.427821D-02
                  0.113575D+02           0.328672D-01
                  0.260081D+01           0.159578D+00
                  0.735503D+00           0.500000D+00
            S   1   1.00
                  0.231761D+00           1.0000000
            S   1   1.00
                  0.741675D-01           1.0000000
            P   1   1.00
                  0.160000D+01           1.0000000
            P   1   1.00
                  0.450000D+00           1.0000000
            D   1   1.00
                  0.125000D+01           1.0000000
            ****
            -C     0
            S   7   1.00
                  0.731999D+04           0.695369D-03
                  0.109818D+04           0.537138D-02
                  0.250014D+03           0.274734D-01
                  0.707586D+02           0.105078D+00
                  0.228595D+02           0.291262D+00
                  0.803936D+01           0.500000D+00
                  0.289309D+01           0.362224D+00
            S   2   1.00
                  0.521640D+01          -0.957844D-01
                  0.556124D+00           0.500000D+00
            S   1   1.00
                  0.228813D+00           1.0000000
            S   1   1.00
                  0.936338D-01           1.0000000
            P   4   1.00
                  0.339855D+02           0.818395D-02
                  0.772957D+01           0.586921D-01
                  0.224954D+01           0.222514D+00
                  0.767681D+00           0.500000D+00
            P   1   1.00
                  0.263283D+00           1.0000000
            P   1   1.00
                  0.848744D-01           1.0000000
            D   1   1.00
                  0.140000D+01           1.0000000
            D   1   1.00
                  0.450000D+00           1.0000000
            F   1   1.00
                  0.950000D+00           1.0000000
            ****
            -O     0
            S   7   1.00
                  0.135887D+05           0.665492D-03
                  0.203847D+04           0.514222D-02
                  0.464041D+03           0.263472D-01
                  0.131339D+03           0.101500D+00
                  0.425340D+02           0.285877D+00
                  0.150429D+02           0.500000D+00
                  0.546616D+01           0.368211D+00
            S   2   1.00
                  0.100915D+02          -0.100084D+00
                  0.110429D+01           0.500000D+00
            S   1   1.00
                  0.448082D+00           1.0000000
            S   1   1.00
                  0.175325D+00           1.0000000
            P   4   1.00
                  0.608220D+02           0.908253D-02
                  0.140332D+02           0.645878D-01
                  0.418244D+01           0.241502D+00
                  0.142490D+01           0.500000D+00
            P   1   1.00
                  0.478741D+00           1.0000000
            P   1   1.00
                  0.146257D+00           1.0000000
            D   1   1.00
                  0.220000D+01           1.0000000
            D   1   1.00
                  0.650000D+00           1.0000000
            F   1   1.00
                  0.110000D+01           1.0000000
            ****
            -N     0
            S   7   1.00
                  0.101643D+05           0.682757D-03
                  0.152481D+04           0.527488D-02
                  0.347119D+03           0.270037D-01
                  0.982389D+02           0.103673D+00
                  0.317799D+02           0.289575D+00
                  0.112240D+02           0.500000D+00
                  0.406611D+01           0.364621D+00
            S   2   1.00
                  0.747898D+01          -0.975681D-01
                  0.805040D+00           0.500000D+00
            S   1   1.00
                  0.324626D+00           1.0000000
            S   1   1.00
                  0.128132D+00           1.0000000
            P   4   1.00
                  0.482704D+02           0.829547D-02
                  0.110815D+02           0.596223D-01
                  0.326643D+01           0.227889D+00
                  0.111680D+01           0.500000D+00
            P   1   1.00
                  0.382049D+00           1.0000000
            P   1   1.00
                  0.121222D+00           1.0000000
            D   1   1.00
                  0.180000D+01           1.0000000
            D   1   1.00
                  0.550000D+00           1.0000000
            F   1   1.00
                  0.102000D+01           1.0000000
            ****
            -F     0
            S   7   1.00
                  0.174507D+05           0.655972D-03
                  0.261768D+04           0.506944D-02
                  0.595857D+03           0.259899D-01
                  0.168651D+03           0.100353D+00
                  0.546654D+02           0.284095D+00
                  0.193717D+02           0.500000D+00
                  0.706202D+01           0.370721D+00
            S   2   1.00
                  0.131197D+02          -0.101997D+00
                  0.145046D+01           0.500000D+00
            S   1   1.00
                  0.588255D+00           1.0000000
            S   1   1.00
                  0.227960D+00           1.0000000
            P   4   1.00
                  0.779407D+02           0.931135D-02
                  0.180425D+02           0.663964D-01
                  0.542342D+01           0.246386D+00
                  0.184876D+01           0.500000D+00
            P   1   1.00
                  0.617455D+00           1.0000000
            P   1   1.00
                  0.185496D+00           1.0000000
            D   1   1.00
                  0.280000D+01           1.0000000
            D   1   1.00
                  0.800000D+00           1.0000000
            F   1   1.00
                  0.120000D+01           1.0000000
            ****
            -Cl     0
            S   8   1.00
                  0.154272D+06           0.222473D-03
                  0.231232D+05           0.172590D-02
                  0.526257D+04           0.899286D-02
                  0.148995D+04           0.367724D-01
                  0.485417D+03           0.121446D+00
                  0.174634D+03           0.304148D+00
                  0.672393D+02           0.500000D+00
                  0.265780D+02           0.360252D+00
            S   3   1.00
                  0.131826D+03          -0.531330D-01
                  0.400703D+02          -0.233346D+00
                  0.789448D+01           0.500000D+00
            S   2   1.00
                  0.427711D+01           0.500000D+00
                  0.196233D+01           0.370517D+00
            S   1   1.00
                  0.520793D+00           1.0000000
            S   1   1.00
                  0.181633D+00           1.0000000
            P   7   1.00
                  0.124440D+04           0.988206D-03
                  0.295109D+03           0.829674D-02
                  0.947224D+02           0.430906D-01
                  0.352588D+02           0.148443D+00
                  0.144211D+02           0.344744D+00
                  0.610371D+01           0.500000D+00
                  0.258886D+01           0.348278D+00
            P   2   1.00
                  0.109447D+02          -0.196768D-01
                  0.104413D+01           0.500000D+00
            P   1   1.00
                  0.376184D+00           1.0000000
            P   1   1.00
                  0.120613D+00           1.0000000
            D   1   1.00
                  0.231000D+01           1.0000000
            D   1   1.00
                  0.520000D+00           1.0000000
            F   1   1.00
                  0.720000D+00           1.0000000
            ****
            -S     0
            S   8   1.00
                  0.134700D+06           0.226231D-03
                  0.201904D+05           0.175488D-02
                  0.459528D+04           0.914190D-02
                  0.130109D+04           0.373551D-01
                  0.423902D+03           0.123121D+00
                  0.152485D+03           0.306801D+00
                  0.586925D+02           0.500000D+00
                  0.231461D+02           0.354358D+00
            S   3   1.00
                  0.116327D+03          -0.491772D-01
                  0.352841D+02          -0.215962D+00
                  0.677831D+01           0.500000D+00
            S   2   1.00
                  0.360404D+01           0.500000D+00
                  0.164871D+01           0.366278D+00
            S   1   1.00
                  0.421821D+00           1.0000000
            S   1   1.00
                  0.147554D+00           1.0000000
            P   7   1.00
                  0.104863D+04           0.105273D-02
                  0.248717D+03           0.879338D-02
                  0.797887D+02           0.453358D-01
                  0.296023D+02           0.154476D+00
                  0.120627D+02           0.352366D+00
                  0.507628D+01           0.500000D+00
                  0.213375D+01           0.346429D+00
            P   2   1.00
                  0.928958D+01          -0.185932D-01
                  0.837819D+00           0.500000D+00
            P   1   1.00
                  0.301495D+00           1.0000000
            P   1   1.00
                  0.974740D-01           1.0000000
            D   1   1.00
                  0.210000D+01           1.0000000
            D   1   1.00
                  0.480000D+00           1.0000000
            F   1   1.00
                  0.660000D+00           1.0000000
            ****
            -Br     0
            S    10   1.00
                  0.233625D+07           0.532336D-04
                  0.349961D+06           0.413715D-03
                  0.796444D+05           0.217123D-02
                  0.225555D+05           0.910109D-02
                  0.735546D+04           0.323789D-01
                  0.265352D+04           0.988755D-01
                  0.103517D+04           0.248138D+00
                  0.422205D+03           0.474328D+00
                  0.180035D+03           0.500000D+00
                  0.793308D+02           0.187769D+00
            S    4   1.00
                  0.620834D+03          -0.226511D-01
                  0.190829D+03          -0.109497D+00
                  0.312505D+02           0.500000D+00
                  0.135270D+02           0.492812D+00
            S    2   1.00
                  0.216097D+02          -0.165418D+00
                  0.372566D+01           0.500000D+00
            S    1   1.00
                  0.169770D+01           1.0000000
            S    1   1.00
                  0.489332D+00           1.0000000
            S    1   1.00
                  0.175712D+00           1.0000000
            P    8   1.00
                  0.960829D+04           0.478974D-03
                  0.227618D+04           0.417853D-02
                  0.736723D+03           0.229315D-01
                  0.281579D+03           0.892653D-01
                  0.118395D+03           0.255288D+00
                  0.527481D+02           0.479074D+00
                  0.245098D+02           0.500000D+00
                  0.112009D+02           0.200944D+00
            P    4   1.00
                  0.587849D+02          -0.189674D-01
                  0.918962D+01           0.264104D+00
                  0.413895D+01           0.500000D+00
                  0.184225D+01           0.319316D+00
            P    1   1.00
                  0.713862D+00           1.0000000
            P    1   1.00
                  0.274232D+00           1.0000000
            P    1   1.00
                  0.944411D-01           1.0000000
            D    7   1.00
                  0.398470D+03           0.204066D-02
                  0.118967D+03           0.175171D-01
                  0.450197D+02           0.829708D-01
                  0.190320D+02           0.236284D+00
                  0.855686D+01           0.428468D+00
                  0.382950D+01           0.500000D+00
                  0.166291D+01           0.349360D+00
            D    1   1.00
                  0.672953D+00           1.0000000
            D    1   1.00
                  0.252000D+00           1.0000000
            F    1   1.00
                  0.530000D+00           1.0000000
            ****
            -Si     0
            S    8   1.00
                  0.996133D+05           0.235546D-03
                  0.149311D+05           0.182707D-02
                  0.339820D+04           0.951425D-02
                  0.962140D+03           0.388172D-01
                  0.313430D+03           0.127328D+00
                  0.112683D+03           0.313522D+00
                  0.433372D+02           0.500000D+00
                  0.170029D+02           0.340347D+00
            S    3   1.00
                  0.884208D+02          -0.404451D-01
                  0.266756D+02          -0.178059D+00
                  0.479640D+01           0.500000D+00
            S    2   1.00
                  0.239385D+01           0.500000D+00
                  0.108333D+01           0.338016D+00
            S    1   1.00
                  0.252420D+00           1.0000000
            S    1   1.00
                  0.891210D-01           1.0000000
            P    7   1.00
                  0.709901D+03           0.123028D-02
                  0.168426D+03           0.101366D-01
                  0.539946D+02           0.511840D-01
                  0.198646D+02           0.169967D+00
                  0.801369D+01           0.370717D+00
                  0.331870D+01           0.500000D+00
                  0.136112D+01           0.344128D+00
            P    2   1.00
                  0.622158D+01          -0.166609D-01
                  0.503049D+00           0.500000D+00
            P    1   1.00
                  0.179848D+00           1.0000000
            P    1   1.00
                  0.591912D-01           1.0000000
            D    1   1.00
                  0.168000D+01           1.0000000
            D    1   1.00
                  0.380000D+00           1.0000000
            F    1   1.00
                  0.540000D+00           1.0000000
            ****
            -P     0
            S    8   1.00
                  0.116416D+06           0.230715D-03
                  0.174500D+05           0.178960D-02
                  0.397149D+04           0.932116D-02
                  0.112447D+04           0.380591D-01
                  0.366347D+03           0.125148D+00
                  0.131757D+03           0.310022D+00
                  0.506988D+02           0.500000D+00
                  0.199436D+02           0.347528D+00
            S    3   1.00
                  0.101878D+03          -0.446755D-01
                  0.308249D+02          -0.196376D+00
                  0.573688D+01           0.500000D+00
            S    2   1.00
                  0.296868D+01           0.500000D+00
                  0.135315D+01           0.355098D+00
            S    1   1.00
                  0.332196D+00           1.0000000
            S    1   1.00
                  0.116229D+00           1.0000000
            P    7   1.00
                  0.873928D+03           0.112375D-02
                  0.207298D+03           0.933330D-02
                  0.664628D+02           0.477213D-01
                  0.245665D+02           0.160733D+00
                  0.996820D+01           0.359760D+00
                  0.416536D+01           0.500000D+00
                  0.173022D+01           0.346593D+00
            P    2   1.00
                  0.772530D+01          -0.175718D-01
                  0.657252D+00           0.500000D+00
            P    1   1.00
                  0.239903D+00           1.0000000
            P    1   1.00
                  0.800988D-01           1.0000000
            D    1   1.00
                  0.189000D+01           1.0000000
            D    1   1.00
                  0.430000D+00           1.0000000
            F    1   1.00
                  0.600000D+00           1.0000000
            ****
            
 Initial command:
 /usr/local/apps/g16_b01_avx/g16/l1.exe "/wrk/irikura/Gau-878562.inp" -scrdir="/wrk/irikura/"
 Entering Link 1 = /usr/local/apps/g16_b01_avx/g16/l1.exe PID=    878564.
  
 Copyright (c) 1988-2017, Gaussian, Inc.  All Rights Reserved.
  
 This is part of the Gaussian(R) 16 program.  It is based on
 the Gaussian(R) 09 system (copyright 2009, Gaussian, Inc.),
 the Gaussian(R) 03 system (copyright 2003, Gaussian, Inc.),
 the Gaussian(R) 98 system (copyright 1998, Gaussian, Inc.),
 the Gaussian(R) 94 system (copyright 1995, Gaussian, Inc.),
 the Gaussian 92(TM) system (copyright 1992, Gaussian, Inc.),
 the Gaussian 90(TM) system (copyright 1990, Gaussian, Inc.),
 the Gaussian 88(TM) system (copyright 1988, Gaussian, Inc.),
 the Gaussian 86(TM) system (copyright 1986, Carnegie Mellon
 University), and the Gaussian 82(TM) system (copyright 1983,
 Carnegie Mellon University). Gaussian is a federally registered
 trademark of Gaussian, Inc.
  
 This software contains proprietary and confidential information,
 including trade secrets, belonging to Gaussian, Inc.
  
 This software is provided under written license and may be
 used, copied, transmitted, or stored only in accord with that
 written license.
  
 The following legend is applicable only to US Government
 contracts under FAR:
  
                    RESTRICTED RIGHTS LEGEND
  
 Use, reproduction and disclosure by the US Government is
 subject to restrictions as set forth in subparagraphs (a)
 and (c) of the Commercial Computer Software - Restricted
 Rights clause in FAR 52.227-19.
  
 Gaussian, Inc.
 340 Quinnipiac St., Bldg. 40, Wallingford CT 06492
  
  
 ---------------------------------------------------------------
 Warning -- This program may not be used in any manner that
 competes with the business of Gaussian, Inc. or will provide
 assistance to any competitor of Gaussian, Inc.  The licensee
 of this program is prohibited from giving any competitor of
 Gaussian, Inc. access to this program.  By using this program,
 the user acknowledges that Gaussian, Inc. is engaged in the
 business of creating and licensing software in the field of
 computational chemistry and represents and warrants to the
 licensee that it is not a competitor of Gaussian, Inc. and that
 it will not use this program in any manner prohibited above.
 ---------------------------------------------------------------
  

 Cite this work as:
 Gaussian 16, Revision B.01,
 M. J. Frisch, G. W. Trucks, H. B. Schlegel, G. E. Scuseria, 
 M. A. Robb, J. R. Cheeseman, G. Scalmani, V. Barone, 
 G. A. Petersson, H. Nakatsuji, X. Li, M. Caricato, A. V. Marenich, 
 J. Bloino, B. G. Janesko, R. Gomperts, B. Mennucci, H. P. Hratchian, 
 J. V. Ortiz, A. F. Izmaylov, J. L. Sonnenberg, D. Williams-Young, 
 F. Ding, F. Lipparini, F. Egidi, J. Goings, B. Peng, A. Petrone, 
 T. Henderson, D. Ranasinghe, V. G. Zakrzewski, J. Gao, N. Rega, 
 G. Zheng, W. Liang, M. Hada, M. Ehara, K. Toyota, R. Fukuda, 
 J. Hasegawa, M. Ishida, T. Nakajima, Y. Honda, O. Kitao, H. Nakai, 
 T. Vreven, K. Throssell, J. A. Montgomery, Jr., J. E. Peralta, 
 F. Ogliaro, M. J. Bearpark, J. J. Heyd, E. N. Brothers, K. N. Kudin, 
 V. N. Staroverov, T. A. Keith, R. Kobayashi, J. Normand, 
 K. Raghavachari, A. P. Rendell, J. C. Burant, S. S. Iyengar, 
 J. Tomasi, M. Cossi, J. M. Millam, M. Klene, C. Adamo, R. Cammi, 
 J. W. Ochterski, R. L. Martin, K. Morokuma, O. Farkas, 
 J. B. Foresman, and D. J. Fox, Gaussian, Inc., Wallingford CT, 2016.
 
 ******************************************
 Gaussian 16:  ES64L-G16RevB.01 20-Dec-2017
                 3-Oct-2023 
 ******************************************
 %chk=ch3o.chk
 %mem=500mw
 %nprocs=4
 Will use up to    4 processors via shared memory.
 -----------------------------------------------
 # b3lyp/gen opt freq CPHF(Grid=OneStep) scf=xqc
 -----------------------------------------------
 1/18=20,19=15,26=3,38=1/1,3;
 2/9=110,12=2,17=6,18=5,40=1/2;
 3/5=7,11=2,25=1,30=1,71=1,74=-5/1,2,3;
 4//1;
 5/5=2,8=3,13=1,38=5/2,8;
 6/7=2,8=2,9=2,10=2,28=1/1;
 7//1,2,3,16;
 1/18=20,19=15,26=3/3(2);
 2/9=110/2;
 99//99;
 2/9=110/2;
 3/5=7,6=1,11=2,25=1,30=1,71=1,74=-5,82=7/1,2,3;
 4/5=5,16=3,69=1/1;
 5/5=2,8=3,13=1,38=5/2,8;
 7//1,2,3,16;
 1/18=20,19=15,26=3/3(-5);
 2/9=110/2;
 6/7=2,8=2,9=2,10=2,19=2,28=1/1;
 99/9=1/99;
 -----------------------
 methoxyl, B3LYP/pcseg-2
 -----------------------
 Symbolic Z-matrix:
 Charge =  0 Multiplicity = 2
 O                    -0.01123   0.79123   0. 
 C                    -0.01123  -0.5735    0. 
 H                     1.05837  -0.86591   0. 
 H                    -0.45058  -1.01148   0.90909 
 H                    -0.45058  -1.01148  -0.90909 
 

 GradGradGradGradGradGradGradGradGradGradGradGradGradGradGradGradGradGrad
 Berny optimization.
 Initialization pass.
                           ----------------------------
                           !    Initial Parameters    !
                           ! (Angstroms and Degrees)  !
 --------------------------                            --------------------------
 ! Name  Definition              Value          Derivative Info.                !
 --------------------------------------------------------------------------------
 ! R1    R(1,2)                  1.3647         estimate D2E/DX2                !
 ! R2    R(2,3)                  1.1089         estimate D2E/DX2                !
 ! R3    R(2,4)                  1.1006         estimate D2E/DX2                !
 ! R4    R(2,5)                  1.1006         estimate D2E/DX2                !
 ! A1    A(1,2,3)              105.2902         estimate D2E/DX2                !
 ! A2    A(1,2,4)              113.4498         estimate D2E/DX2                !
 ! A3    A(1,2,5)              113.4498         estimate D2E/DX2                !
 ! A4    A(3,2,4)              106.2678         estimate D2E/DX2                !
 ! A5    A(3,2,5)              106.2678         estimate D2E/DX2                !
 ! A6    A(4,2,5)              111.3804         estimate D2E/DX2                !
 ! D1    D(3,2,5,4)            115.3166         estimate D2E/DX2                !
 --------------------------------------------------------------------------------
 Trust Radius=3.00D-01 FncErr=1.00D-07 GrdErr=1.00D-06 EigMax=2.50D+02 EigMin=1.00D-04
 Number of steps in this run=     21 maximum allowed number of steps=    100.
 GradGradGradGradGradGradGradGradGradGradGradGradGradGradGradGradGradGrad

                          Input orientation:                          
 ---------------------------------------------------------------------
 Center     Atomic      Atomic             Coordinates (Angstroms)
 Number     Number       Type             X           Y           Z
 ---------------------------------------------------------------------
      1          8           0       -0.011229    0.791233    0.000000
      2          6           0       -0.011229   -0.573500    0.000000
      3          1           0        1.058374   -0.865914    0.000000
      4          1           0       -0.450584   -1.011476    0.909090
      5          1           0       -0.450584   -1.011476   -0.909090
 ---------------------------------------------------------------------
                    Distance matrix (angstroms):
                    1          2          3          4          5
     1  O    0.000000
     2  C    1.364733   0.000000
     3  H    1.972356   1.108854   0.000000
     4  H    2.066213   1.100591   1.767650   0.000000
     5  H    2.066213   1.100591   1.767650   1.818180   0.000000
 Stoichiometry    CH3O(2)
 Framework group  CS[SG(CHO),X(H2)]
 Deg. of freedom     6
 Full point group                 CS      NOp   2
 Largest Abelian subgroup         CS      NOp   2
 Largest concise Abelian subgroup CS      NOp   2
                         Standard orientation:                         
 ---------------------------------------------------------------------
 Center     Atomic      Atomic             Coordinates (Angstroms)
 Number     Number       Type             X           Y           Z
 ---------------------------------------------------------------------
      1          8           0       -0.011229    0.791233   -0.000000
      2          6           0       -0.011229   -0.573500    0.000000
      3          1           0        1.058374   -0.865914    0.000000
      4          1           0       -0.450584   -1.011476    0.909090
      5          1           0       -0.450584   -1.011476   -0.909090
 ---------------------------------------------------------------------
 Rotational constants (GHZ):         157.6100995          27.9909693          27.7983107
 General basis read from cards:  (5D, 7F)
 There are    74 symmetry adapted cartesian basis functions of A'  symmetry.
 There are    41 symmetry adapted cartesian basis functions of A"  symmetry.
 There are    64 symmetry adapted basis functions of A'  symmetry.
 There are    38 symmetry adapted basis functions of A"  symmetry.
   102 basis functions,   156 primitive gaussians,   115 cartesian basis functions
     9 alpha electrons        8 beta electrons
       nuclear repulsion energy        34.3791013399 Hartrees.
 NAtoms=    5 NActive=    5 NUniq=    4 SFac= 1.56D+00 NAtFMM=   60 NAOKFM=F Big=F
 Integral buffers will be    131072 words long.
 Raffenetti 2 integral format.
 Two-electron integral symmetry is turned on.
 One-electron integrals computed using PRISM.
 NBasis=   102 RedAO= T EigKep=  1.86D-03  NBF=    64    38
 NBsUse=   102 1.00D-06 EigRej= -1.00D+00 NBFU=    64    38
 ExpMin= 7.42D-02 ExpMax= 1.36D+04 ExpMxC= 4.64D+02 IAcc=3 IRadAn=         5 AccDes= 0.00D+00
 Harris functional with IExCor=  402 and IRadAn=       5 diagonalized for initial guess.
 HarFok:  IExCor=  402 AccDes= 0.00D+00 IRadAn=         5 IDoV= 1 UseB2=F ITyADJ=14
 ICtDFT=  3500011 ScaDFX=  1.000000  1.000000  1.000000  1.000000
 FoFCou: FMM=F IPFlag=           0 FMFlag=      100000 FMFlg1=           0
         NFxFlg=           0 DoJE=T BraDBF=F KetDBF=T FulRan=T
         wScrn=  0.000000 ICntrl=       500 IOpCl=  0 I1Cent=   200000004 NGrid=           0
         NMat0=    1 NMatS0=      1 NMatT0=    0 NMatD0=    1 NMtDS0=    0 NMtDT0=    0
 Petite list used in FoFCou.
 Initial guess orbital symmetries:
 Alpha Orbitals:
       Occupied  (A') (A') (A') (A') (A") (A') (A') (A") (A')
       Virtual   (A') (A') (A') (A") (A') (A") (A') (A') (A') (A")
                 (A') (A') (A") (A') (A") (A') (A') (A") (A') (A")
                 (A') (A") (A') (A') (A') (A") (A") (A') (A') (A')
                 (A") (A') (A") (A') (A') (A') (A") (A') (A') (A')
                 (A") (A") (A') (A') (A") (A') (A') (A") (A') (A")
                 (A") (A') (A") (A') (A") (A') (A') (A") (A") (A')
                 (A') (A") (A') (A') (A') (A") (A') (A") (A") (A')
                 (A") (A') (A") (A') (A') (A') (A') (A") (A') (A')
                 (A") (A') (A") (A') (A') (A") (A') (A") (A") (A')
                 (A') (A") (A')
 Beta  Orbitals:
       Occupied  (A') (A') (A') (A') (A") (A') (A') (A")
       Virtual   (A') (A') (A') (A') (A") (A') (A") (A') (A') (A')
                 (A") (A') (A') (A") (A') (A") (A') (A') (A") (A')
                 (A") (A') (A") (A') (A') (A') (A") (A") (A') (A')
                 (A') (A") (A') (A") (A') (A') (A') (A") (A') (A')
                 (A') (A") (A") (A') (A') (A") (A') (A') (A") (A')
                 (A") (A") (A') (A") (A') (A") (A') (A') (A") (A")
                 (A') (A') (A") (A') (A') (A') (A") (A') (A") (A")
                 (A') (A") (A') (A") (A') (A') (A') (A') (A") (A')
                 (A') (A") (A') (A") (A') (A') (A") (A') (A") (A")
                 (A') (A') (A") (A')
 The electronic state of the initial guess is 2-A'.
 Initial guess <Sx>= 0.0000 <Sy>= 0.0000 <Sz>= 0.5000 <S**2>= 0.7500 S= 0.5000
 Keep R1 and R2 ints in memory in symmetry-blocked form, NReq=20829512.
 Requested convergence on RMS density matrix=1.00D-08 within  32 cycles.
 Requested convergence on MAX density matrix=1.00D-06.
 Requested convergence on             energy=1.00D-06.
 No special actions if energy rises.
 Integral accuracy reduced to 1.0D-05 until final iterations.
 Initial convergence to 1.0D-05 achieved.  Increase integral accuracy.
 SCF Done:  E(UB3LYP) =  -115.104856349     A.U. after   13 cycles
            NFock= 13  Conv=0.49D-08     -V/T= 2.0035
 <Sx>= 0.0000 <Sy>= 0.0000 <Sz>= 0.5000 <S**2>= 0.7537 S= 0.5018
 <L.S>=  0.00000000000    
 Annihilation of the first spin contaminant:
 S**2 before annihilation     0.7537,   after     0.7500
 QCSCF skips out because SCF is already converged.

 **********************************************************************

            Population analysis using the SCF Density.

 **********************************************************************

 Orbital symmetries:
 Alpha Orbitals:
       Occupied  (A') (A') (A') (A') (A') (A") (A') (A') (A")
       Virtual   (A') (A') (A") (A') (A') (A") (A') (A') (A') (A')
                 (A") (A') (A") (A') (A") (A') (A') (A') (A") (A")
                 (A') (A") (A') (A') (A') (A") (A") (A') (A') (A')
                 (A") (A') (A") (A') (A') (A') (A") (A') (A') (A')
                 (A") (A") (A') (A') (A') (A") (A') (A") (A') (A")
                 (A") (A') (A") (A") (A') (A') (A') (A") (A') (A")
                 (A') (A") (A') (A') (A') (A") (A') (A") (A") (A')
                 (A") (A') (A") (A') (A') (A') (A') (A") (A') (A')
                 (A") (A') (A") (A') (A') (A") (A') (A") (A") (A')
                 (A') (A") (A')
 Beta  Orbitals:
       Occupied  (A') (A') (A') (A') (A") (A') (A') (A")
       Virtual   (A') (A') (A') (A") (A') (A') (A") (A') (A') (A')
                 (A") (A') (A") (A') (A') (A") (A') (A') (A") (A')
                 (A") (A') (A") (A') (A') (A') (A") (A") (A') (A')
                 (A') (A") (A') (A") (A') (A') (A') (A") (A') (A')
                 (A') (A") (A") (A') (A') (A") (A') (A") (A') (A')
                 (A") (A") (A') (A") (A") (A') (A') (A') (A") (A")
                 (A') (A') (A") (A') (A') (A') (A") (A') (A") (A")
                 (A') (A") (A') (A") (A') (A') (A') (A') (A") (A')
                 (A') (A") (A') (A") (A') (A') (A") (A") (A') (A")
                 (A') (A") (A') (A')
 The electronic state is 2-A'.
 Alpha  occ. eigenvalues --  -19.17474 -10.23460  -1.03553  -0.68149  -0.49283
 Alpha  occ. eigenvalues --   -0.47091  -0.44609  -0.34009  -0.29753
 Alpha virt. eigenvalues --    0.01388   0.06539   0.07208   0.07475   0.15880
 Alpha virt. eigenvalues --    0.17977   0.29088   0.30593   0.31984   0.32389
 Alpha virt. eigenvalues --    0.32601   0.37894   0.40685   0.42290   0.66904
 Alpha virt. eigenvalues --    0.67517   0.72795   0.90752   0.91225   0.94470
 Alpha virt. eigenvalues --    0.99883   1.04153   1.04900   1.09786   1.13632
 Alpha virt. eigenvalues --    1.17841   1.34174   1.36890   1.40181   1.61598
 Alpha virt. eigenvalues --    1.64343   1.67368   1.68185   1.70881   1.90813
 Alpha virt. eigenvalues --    1.92508   1.96861   2.06132   2.27610   2.28406
 Alpha virt. eigenvalues --    2.36812   2.56308   2.58675   2.86945   3.21237
 Alpha virt. eigenvalues --    3.21574   3.25787   3.26263   3.37324   3.39468
 Alpha virt. eigenvalues --    3.66316   3.66915   3.80485   3.87204   3.88083
 Alpha virt. eigenvalues --    3.89846   3.91840   3.94439   3.95178   3.96722
 Alpha virt. eigenvalues --    4.01917   4.25149   4.30618   4.36152   4.39185
 Alpha virt. eigenvalues --    4.42517   4.50048   4.50695   4.58365   4.65316
 Alpha virt. eigenvalues --    4.68792   4.69494   4.94361   4.97356   5.05157
 Alpha virt. eigenvalues --    5.09034   5.45026   5.46607   5.55330   5.62557
 Alpha virt. eigenvalues --    5.67851   5.68698   5.70241   5.73575   5.88369
 Alpha virt. eigenvalues --    5.89400   6.03848   6.04201   6.11826   6.12240
 Alpha virt. eigenvalues --    6.56403   6.61454   6.69326
  Beta  occ. eigenvalues --  -19.15056 -10.23513  -0.98360  -0.66337  -0.46525
  Beta  occ. eigenvalues --   -0.44774  -0.42535  -0.27760
  Beta virt. eigenvalues --   -0.14947   0.01525   0.06883   0.07232   0.07894
  Beta virt. eigenvalues --    0.16419   0.18195   0.29725   0.31118   0.32250
  Beta virt. eigenvalues --    0.32689   0.33020   0.41241   0.41630   0.43367
  Beta virt. eigenvalues --    0.67103   0.68507   0.73915   0.91496   0.91520
  Beta virt. eigenvalues --    0.95052   1.00273   1.04437   1.05477   1.10993
  Beta virt. eigenvalues --    1.14886   1.18729   1.35746   1.39154   1.40712
  Beta virt. eigenvalues --    1.62381   1.64515   1.70590   1.70667   1.71302
  Beta virt. eigenvalues --    1.92360   1.96666   1.97575   2.07176   2.28064
  Beta virt. eigenvalues --    2.33844   2.37728   2.57163   2.62424   2.88946
  Beta virt. eigenvalues --    3.22083   3.22347   3.26768   3.26772   3.38990
  Beta virt. eigenvalues --    3.39767   3.67170   3.68194   3.81469   3.88608
  Beta virt. eigenvalues --    3.89319   3.91267   3.93552   3.96664   3.99869
  Beta virt. eigenvalues --    4.00218   4.03627   4.26549   4.32164   4.36799
  Beta virt. eigenvalues --    4.40828   4.43082   4.50635   4.51414   4.59508
  Beta virt. eigenvalues --    4.66666   4.70313   4.70400   4.94923   4.99109
  Beta virt. eigenvalues --    5.06433   5.10814   5.47352   5.47452   5.56902
  Beta virt. eigenvalues --    5.63324   5.68553   5.70292   5.70906   5.74414
  Beta virt. eigenvalues --    5.89191   5.90495   6.05039   6.05842   6.18012
  Beta virt. eigenvalues --    6.19684   6.62581   6.63327   6.72201
          Condensed to atoms (all electrons):
               1          2          3          4          5
     1  O    8.178372   0.257596  -0.026907  -0.053244  -0.053244
     2  C    0.257596   4.345486   0.389343   0.413772   0.413772
     3  H   -0.026907   0.389343   0.632694  -0.026232  -0.026232
     4  H   -0.053244   0.413772  -0.026232   0.696652  -0.063551
     5  H   -0.053244   0.413772  -0.026232  -0.063551   0.696652
          Atomic-Atomic Spin Densities.
               1          2          3          4          5
     1  O    0.976955  -0.048505  -0.033219  -0.002933  -0.002933
     2  C   -0.048505  -0.034977   0.026390   0.007226   0.007226
     3  H   -0.033219   0.026390   0.144624  -0.014834  -0.014834
     4  H   -0.002933   0.007226  -0.014834   0.023576   0.009540
     5  H   -0.002933   0.007226  -0.014834   0.009540   0.023576
 Mulliken charges and spin densities:
               1          2
     1  O   -0.302573   0.889364
     2  C    0.180031  -0.042641
     3  H    0.057333   0.108127
     4  H    0.032604   0.022575
     5  H    0.032604   0.022575
 Sum of Mulliken charges =   0.00000   1.00000
 Mulliken charges and spin densities with hydrogens summed into heavy atoms:
               1          2
     1  O   -0.302573   0.889364
     2  C    0.302573   0.110636
 Electronic spatial extent (au):  <R**2>=             74.7737
 Charge=              0.0000 electrons
 Dipole moment (field-independent basis, Debye):
    X=              0.2173    Y=             -2.1209    Z=              0.0000  Tot=              2.1320
 Quadrupole moment (field-independent basis, Debye-Ang):
   XX=            -11.7272   YY=            -13.7416   ZZ=            -12.8614
   XY=             -0.2321   XZ=             -0.0000   YZ=              0.0000
 Traceless Quadrupole moment (field-independent basis, Debye-Ang):
   XX=              1.0495   YY=             -0.9648   ZZ=             -0.0847
   XY=             -0.2321   XZ=             -0.0000   YZ=              0.0000
 Octapole moment (field-independent basis, Debye-Ang**2):
  XXX=              1.0321  YYY=              0.7282  ZZZ=              0.0000  XYY=              0.1446
  XXY=              0.5164  XXZ=             -0.0000  XZZ=             -0.5034  YZZ=             -0.2027
  YYZ=              0.0000  XYZ=              0.0000
 Hexadecapole moment (field-independent basis, Debye-Ang**3):
 XXXX=            -17.2783 YYYY=            -57.3705 ZZZZ=            -19.8908 XXXY=             -1.0964
 XXXZ=             -0.0000 YYYX=             -0.1947 YYYZ=             -0.0000 ZZZX=              0.0000
 ZZZY=              0.0000 XXYY=            -11.7883 XXZZ=             -6.3932 YYZZ=            -12.9136
 XXYZ=             -0.0000 YYXZ=             -0.0000 ZZXY=              0.5446
 N-N= 3.437910133993D+01 E-N=-3.390837684977D+02  KE= 1.147063983723D+02
 Symmetry A'   KE= 1.078645533786D+02
 Symmetry A"   KE= 6.841844993633D+00
 Symmetry A'   SP= 1.000000000000D+00
 Symmetry A"   SP= 6.258494783751D-15
                          Isotropic Fermi Contact Couplings
        Atom                 a.u.       MegaHertz       Gauss      10(-4) cm-1
     1  O(17)              0.20747    -125.76917     -44.87757     -41.95208
     2  C(13)             -0.03442     -38.69437     -13.80711     -12.90705
     3  H(1)               0.05844     261.20849      93.20568      87.12977
     4  H(1)               0.01120      50.05368      17.86040      16.69611
     5  H(1)               0.01120      50.05368      17.86040      16.69611
 --------------------------------------------------------
       Center         ----  Spin Dipole Couplings  ----
                      3XX-RR        3YY-RR        3ZZ-RR
 --------------------------------------------------------
     1   Atom        3.656769     -1.821297     -1.835472
     2   Atom        0.031074      0.022041     -0.053115
     3   Atom        0.009694      0.008339     -0.018033
     4   Atom       -0.011915      0.010359      0.001556
     5   Atom       -0.011915      0.010359      0.001556
 --------------------------------------------------------
                        XY            XZ            YZ
 --------------------------------------------------------
     1   Atom       -0.168228     -0.000000     -0.000000
     2   Atom        0.002354      0.000000     -0.000000
     3   Atom       -0.017711      0.000000      0.000000
     4   Atom        0.006531     -0.002554     -0.014630
     5   Atom        0.006531      0.002554      0.014630
 --------------------------------------------------------


 ---------------------------------------------------------------------------------
              Anisotropic Spin Dipole Couplings in Principal Axis System
 ---------------------------------------------------------------------------------

       Atom             a.u.   MegaHertz   Gauss  10(-4) cm-1        Axes

              Baa    -1.8355   132.813    47.391    44.302  0.0000  0.0000  1.0000
     1 O(17)  Bbb    -1.8265   132.161    47.158    44.084  0.0307  0.9995 -0.0000
              Bcc     3.6619  -264.975   -94.550   -88.386  0.9995 -0.0307 -0.0000
 
              Baa    -0.0531    -7.128    -2.543    -2.377  0.0000  0.0000  1.0000
     2 C(13)  Bbb     0.0215     2.880     1.028     0.961 -0.2379  0.9713 -0.0000
              Bcc     0.0317     4.247     1.516     1.417  0.9713  0.2379  0.0000
 
              Baa    -0.0180    -9.622    -3.433    -3.209  0.0000  0.0000  1.0000
     3 H(1)   Bbb    -0.0087    -4.646    -1.658    -1.550  0.6935  0.7205 -0.0000
              Bcc     0.0267    14.267     5.091     4.759  0.7205 -0.6935 -0.0000
 
              Baa    -0.0140    -7.444    -2.656    -2.483  0.9144 -0.3586 -0.1877
     4 H(1)   Bbb    -0.0086    -4.596    -1.640    -1.533  0.3558  0.4908  0.7953
              Bcc     0.0226    12.040     4.296     4.016  0.1931  0.7940 -0.5764
 
              Baa    -0.0140    -7.444    -2.656    -2.483  0.9144 -0.3586  0.1877
     5 H(1)   Bbb    -0.0086    -4.596    -1.640    -1.533 -0.3558 -0.4908  0.7953
              Bcc     0.0226    12.040     4.296     4.016  0.1931  0.7940  0.5764
 

 ---------------------------------------------------------------------------------

 Calling FoFJK, ICntrl=      2127 FMM=F ISym2X=1 I1Cent= 0 IOpClX= 1 NMat=1 NMatS=1 NMatT=0.
 ***** Axes restored to original set *****
 -------------------------------------------------------------------
 Center     Atomic                   Forces (Hartrees/Bohr)
 Number     Number              X              Y              Z
 -------------------------------------------------------------------
      1        8          -0.000179113   -0.001881018    0.000000000
      2        6          -0.000333736   -0.000564051    0.000000000
      3        1          -0.001120598    0.000293212   -0.000000000
      4        1           0.000816723    0.001075929   -0.001282094
      5        1           0.000816723    0.001075929    0.001282094
 -------------------------------------------------------------------
 Cartesian Forces:  Max     0.001881018 RMS     0.000904743

 GradGradGradGradGradGradGradGradGradGradGradGradGradGradGradGradGradGrad
 Berny optimization.
 FormGI is forming the generalized inverse of G from B-inverse, IUseBI=4.
 Internal  Forces:  Max     0.001881014 RMS     0.001046692
 Search for a local minimum.
 Step number   1 out of a maximum of   21
 All quantities printed in internal units (Hartrees-Bohrs-Radians)
 Mixed Optimization -- RFO/linear search
 Second derivative matrix not updated -- first step.
 The second derivative matrix:
                          R1        R2        R3        R4        A1
           R1           0.52002
           R2           0.00000   0.32722
           R3           0.00000   0.00000   0.33617
           R4           0.00000   0.00000   0.00000   0.33617
           A1           0.00000   0.00000   0.00000   0.00000   0.16000
           A2           0.00000   0.00000   0.00000   0.00000   0.00000
           A3           0.00000   0.00000   0.00000   0.00000   0.00000
           A4           0.00000   0.00000   0.00000   0.00000   0.00000
           A5           0.00000   0.00000   0.00000   0.00000   0.00000
           A6           0.00000   0.00000   0.00000   0.00000   0.00000
           D1           0.00000   0.00000   0.00000   0.00000   0.00000
                          A2        A3        A4        A5        A6
           A2           0.16000
           A3           0.00000   0.16000
           A4           0.00000   0.00000   0.16000
           A5           0.00000   0.00000   0.00000   0.16000
           A6           0.00000   0.00000   0.00000   0.00000   0.16000
           D1           0.00000   0.00000   0.00000   0.00000   0.00000
                          D1
           D1           0.00230
 ITU=  0
     Eigenvalues ---    0.07331   0.16000   0.16000   0.16000   0.16000
     Eigenvalues ---    0.32722   0.33617   0.33617   0.52002
 RFO step:  Lambda=-3.47035909D-05 EMin= 7.33121061D-02
 Linear search not attempted -- first point.
 Iteration  1 RMS(Cart)=  0.00316904 RMS(Int)=  0.00000558
 Iteration  2 RMS(Cart)=  0.00000482 RMS(Int)=  0.00000179
 Iteration  3 RMS(Cart)=  0.00000000 RMS(Int)=  0.00000179
 ClnCor:  largest displacement from symmetrization is 2.05D-05 for atom     5.
 Variable       Old X    -DE/DX   Delta X   Delta X   Delta X     New X
                                 (Linear)    (Quad)   (Total)
    R1        2.57897  -0.00188   0.00000  -0.00362  -0.00362   2.57535
    R2        2.09543  -0.00116   0.00000  -0.00354  -0.00354   2.09189
    R3        2.07982  -0.00181   0.00000  -0.00539  -0.00540   2.07442
    R4        2.07982  -0.00181   0.00000  -0.00539  -0.00540   2.07442
    A1        1.83766   0.00018   0.00000   0.00070   0.00070   1.83836
    A2        1.98007  -0.00033   0.00000  -0.00251  -0.00251   1.97757
    A3        1.98007  -0.00033   0.00000  -0.00251  -0.00251   1.97757
    A4        1.85472  -0.00009   0.00000   0.00048   0.00048   1.85520
    A5        1.85472   0.00003   0.00000   0.00050   0.00048   1.85520
    A6        1.94395   0.00055   0.00000   0.00358   0.00358   1.94753
    D1        2.01265   0.00020   0.00000   0.00267   0.00267   2.01533
         Item               Value     Threshold  Converged?
 Maximum Force            0.001881     0.000450     NO 
 RMS     Force            0.001047     0.000300     NO 
 Maximum Displacement     0.005635     0.001800     NO 
 RMS     Displacement     0.003171     0.001200     NO 
 Predicted change in Energy=-1.735336D-05
 GradGradGradGradGradGradGradGradGradGradGradGradGradGradGradGradGradGrad

                          Input orientation:                          
 ---------------------------------------------------------------------
 Center     Atomic      Atomic             Coordinates (Angstroms)
 Number     Number       Type             X           Y           Z
 ---------------------------------------------------------------------
      1          8           0       -0.012393    0.788251   -0.000000
      2          6           0       -0.011156   -0.574567    0.000000
      3          1           0        1.056702   -0.866265    0.000000
      4          1           0       -0.449198   -1.009277    0.907836
      5          1           0       -0.449198   -1.009277   -0.907836
 ---------------------------------------------------------------------
                    Distance matrix (angstroms):
                    1          2          3          4          5
     1  O    0.000000
     2  C    1.362819   0.000000
     3  H    1.969870   1.106981   0.000000
     4  H    2.060600   1.097734   1.764186   0.000000
     5  H    2.060600   1.097734   1.764186   1.815673   0.000000
 Stoichiometry    CH3O(2)
 Framework group  CS[SG(CHO),X(H2)]
 Deg. of freedom     6
 Full point group                 CS      NOp   2
 Largest Abelian subgroup         CS      NOp   2
 Largest concise Abelian subgroup CS      NOp   2
                         Standard orientation:                         
 ---------------------------------------------------------------------
 Center     Atomic      Atomic             Coordinates (Angstroms)
 Number     Number       Type             X           Y           Z
 ---------------------------------------------------------------------
      1          8           0       -0.011219    0.789804    0.000000
      2          6           0       -0.011219   -0.573015   -0.000000
      3          1           0        1.056373   -0.865682    0.000000
      4          1           0       -0.449655   -1.007327    0.907836
      5          1           0       -0.449655   -1.007327   -0.907836
 ---------------------------------------------------------------------
 Rotational constants (GHZ):         158.1315125          28.0913177          27.8951377
 Basis read from rwf:  (5D, 7F)
 There are    74 symmetry adapted cartesian basis functions of A'  symmetry.
 There are    41 symmetry adapted cartesian basis functions of A"  symmetry.
 There are    64 symmetry adapted basis functions of A'  symmetry.
 There are    38 symmetry adapted basis functions of A"  symmetry.
   102 basis functions,   156 primitive gaussians,   115 cartesian basis functions
     9 alpha electrons        8 beta electrons
       nuclear repulsion energy        34.4405483468 Hartrees.
 NAtoms=    5 NActive=    5 NUniq=    4 SFac= 1.56D+00 NAtFMM=   60 NAOKFM=F Big=F
 Integral buffers will be    131072 words long.
 Raffenetti 2 integral format.
 Two-electron integral symmetry is turned on.
 One-electron integrals computed using PRISM.
 NBasis=   102 RedAO= T EigKep=  1.85D-03  NBF=    64    38
 NBsUse=   102 1.00D-06 EigRej= -1.00D+00 NBFU=    64    38
 Initial guess from the checkpoint file:  "ch3o.chk"
 B after Tr=    -0.000000    0.000000   -0.000000
         Rot=    1.000000   -0.000000    0.000000    0.000145 Ang=   0.02 deg.
 Initial guess orbital symmetries:
 Alpha Orbitals:
       Occupied  (A') (A') (A') (A') (A') (A") (A') (A') (A")
       Virtual   (A') (A') (A") (A') (A') (A") (A') (A') (A') (A')
                 (A") (A') (A") (A') (A") (A') (A') (A') (A") (A")
                 (A') (A") (A') (A') (A') (A") (A") (A') (A') (A')
                 (A") (A') (A") (A') (A') (A') (A") (A') (A') (A')
                 (A") (A") (A') (A') (A') (A") (A') (A") (A') (A")
                 (A") (A') (A") (A") (A') (A') (A') (A") (A') (A")
                 (A') (A") (A') (A') (A') (A") (A') (A") (A") (A')
                 (A") (A') (A") (A') (A') (A') (A') (A") (A') (A')
                 (A") (A') (A") (A') (A') (A") (A') (A") (A") (A')
                 (A') (A") (A')
 Beta  Orbitals:
       Occupied  (A') (A') (A') (A') (A") (A') (A') (A")
       Virtual   (A') (A') (A') (A") (A') (A') (A") (A') (A') (A')
                 (A") (A') (A") (A') (A') (A") (A') (A') (A") (A')
                 (A") (A') (A") (A') (A') (A') (A") (A") (A') (A')
                 (A') (A") (A') (A") (A') (A') (A') (A") (A') (A')
                 (A') (A") (A") (A') (A') (A") (A') (A") (A') (A')
                 (A") (A") (A') (A") (A") (A') (A') (A') (A") (A")
                 (A') (A') (A") (A') (A') (A') (A") (A') (A") (A")
                 (A') (A") (A') (A") (A') (A') (A') (A') (A") (A')
                 (A') (A") (A') (A") (A') (A') (A") (A") (A') (A")
                 (A') (A") (A') (A')
 Initial guess <Sx>= 0.0000 <Sy>= 0.0000 <Sz>= 0.5000 <S**2>= 0.7537 S= 0.5018
 Keep R1 and R2 ints in memory in symmetry-blocked form, NReq=20829512.
 Requested convergence on RMS density matrix=1.00D-08 within  32 cycles.
 Requested convergence on MAX density matrix=1.00D-06.
 Requested convergence on             energy=1.00D-06.
 No special actions if energy rises.
 SCF Done:  E(UB3LYP) =  -115.104873872     A.U. after    9 cycles
            NFock=  9  Conv=0.28D-08     -V/T= 2.0033
 <Sx>= 0.0000 <Sy>= 0.0000 <Sz>= 0.5000 <S**2>= 0.7537 S= 0.5018
 <L.S>=  0.00000000000    
 Annihilation of the first spin contaminant:
 S**2 before annihilation     0.7537,   after     0.7500
 QCSCF skips out because SCF is already converged.
 Calling FoFJK, ICntrl=      2127 FMM=F ISym2X=1 I1Cent= 0 IOpClX= 1 NMat=1 NMatS=1 NMatT=0.
 ***** Axes restored to original set *****
 -------------------------------------------------------------------
 Center     Atomic                   Forces (Hartrees/Bohr)
 Number     Number              X              Y              Z
 -------------------------------------------------------------------
      1        8           0.000000807    0.000026489    0.000000000
      2        6          -0.000175783    0.000037596   -0.000000000
      3        1          -0.000005837   -0.000068697    0.000000000
      4        1           0.000090406    0.000002306    0.000010862
      5        1           0.000090406    0.000002306   -0.000010862
 -------------------------------------------------------------------
 Cartesian Forces:  Max     0.000175783 RMS     0.000060201

 GradGradGradGradGradGradGradGradGradGradGradGradGradGradGradGradGradGrad
 Berny optimization.
 Using GEDIIS/GDIIS optimizer.
 FormGI is forming the generalized inverse of G from B-inverse, IUseBI=4.
 Internal  Forces:  Max     0.000107359 RMS     0.000053019
 Search for a local minimum.
 Step number   2 out of a maximum of   21
 All quantities printed in internal units (Hartrees-Bohrs-Radians)
 Mixed Optimization -- En-DIIS/RFO-DIIS
 Update second derivatives using D2CorX and points    1    2
 DE= -1.75D-05 DEPred=-1.74D-05 R= 1.01D+00
 TightC=F SS=  1.41D+00  RLast= 1.08D-02 DXNew= 5.0454D-01 3.2503D-02
 Trust test= 1.01D+00 RLast= 1.08D-02 DXMaxT set to 3.00D-01
 The second derivative matrix:
                          R1        R2        R3        R4        A1
           R1           0.52373
           R2           0.00207   0.32836
           R3           0.00052   0.00012   0.33381
           R4           0.00052   0.00012  -0.00236   0.33381
           A1          -0.00335  -0.00205  -0.00296  -0.00296   0.16048
           A2          -0.00304  -0.00191  -0.00347  -0.00347  -0.00037
           A3          -0.00304  -0.00191  -0.00347  -0.00347  -0.00037
           A4           0.00589   0.00362   0.00564   0.00564  -0.00040
           A5          -0.00305  -0.00187  -0.00274  -0.00274   0.00040
           A6           0.00655   0.00408   0.00703   0.00703   0.00034
           D1          -0.01419  -0.00871  -0.01327  -0.01327   0.00128
                          A2        A3        A4        A5        A6
           A2           0.15867
           A3          -0.00133   0.15867
           A4           0.00119   0.00119   0.15986
           A5          -0.00039  -0.00039  -0.00029   0.16032
           A6           0.00228   0.00228  -0.00167   0.00040   0.15623
           D1          -0.00250  -0.00250  -0.00025   0.00098   0.00326
                          D1
           D1           0.00430
 ITU=  1  0
 Use linear search instead of GDIIS.
     Eigenvalues ---    0.07444   0.15487   0.16000   0.16000   0.16110
     Eigenvalues ---    0.32843   0.33236   0.33617   0.52398
 RFO step:  Lambda=-2.46250317D-07 EMin= 7.44394408D-02
 Quartic linear search produced a step of  0.00734.
 Iteration  1 RMS(Cart)=  0.00040892 RMS(Int)=  0.00000020
 Iteration  2 RMS(Cart)=  0.00000014 RMS(Int)=  0.00000011
 ClnCor:  largest displacement from symmetrization is 6.42D-06 for atom     5.
 Variable       Old X    -DE/DX   Delta X   Delta X   Delta X     New X
                                 (Linear)    (Quad)   (Total)
    R1        2.57535   0.00003  -0.00003   0.00005   0.00003   2.57538
    R2        2.09189   0.00001  -0.00003   0.00004   0.00001   2.09190
    R3        2.07442  -0.00003  -0.00004  -0.00008  -0.00012   2.07430
    R4        2.07442  -0.00003  -0.00004  -0.00008  -0.00012   2.07430
    A1        1.83836   0.00001   0.00001   0.00017   0.00018   1.83854
    A2        1.97757   0.00001  -0.00002   0.00021   0.00020   1.97776
    A3        1.97757   0.00001  -0.00002   0.00021   0.00020   1.97776
    A4        1.85520  -0.00006   0.00000  -0.00070  -0.00070   1.85451
    A5        1.85520  -0.00010   0.00000  -0.00071  -0.00070   1.85451
    A6        1.94753   0.00011   0.00003   0.00062   0.00065   1.94818
    D1        2.01533  -0.00007   0.00002  -0.00092  -0.00090   2.01443
         Item               Value     Threshold  Converged?
 Maximum Force            0.000107     0.000450     YES
 RMS     Force            0.000053     0.000300     YES
 Maximum Displacement     0.000641     0.001800     YES
 RMS     Displacement     0.000408     0.001200     YES
 Predicted change in Energy=-1.240705D-07
 Optimization completed.
    -- Stationary point found.
                           ----------------------------
                           !   Optimized Parameters   !
                           ! (Angstroms and Degrees)  !
 --------------------------                            --------------------------
 ! Name  Definition              Value          Derivative Info.                !
 --------------------------------------------------------------------------------
 ! R1    R(1,2)                  1.3628         -DE/DX =    0.0                 !
 ! R2    R(2,3)                  1.107          -DE/DX =    0.0                 !
 ! R3    R(2,4)                  1.0977         -DE/DX =    0.0                 !
 ! R4    R(2,5)                  1.0977         -DE/DX =    0.0                 !
 ! A1    A(1,2,3)              105.3303         -DE/DX =    0.0                 !
 ! A2    A(1,2,4)              113.3062         -DE/DX =    0.0                 !
 ! A3    A(1,2,5)              113.3062         -DE/DX =    0.0                 !
 ! A4    A(3,2,4)              106.2953         -DE/DX =   -0.0001              !
 ! A5    A(3,2,5)              106.2953         -DE/DX =   -0.0001              !
 ! A6    A(4,2,5)              111.5855         -DE/DX =    0.0001              !
 ! D1    D(3,2,5,4)            115.4698         -DE/DX =   -0.0001              !
 --------------------------------------------------------------------------------
 GradGradGradGradGradGradGradGradGradGradGradGradGradGradGradGradGradGrad

                          Input orientation:                          
 ---------------------------------------------------------------------
 Center     Atomic      Atomic             Coordinates (Angstroms)
 Number     Number       Type             X           Y           Z
 ---------------------------------------------------------------------
      1          8           0       -0.012393    0.788251   -0.000000
      2          6           0       -0.011156   -0.574567    0.000000
      3          1           0        1.056702   -0.866265    0.000000
      4          1           0       -0.449198   -1.009277    0.907836
      5          1           0       -0.449198   -1.009277   -0.907836
 ---------------------------------------------------------------------
                    Distance matrix (angstroms):
                    1          2          3          4          5
     1  O    0.000000
     2  C    1.362819   0.000000
     3  H    1.969870   1.106981   0.000000
     4  H    2.060600   1.097734   1.764186   0.000000
     5  H    2.060600   1.097734   1.764186   1.815673   0.000000
 Stoichiometry    CH3O(2)
 Framework group  CS[SG(CHO),X(H2)]
 Deg. of freedom     6
 Full point group                 CS      NOp   2
 Largest Abelian subgroup         CS      NOp   2
 Largest concise Abelian subgroup CS      NOp   2
                         Standard orientation:                         
 ---------------------------------------------------------------------
 Center     Atomic      Atomic             Coordinates (Angstroms)
 Number     Number       Type             X           Y           Z
 ---------------------------------------------------------------------
      1          8           0       -0.011219    0.789804    0.000000
      2          6           0       -0.011219   -0.573015   -0.000000
      3          1           0        1.056373   -0.865682   -0.000000
      4          1           0       -0.449655   -1.007327    0.907836
      5          1           0       -0.449655   -1.007327   -0.907836
 ---------------------------------------------------------------------
 Rotational constants (GHZ):         158.1315125          28.0913177          27.8951377

 **********************************************************************

            Population analysis using the SCF Density.

 **********************************************************************

 Orbital symmetries:
 Alpha Orbitals:
       Occupied  (A') (A') (A') (A') (A') (A") (A') (A') (A")
       Virtual   (A') (A') (A") (A') (A') (A") (A') (A') (A') (A')
                 (A") (A') (A") (A') (A") (A') (A') (A') (A") (A")
                 (A') (A") (A') (A') (A') (A") (A") (A') (A') (A')
                 (A") (A') (A") (A') (A') (A') (A") (A') (A') (A')
                 (A") (A") (A') (A') (A') (A") (A') (A") (A') (A")
                 (A") (A') (A") (A") (A') (A') (A') (A") (A') (A")
                 (A') (A") (A') (A') (A') (A") (A') (A") (A") (A')
                 (A") (A') (A") (A') (A') (A') (A') (A") (A') (A')
                 (A") (A') (A") (A') (A') (A") (A') (A") (A") (A')
                 (A') (A") (A')
 Beta  Orbitals:
       Occupied  (A') (A') (A') (A') (A") (A') (A') (A")
       Virtual   (A') (A') (A') (A") (A') (A') (A") (A') (A') (A')
                 (A") (A') (A") (A') (A') (A") (A') (A') (A") (A')
                 (A") (A') (A") (A') (A') (A') (A") (A") (A') (A')
                 (A') (A") (A') (A") (A') (A') (A') (A") (A') (A')
                 (A') (A") (A") (A') (A') (A") (A') (A') (A") (A')
                 (A") (A") (A') (A") (A") (A') (A') (A') (A") (A")
                 (A') (A') (A") (A') (A') (A') (A") (A') (A") (A")
                 (A') (A") (A') (A") (A') (A') (A') (A') (A") (A')
                 (A') (A") (A') (A") (A') (A') (A") (A") (A') (A")
                 (A') (A") (A') (A')
 The electronic state is 2-A'.
 Alpha  occ. eigenvalues --  -19.17429 -10.23369  -1.03610  -0.68188  -0.49337
 Alpha  occ. eigenvalues --   -0.47190  -0.44614  -0.33986  -0.29732
 Alpha virt. eigenvalues --    0.01410   0.06578   0.07225   0.07487   0.15880
 Alpha virt. eigenvalues --    0.17977   0.29104   0.30675   0.32068   0.32452
 Alpha virt. eigenvalues --    0.32703   0.37931   0.40695   0.42389   0.66970
 Alpha virt. eigenvalues --    0.67620   0.72783   0.90688   0.91132   0.94568
 Alpha virt. eigenvalues --    1.00066   1.04142   1.04928   1.09781   1.13557
 Alpha virt. eigenvalues --    1.17892   1.34373   1.36996   1.40164   1.61706
 Alpha virt. eigenvalues --    1.64570   1.67618   1.68497   1.71209   1.90833
 Alpha virt. eigenvalues --    1.92581   1.96926   2.06571   2.27478   2.28470
 Alpha virt. eigenvalues --    2.36958   2.56838   2.59039   2.86998   3.21582
 Alpha virt. eigenvalues --    3.21780   3.26005   3.26601   3.37552   3.39656
 Alpha virt. eigenvalues --    3.66307   3.66850   3.80532   3.87356   3.88264
 Alpha virt. eigenvalues --    3.89989   3.92106   3.94480   3.95194   3.96845
 Alpha virt. eigenvalues --    4.02272   4.25402   4.30824   4.36139   4.39604
 Alpha virt. eigenvalues --    4.42664   4.50204   4.50945   4.58692   4.65738
 Alpha virt. eigenvalues --    4.69266   4.70026   4.95193   4.97994   5.05900
 Alpha virt. eigenvalues --    5.09780   5.45832   5.47852   5.55260   5.63418
 Alpha virt. eigenvalues --    5.68384   5.68920   5.71142   5.74153   5.89245
 Alpha virt. eigenvalues --    5.90206   6.04671   6.05208   6.12301   6.12646
 Alpha virt. eigenvalues --    6.56714   6.61803   6.69614
  Beta  occ. eigenvalues --  -19.15012 -10.23422  -0.98429  -0.66367  -0.46625
  Beta  occ. eigenvalues --   -0.44825  -0.42540  -0.27738
  Beta virt. eigenvalues --   -0.14927   0.01546   0.06919   0.07249   0.07907
  Beta virt. eigenvalues --    0.16418   0.18195   0.29733   0.31203   0.32316
  Beta virt. eigenvalues --    0.32793   0.33103   0.41251   0.41707   0.43437
  Beta virt. eigenvalues --    0.67168   0.68611   0.73902   0.91406   0.91460
  Beta virt. eigenvalues --    0.95149   1.00457   1.04428   1.05502   1.10967
  Beta virt. eigenvalues --    1.14850   1.18798   1.35937   1.39154   1.40810
  Beta virt. eigenvalues --    1.62488   1.64755   1.70792   1.70959   1.71672
  Beta virt. eigenvalues --    1.92347   1.96777   1.97641   2.07611   2.27882
  Beta virt. eigenvalues --    2.33971   2.37880   2.57686   2.62774   2.89005
  Beta virt. eigenvalues --    3.22292   3.22685   3.26994   3.27112   3.39219
  Beta virt. eigenvalues --    3.39952   3.67165   3.68129   3.81523   3.88763
  Beta virt. eigenvalues --    3.89500   3.91425   3.93801   3.96799   3.99884
  Beta virt. eigenvalues --    4.00230   4.03991   4.26805   4.32368   4.36783
  Beta virt. eigenvalues --    4.41245   4.43232   4.50798   4.51651   4.59836
  Beta virt. eigenvalues --    4.67095   4.70801   4.70926   4.95760   4.99755
  Beta virt. eigenvalues --    5.07216   5.11537   5.48144   5.48702   5.56829
  Beta virt. eigenvalues --    5.64189   5.69168   5.70568   5.71752   5.74997
  Beta virt. eigenvalues --    5.90059   5.91337   6.06094   6.06766   6.18369
  Beta virt. eigenvalues --    6.19961   6.62925   6.63612   6.72482
          Condensed to atoms (all electrons):
               1          2          3          4          5
     1  O    8.179858   0.257690  -0.026946  -0.053662  -0.053662
     2  C    0.257690   4.340776   0.389558   0.414513   0.414513
     3  H   -0.026946   0.389558   0.633253  -0.026265  -0.026265
     4  H   -0.053662   0.414513  -0.026265   0.697159  -0.063577
     5  H   -0.053662   0.414513  -0.026265  -0.063577   0.697159
          Atomic-Atomic Spin Densities.
               1          2          3          4          5
     1  O    0.976756  -0.048657  -0.033335  -0.002996  -0.002996
     2  C   -0.048657  -0.034642   0.026345   0.007315   0.007315
     3  H   -0.033335   0.026345   0.145206  -0.014934  -0.014934
     4  H   -0.002996   0.007315  -0.014934   0.023642   0.009576
     5  H   -0.002996   0.007315  -0.014934   0.009576   0.023642
 Mulliken charges and spin densities:
               1          2
     1  O   -0.303276   0.888772
     2  C    0.182949  -0.042324
     3  H    0.056665   0.108348
     4  H    0.031831   0.022602
     5  H    0.031831   0.022602
 Sum of Mulliken charges =  -0.00000   1.00000
 Mulliken charges and spin densities with hydrogens summed into heavy atoms:
               1          2
     1  O   -0.303276   0.888772
     2  C    0.303276   0.111228
 Electronic spatial extent (au):  <R**2>=             74.5858
 Charge=             -0.0000 electrons
 Dipole moment (field-independent basis, Debye):
    X=              0.2174    Y=             -2.1206    Z=             -0.0000  Tot=              2.1318
 Quadrupole moment (field-independent basis, Debye-Ang):
   XX=            -11.7204   YY=            -13.7437   ZZ=            -12.8488
   XY=             -0.2343   XZ=              0.0000   YZ=              0.0000
 Traceless Quadrupole moment (field-independent basis, Debye-Ang):
   XX=              1.0506   YY=             -0.9727   ZZ=             -0.0779
   XY=             -0.2343   XZ=              0.0000   YZ=              0.0000
 Octapole moment (field-independent basis, Debye-Ang**2):
  XXX=              1.0241  YYY=              0.7152  ZZZ=             -0.0000  XYY=              0.1509
  XXY=              0.5118  XXZ=             -0.0000  XZZ=             -0.5016  YZZ=             -0.2050
  YYZ=             -0.0000  XYZ=             -0.0000
 Hexadecapole moment (field-independent basis, Debye-Ang**3):
 XXXX=            -17.2308 YYYY=            -57.1785 ZZZZ=            -19.8223 XXXY=             -1.0799
 XXXZ=             -0.0000 YYYX=             -0.1932 YYYZ=             -0.0000 ZZZX=             -0.0000
 ZZZY=              0.0000 XXYY=            -11.7516 XXZZ=             -6.3728 YYZZ=            -12.8806
 XXYZ=              0.0000 YYXZ=              0.0000 ZZXY=              0.5412
 N-N= 3.444054834682D+01 E-N=-3.392178246695D+02  KE= 1.147214373662D+02
 Symmetry A'   KE= 1.078741458392D+02
 Symmetry A"   KE= 6.847291527024D+00
 Symmetry A'   SP= 1.000000000000D+00
 Symmetry A"   SP=-9.562955599447D-15
                          Isotropic Fermi Contact Couplings
        Atom                 a.u.       MegaHertz       Gauss      10(-4) cm-1
     1  O(17)              0.20748    -125.77454     -44.87948     -41.95387
     2  C(13)             -0.03429     -38.54326     -13.75319     -12.85665
     3  H(1)               0.05865     262.14231      93.53889      87.44126
     4  H(1)               0.01127      50.36137      17.97019      16.79875
     5  H(1)               0.01127      50.36137      17.97019      16.79875
 --------------------------------------------------------
       Center         ----  Spin Dipole Couplings  ----
                      3XX-RR        3YY-RR        3ZZ-RR
 --------------------------------------------------------
     1   Atom        3.655557     -1.821047     -1.834509
     2   Atom        0.031443      0.022024     -0.053467
     3   Atom        0.009764      0.008344     -0.018108
     4   Atom       -0.012018      0.010374      0.001644
     5   Atom       -0.012018      0.010374      0.001644
 --------------------------------------------------------
                        XY            XZ            YZ
 --------------------------------------------------------
     1   Atom       -0.163787     -0.000000     -0.000000
     2   Atom        0.002400      0.000000      0.000000
     3   Atom       -0.017800     -0.000000      0.000000
     4   Atom        0.006583     -0.002580     -0.014725
     5   Atom        0.006583      0.002580      0.014725
 --------------------------------------------------------


 ---------------------------------------------------------------------------------
              Anisotropic Spin Dipole Couplings in Principal Axis System
 ---------------------------------------------------------------------------------

       Atom             a.u.   MegaHertz   Gauss  10(-4) cm-1        Axes

              Baa    -1.8345   132.744    47.366    44.279  0.0000  0.0000  1.0000
     1 O(17)  Bbb    -1.8259   132.124    47.145    44.072  0.0299  0.9996 -0.0000
              Bcc     3.6605  -264.868   -94.511   -88.350  0.9996 -0.0299 -0.0000
 
              Baa    -0.0535    -7.175    -2.560    -2.393 -0.0000 -0.0000  1.0000
     2 C(13)  Bbb     0.0214     2.878     1.027     0.960 -0.2335  0.9724  0.0000
              Bcc     0.0320     4.297     1.533     1.433  0.9724  0.2335  0.0000
 
              Baa    -0.0181    -9.661    -3.447    -3.223  0.0000  0.0000  1.0000
     3 H(1)   Bbb    -0.0088    -4.674    -1.668    -1.559  0.6929  0.7211 -0.0000
              Bcc     0.0269    14.336     5.115     4.782  0.7211 -0.6929 -0.0000
 
              Baa    -0.0141    -7.508    -2.679    -2.504  0.9151 -0.3581 -0.1853
     4 H(1)   Bbb    -0.0086    -4.610    -1.645    -1.538  0.3538  0.4931  0.7948
              Bcc     0.0227    12.117     4.324     4.042  0.1932  0.7929 -0.5779
 
              Baa    -0.0141    -7.508    -2.679    -2.504  0.9151 -0.3581  0.1853
     5 H(1)   Bbb    -0.0086    -4.610    -1.645    -1.538 -0.3538 -0.4931  0.7948
              Bcc     0.0227    12.117     4.324     4.042  0.1932  0.7929  0.5779
 

 ---------------------------------------------------------------------------------

 1\1\GINC-GAMBA\FOpt\UB3LYP\Gen\C1H3O1(2)\IRIKURA\03-Oct-2023\0\\# b3ly
 p/gen opt freq CPHF(Grid=OneStep) scf=xqc\\methoxyl, B3LYP/pcseg-2\\0,
 2\O,-0.0123926194,0.7882511654,0.\C,-0.011155557,-0.574567272,0.\H,1.0
 567015062,-0.8662652024,0.\H,-0.4491976365,-1.0092772095,0.9078364517\
 H,-0.4491976365,-1.0092772095,-0.9078364517\\Version=ES64L-G16RevB.01\
 State=2-A'\HF=-115.1048739\S2=0.753686\S2-1=0.\S2A=0.75001\RMSD=2.819e
 -09\RMSF=6.020e-05\Dipole=0.0862836,-0.8342466,0.\Quadrupole=0.7813888
 ,-0.7234985,-0.0578903,-0.1728449,0.,0.\PG=CS [SG(C1H1O1),X(H2)]\\@


 THE VALUE OF PHILOSOPHY IS, IN FACT, TO BE SOUGHT LARGELY IN ITS
 VERY UNCERTAINTY.  THE MAN WHO HAS NO TINCTURE OF PHILOSOPHY GOES
 THROUGH LIFE IMPRISONED IN THE PREJUDICES DERIVED FROM COMMON SENSE,
 FROM THE HABITUAL BELIEFS OF HIS AGE OR HIS NATION, AND FROM
 CONVICTIONS WHICH HAVE GROWN UP IN HIS MIND WITHOUT THE CO-OPERATION
 OR CONSENT OF HIS DELIBERATE REASON.  TO SUCH A MAN THE WORLD TENDS
 TO BE DEFINITE, FINITE, OBVIOUS; COMMON OBJECTS ROUSE NO QUESTIONS,
 AND UNFAMILIAR POSSIBILITIES ARE CONTEMPTUOUSLY REJECTED.

                             -- BERTRAND RUSSELL
 Job cpu time:       0 days  0 hours  0 minutes 47.2 seconds.
 Elapsed time:       0 days  0 hours  0 minutes 12.0 seconds.
 File lengths (MBytes):  RWF=     10 Int=      0 D2E=      0 Chk=      2 Scr=      1
 Normal termination of Gaussian 16 at Tue Oct  3 16:34:09 2023.
 Link1:  Proceeding to internal job step number  2.
 ------------------------------------------------------------------
 #N Geom=AllCheck Guess=TCheck SCRF=Check GenChk UB3LYP/ChkBas Freq
 ------------------------------------------------------------------
 1/10=4,29=7,30=1,38=1,40=1/1,3;
 2/12=2,40=1/2;
 3/5=7,6=2,11=2,14=-4,25=1,30=1,67=1,70=2,71=2,74=-5,82=7,116=2,140=1/1,2,3;
 4/5=101/1;
 5/5=2,8=3,13=1,38=6,98=1/2,8;
 8/6=4,10=90,11=11/1;
 11/6=1,8=1,9=11,15=111,16=1/1,2,10;
 10/6=1,60=-420/2;
 6/7=2,8=2,9=2,10=2,28=1/1;
 7/8=1,10=1,25=1/1,2,3,16;
 1/10=4,30=1/3;
 99//99;
 Structure from the checkpoint file:  "ch3o.chk"
 -----------------------
 methoxyl, B3LYP/pcseg-2
 -----------------------
 Charge =  0 Multiplicity = 2
 Redundant internal coordinates found in file.  (old form).
 O,0,-0.0123926194,0.7882511654,0.
 C,0,-0.011155557,-0.574567272,0.
 H,0,1.0567015062,-0.8662652024,0.
 H,0,-0.4491976365,-1.0092772095,0.9078364517
 H,0,-0.4491976365,-1.0092772095,-0.9078364517
 Recover connectivity data from disk.

 GradGradGradGradGradGradGradGradGradGradGradGradGradGradGradGradGradGrad
 Berny optimization.
 Initialization pass.
                           ----------------------------
                           !    Initial Parameters    !
                           ! (Angstroms and Degrees)  !
 --------------------------                            --------------------------
 ! Name  Definition              Value          Derivative Info.                !
 --------------------------------------------------------------------------------
 ! R1    R(1,2)                  1.3628         calculate D2E/DX2 analytically  !
 ! R2    R(2,3)                  1.107          calculate D2E/DX2 analytically  !
 ! R3    R(2,4)                  1.0977         calculate D2E/DX2 analytically  !
 ! R4    R(2,5)                  1.0977         calculate D2E/DX2 analytically  !
 ! A1    A(1,2,3)              105.3303         calculate D2E/DX2 analytically  !
 ! A2    A(1,2,4)              113.3062         calculate D2E/DX2 analytically  !
 ! A3    A(1,2,5)              113.3062         calculate D2E/DX2 analytically  !
 ! A4    A(3,2,4)              106.2953         calculate D2E/DX2 analytically  !
 ! A5    A(3,2,5)              106.2953         calculate D2E/DX2 analytically  !
 ! A6    A(4,2,5)              111.5855         calculate D2E/DX2 analytically  !
 ! D1    D(3,2,5,4)            115.4698         calculate D2E/DX2 analytically  !
 --------------------------------------------------------------------------------
 Trust Radius=3.00D-01 FncErr=1.00D-07 GrdErr=1.00D-07 EigMax=2.50D+02 EigMin=1.00D-04
 Number of steps in this run=      2 maximum allowed number of steps=      2.
 GradGradGradGradGradGradGradGradGradGradGradGradGradGradGradGradGradGrad

                          Input orientation:                          
 ---------------------------------------------------------------------
 Center     Atomic      Atomic             Coordinates (Angstroms)
 Number     Number       Type             X           Y           Z
 ---------------------------------------------------------------------
      1          8           0       -0.012393    0.788251   -0.000000
      2          6           0       -0.011156   -0.574567    0.000000
      3          1           0        1.056702   -0.866265    0.000000
      4          1           0       -0.449198   -1.009277    0.907836
      5          1           0       -0.449198   -1.009277   -0.907836
 ---------------------------------------------------------------------
                    Distance matrix (angstroms):
                    1          2          3          4          5
     1  O    0.000000
     2  C    1.362819   0.000000
     3  H    1.969870   1.106981   0.000000
     4  H    2.060600   1.097734   1.764186   0.000000
     5  H    2.060600   1.097734   1.764186   1.815673   0.000000
 Stoichiometry    CH3O(2)
 Framework group  CS[SG(CHO),X(H2)]
 Deg. of freedom     6
 Full point group                 CS      NOp   2
 Largest Abelian subgroup         CS      NOp   2
 Largest concise Abelian subgroup CS      NOp   2
                         Standard orientation:                         
 ---------------------------------------------------------------------
 Center     Atomic      Atomic             Coordinates (Angstroms)
 Number     Number       Type             X           Y           Z
 ---------------------------------------------------------------------
      1          8           0       -0.011219    0.789804   -0.000000
      2          6           0       -0.011219   -0.573015    0.000000
      3          1           0        1.056373   -0.865682    0.000000
      4          1           0       -0.449655   -1.007327    0.907836
      5          1           0       -0.449655   -1.007327   -0.907836
 ---------------------------------------------------------------------
 Rotational constants (GHZ):         158.1315125          28.0913177          27.8951377
 Basis read from chk: "ch3o.chk" (5D, 7F)
 There are    74 symmetry adapted cartesian basis functions of A'  symmetry.
 There are    41 symmetry adapted cartesian basis functions of A"  symmetry.
 There are    64 symmetry adapted basis functions of A'  symmetry.
 There are    38 symmetry adapted basis functions of A"  symmetry.
   102 basis functions,   156 primitive gaussians,   115 cartesian basis functions
     9 alpha electrons        8 beta electrons
       nuclear repulsion energy        34.4405483468 Hartrees.
 NAtoms=    5 NActive=    5 NUniq=    4 SFac= 1.56D+00 NAtFMM=   60 NAOKFM=F Big=F
 Integral buffers will be    131072 words long.
 Raffenetti 2 integral format.
 Two-electron integral symmetry is turned on.
 One-electron integrals computed using PRISM.
 NBasis=   102 RedAO= T EigKep=  1.85D-03  NBF=    64    38
 NBsUse=   102 1.00D-06 EigRej= -1.00D+00 NBFU=    64    38
 Initial guess from the checkpoint file:  "ch3o.chk"
 B after Tr=     0.000000   -0.000000    0.000000
         Rot=    1.000000    0.000000    0.000000   -0.000000 Ang=   0.00 deg.
 Initial guess orbital symmetries:
 Alpha Orbitals:
       Occupied  (A') (A') (A') (A') (A') (A") (A') (A') (A")
       Virtual   (A') (A') (A") (A') (A') (A") (A') (A') (A') (A')
                 (A") (A') (A") (A') (A") (A') (A') (A') (A") (A")
                 (A') (A") (A') (A') (A') (A") (A") (A') (A') (A')
                 (A") (A') (A") (A') (A') (A') (A") (A') (A') (A')
                 (A") (A") (A') (A') (A') (A") (A') (A") (A') (A")
                 (A") (A') (A") (A") (A') (A') (A') (A") (A') (A")
                 (A') (A") (A') (A') (A') (A") (A') (A") (A") (A')
                 (A") (A') (A") (A') (A') (A') (A') (A") (A') (A')
                 (A") (A') (A") (A') (A') (A") (A') (A") (A") (A')
                 (A') (A") (A')
 Beta  Orbitals:
       Occupied  (A') (A') (A') (A') (A") (A') (A') (A")
       Virtual   (A') (A') (A') (A") (A') (A') (A") (A') (A') (A')
                 (A") (A') (A") (A') (A') (A") (A') (A') (A") (A')
                 (A") (A') (A") (A') (A') (A') (A") (A") (A') (A')
                 (A') (A") (A') (A") (A') (A') (A') (A") (A') (A')
                 (A') (A") (A") (A') (A') (A") (A') (A') (A") (A')
                 (A") (A") (A') (A") (A") (A') (A') (A') (A") (A")
                 (A') (A') (A") (A') (A') (A') (A") (A') (A") (A")
                 (A') (A") (A') (A") (A') (A') (A') (A') (A") (A')
                 (A') (A") (A') (A") (A') (A') (A") (A") (A') (A")
                 (A') (A") (A') (A')
 Initial guess <Sx>= 0.0000 <Sy>= 0.0000 <Sz>= 0.5000 <S**2>= 0.7537 S= 0.5018
 Keep R1 and R2 ints in memory in symmetry-blocked form, NReq=20829512.
 Requested convergence on RMS density matrix=1.00D-08 within  32 cycles.
 Requested convergence on MAX density matrix=1.00D-06.
 Requested convergence on             energy=1.00D-06.
 No special actions if energy rises.
 SCF Done:  E(UB3LYP) =  -115.104873872     A.U. after    1 cycles
            NFock=  1  Conv=0.42D-09     -V/T= 2.0033
 <Sx>= 0.0000 <Sy>= 0.0000 <Sz>= 0.5000 <S**2>= 0.7537 S= 0.5018
 <L.S>=  0.00000000000    
 Annihilation of the first spin contaminant:
 S**2 before annihilation     0.7537,   after     0.7500
 QCSCF skips out because SCF is already converged.
 DoSCS=F DFT=T ScalE2(SS,OS)=  1.000000  1.000000
 Range of M.O.s used for correlation:     1   102
 NBasis=   102 NAE=     9 NBE=     8 NFC=     0 NFV=     0
 NROrb=    102 NOA=     9 NOB=     8 NVA=    93 NVB=    94

 **** Warning!!: The largest alpha MO coefficient is  0.10026157D+02


 **** Warning!!: The largest beta MO coefficient is  0.10331940D+02

 Symmetrizing basis deriv contribution to polar:
 IMax=3 JMax=2 DiffMx= 0.00D+00
 G2DrvN: will do     6 centers at a time, making    1 passes.
 Calling FoFCou, ICntrl=  3107 FMM=F I1Cent=   0 AccDes= 0.00D+00.
 End of G2Drv F.D. properties file   721 does not exist.
 End of G2Drv F.D. properties file   722 does not exist.
[...]
      1          8           0       -0.012393    0.788251   -0.000000
      2          6           0       -0.011156   -0.574567   -0.000000
      3          1           0        1.056702   -0.866265   -0.000000
      4          1           0       -0.449198   -1.009277    0.907836
      5          1           0       -0.449198   -1.009277   -0.907836
 ---------------------------------------------------------------------
                    Distance matrix (angstroms):
                    1          2          3          4          5
     1  O    0.000000
     2  C    1.362819   0.000000
     3  H    1.969870   1.106981   0.000000
     4  H    2.060600   1.097734   1.764186   0.000000
     5  H    2.060600   1.097734   1.764186   1.815673   0.000000
 Stoichiometry    CH3O(2)
 Framework group  CS[SG(CHO),X(H2)]
 Deg. of freedom     6
 Full point group                 CS      NOp   2
 Largest Abelian subgroup         CS      NOp   2
 Largest concise Abelian subgroup CS      NOp   2
                         Standard orientation:                         
 ---------------------------------------------------------------------
 Center     Atomic      Atomic             Coordinates (Angstroms)
 Number     Number       Type             X           Y           Z
 ---------------------------------------------------------------------
      1          8           0       -0.011219    0.789804   -0.000000
      2          6           0       -0.011219   -0.573015    0.000000
      3          1           0        1.056373   -0.865682    0.000000
      4          1           0       -0.449655   -1.007327    0.907836
      5          1           0       -0.449655   -1.007327   -0.907836
 ---------------------------------------------------------------------
 Rotational constants (GHZ):         158.1315125          28.0913177          27.8951377
 General basis read from cards:  (5D, 7F)
 There are   117 symmetry adapted cartesian basis functions of A'  symmetry.
 There are    64 symmetry adapted cartesian basis functions of A"  symmetry.
 There are   101 symmetry adapted basis functions of A'  symmetry.
 There are    59 symmetry adapted basis functions of A"  symmetry.
   160 basis functions,   219 primitive gaussians,   181 cartesian basis functions
     9 alpha electrons        8 beta electrons
       nuclear repulsion energy        34.4405483468 Hartrees.
 NAtoms=    5 NActive=    5 NUniq=    4 SFac= 1.56D+00 NAtFMM=   60 NAOKFM=F Big=F
 Integral buffers will be    131072 words long.
 Raffenetti 2 integral format.
 Two-electron integral symmetry is turned on.
 One-electron integrals computed using PRISM.
 NBasis=   160 RedAO= T EigKep=  1.00D-04  NBF=   101    59
 NBsUse=   160 1.00D-06 EigRej= -1.00D+00 NBFU=   101    59
 Initial guess from the checkpoint file:  "ch3o.chk"
 B after Tr=    -0.000000    0.000000    0.000000
         Rot=    1.000000   -0.000000   -0.000000   -0.000000 Ang=   0.00 deg.
 BiOrM2:  NumA=       9 NumB=       8.
 Eigenvalues of SAB:
  1.00000000  0.99999970  0.99998916  0.99997338  0.99980757
  0.99978665  0.99942276  0.99918038 -0.06867240
 BiOrM2:  NumA=       1 NumB=     152.
 Eigenvalues of SAB:
  1.00000000  0.00000000  0.00000000  0.00000000 -0.04965782
 -0.06217565  0.00000000  0.00000000  0.00000000  0.00091393
 -0.02958403  0.00000000  0.00000000  0.12705896  0.00000000
  0.00000000  0.12765900  0.00040088  0.00000000  0.00000000
  0.09981975  0.00000000  0.00000000  0.09723505 -0.00182347
  0.00000000  0.00000000  0.00000000  0.00000000  0.00000000
  0.00000000  0.00000000  0.00000000  0.00000000  0.00000000
  0.35396758  0.00000000  0.00000000  0.30130922  0.00000000
  0.00000000  0.04769631  0.00000000  0.00000000 -0.09351164
  0.00000000  0.00000000  0.02517222  0.00000000  0.00000000
  0.10950805  0.00000000 -0.24027281  0.06061836  0.00000000
  0.00000000  0.00000000 -0.17371785  0.05621893  0.00000000
  0.00000000  0.00000000  0.07017455 -0.02475185  0.00000000
  0.00000000  0.06676399  0.00000000  0.00000000  0.08633468
  0.02854567  0.00000000  0.00000000  0.02601467  0.00000000
  0.00000000  0.02357392  0.02911377  0.00000000  0.00000000
  0.00000000  0.00000000  0.00000000  0.00000000  0.00000000
  0.00000000  0.05399880  0.00000000  0.00000000  0.06115796
  0.00000000  0.00000000  0.09378672  0.00000000  0.25130285
  0.00773831  0.00000000  0.00000000 -0.06189602 -0.05153282
 -0.02823215  0.02540837  0.02581754 -0.03451442  0.00900366
  0.02307853 -0.06227077  0.03285828  0.04004464 -0.08671115
  0.05137949  0.11835300  0.04538129 -0.12304289 -0.07161522
  0.04673086  0.06189602  0.05153282  0.02823215 -0.02540837
 -0.02581754  0.03451442  0.00900366 -0.02307853  0.06227077
  0.03285828 -0.04004464  0.08671115  0.05137949 -0.11835300
  0.04538129 -0.12304289  0.07161522 -0.04673086  0.00000000
  0.00000000  0.00000000  0.00000000  0.00000000  0.00000000
  0.00000000  0.00000000 -0.11688289  0.00000000  0.00000000
 -0.08898372  0.00000000  0.00000000  0.00239984  0.00000000
  0.00000000  0.09446579
 BiOrM2:  NumA=     151 NumB=     151.
 Eigenvalues of SAB:
  1.00000000  1.00000000  1.00000000  1.00000000  1.00000000
  1.00000000  1.00000000  1.00000000  1.00000000  1.00000000
  1.00000000  1.00000000  1.00000000  1.00000000  1.00000000
  1.00000000  1.00000000  1.00000000  1.00000000  1.00000000
  1.00000000  1.00000000  1.00000000  1.00000000  1.00000000
  1.00000000  1.00000000  1.00000000  1.00000000  1.00000000
  1.00000000  1.00000000  1.00000000  1.00000000  1.00000000
  1.00000000  1.00000000  1.00000000  1.00000000  1.00000000
  1.00000000  1.00000000  1.00000000  1.00000000  1.00000000
  1.00000000  1.00000000  1.00000000  1.00000000  1.00000000
  1.00000000  1.00000000  1.00000000  1.00000000  1.00000000
  1.00000000  1.00000000  1.00000000  1.00000000  1.00000000
  1.00000000  1.00000000  1.00000000  1.00000000  1.00000000
  1.00000000  1.00000000  1.00000000  1.00000000  1.00000000
  1.00000000  1.00000000  1.00000000  1.00000000  1.00000000
  1.00000000  1.00000000  1.00000000  1.00000000  1.00000000
  1.00000000  1.00000000  1.00000000  1.00000000  1.00000000
  1.00000000  1.00000000  1.00000000  1.00000000  1.00000000
  1.00000000  1.00000000  1.00000000  1.00000000  1.00000000
  1.00000000  1.00000000  1.00000000  1.00000000  1.00000000
  1.00000000  1.00000000  1.00000000  1.00000000  1.00000000
  1.00000000  1.00000000  1.00000000  1.00000000  1.00000000
  1.00000000  1.00000000  1.00000000  1.00000000  1.00000000
  1.00000000  1.00000000  1.00000000  1.00000000  1.00000000
  1.00000000  1.00000000  1.00000000  1.00000000  1.00000000
  1.00000000  1.00000000  1.00000000  1.00000000  1.00000000
  1.00000000  1.00000000  1.00000000  1.00000000  1.00000000
  1.00000000  1.00000000  1.00000000  1.00000000  1.00000000
  1.00000000  1.00000000  1.00000000  1.00000000  0.99999970
  0.99998916  0.99997338  0.99980757  0.99978665  0.99942276
  0.99918038
 Initial guess orbital symmetries:
       Occupied  (A') (A') (A") (A') (A") (A') (A') (A') (A')
       Virtual   (A") (A") (A") (A") (A") (A") (A") (A") (A") (A")
                 (A") (A") (A") (A") (A") (A") (A") (A") (A") (A")
                 (A") (A") (A") (A") (A") (A") (A") (A") (A") (A")
                 (A") (A") (A") (A") (A") (A") (A") (A") (A") (A")
                 (A") (A") (A") (A") (A") (A") (A") (A") (A") (A")
                 (A") (A") (A") (A") (A") (A") (A") (A") (A") (A")
                 (A") (A") (A") (A") (A") (A") (A") (A") (A") (A")
                 (A") (A") (A") (A") (A") (A") (A") (A") (A") (A")
                 (A") (A") (A") (A") (A") (A") (A") (A") (A") (A")
                 (A") (A") (A") (A") (A") (A") (A") (A") (A") (A")
                 (A") (A") (A") (A") (A") (A") (A") (A") (A") (A")
                 (A") (A") (A") (A") (A") (A") (A") (A") (A") (A")
                 (A") (A") (A") (A") (A") (A") (A") (A") (A") (A")
                 (A") (A") (A") (A") (A") (A") (A") (A") (A") (A")
                 (A") (A") (A") (A') (A') (A") (A') (A") (A') (A')
                 (A')
 Keep R1 and R2 ints in memory in symmetry-blocked form, NReq=125163210.
 Requested convergence on RMS density matrix=1.00D-08 within 128 cycles.
 Requested convergence on MAX density matrix=1.00D-06.
 Requested convergence on             energy=1.00D-06.
 No special actions if energy rises.
 An orbital has undefined symmetry, so N**3 symmetry is turned off.
 SCF Done:  E(ROHF) =  -114.468666089     A.U. after   16 cycles
            NFock= 16  Conv=0.26D-08     -V/T= 2.0004
 <Sx>= 0.0000 <Sy>= 0.0000 <Sz>= 0.5000 <S**2>= 0.7500 S= 0.5000
 <L.S>=  0.00000000000    
 Annihilation of the first spin contaminant:
 S**2 before annihilation     0.7500,   after     0.7500

 **********************************************************************

            Population analysis using the SCF Density.

 **********************************************************************

 Orbital symmetries:
       Occupied  (A') (A') (A') (A') (A") (A') (A') (A") (A')
       Virtual   (A') (A') (A") (A') (A') (A') (A") (A') (A") (A')
                 (A') (A') (A') (A") (A") (A') (A') (A") (A') (A')
                 (A") (A') (A') (A') (A") (A') (A") (A') (A") (A')
                 (A") (A') (A') (A') (A") (A') (A') (A") (A') (A')
                 (A") (A') (A") (A") (A') (A') (A') (A") (A') (A")
                 (A") (A') (A") (A') (A') (A") (A') (A') (A') (A")
                 (A') (A") (A') (A") (A') (A") (A') (A") (A') (A')
                 (A') (A") (A') (A") (A') (A") (A') (A") (A') (A")
                 (A') (A") (A') (A') (A") (A') (A') (A") (A') (A')
                 (A") (A') (A') (A") (A') (A') (A") (A') (A') (A")
                 (A") (A') (A') (A") (A') (A') (A") (A') (A') (A")
                 (A") (A') (A") (A') (A') (A") (A') (A') (A') (A")
                 (A') (A") (A') (A") (A") (A') (A') (A") (A') (A')
                 (A") (A') (A') (A") (A') (A') (A") (A') (A") (A')
                 (A') (A") (A') (A') (A") (A') (A') (A') (A") (A')
                 (A')
 The electronic state is 2-A'.
 Alpha  occ. eigenvalues --  -20.59522 -11.28267  -1.32184  -0.90305  -0.64638
 Alpha  occ. eigenvalues --   -0.60866  -0.59204  -0.46052  -0.14374
 Alpha virt. eigenvalues --    0.05459   0.06999   0.07013   0.07267   0.16159
 Alpha virt. eigenvalues --    0.17947   0.18325   0.20681   0.21668   0.23683
 Alpha virt. eigenvalues --    0.27259   0.31588   0.34002   0.34441   0.46449
 Alpha virt. eigenvalues --    0.46523   0.48661   0.49543   0.50648   0.57140
 Alpha virt. eigenvalues --    0.60355   0.62103   0.69660   0.70648   0.70712
 Alpha virt. eigenvalues --    0.73452   0.76645   0.78610   0.80625   0.81481
 Alpha virt. eigenvalues --    0.96016   0.97780   0.98000   1.05747   1.06521
 Alpha virt. eigenvalues --    1.07147   1.14813   1.18812   1.20407   1.44975
 Alpha virt. eigenvalues --    1.47697   1.48171   1.49139   1.50438   1.51139
 Alpha virt. eigenvalues --    1.63720   1.72578   1.73886   1.73909   1.76090
 Alpha virt. eigenvalues --    1.78824   1.79366   1.83308   1.85185   1.89873
 Alpha virt. eigenvalues --    1.94325   1.94887   1.95143   1.96537   2.04493
 Alpha virt. eigenvalues --    2.05106   2.17730   2.17838   2.19214   2.23935
 Alpha virt. eigenvalues --    2.25688   2.26509   2.30337   2.31842   2.35590
 Alpha virt. eigenvalues --    2.43572   2.44247   2.46985   2.56478   2.67654
 Alpha virt. eigenvalues --    2.69433   2.75392   2.84792   2.91505   2.92903
 Alpha virt. eigenvalues --    2.98102   3.06226   3.08609   3.12215   3.13608
 Alpha virt. eigenvalues --    3.23263   3.36009   3.41312   3.47271   3.53375
 Alpha virt. eigenvalues --    3.64152   3.69140   3.85132   3.85464   3.88886
 Alpha virt. eigenvalues --    3.92516   3.92950   4.09749   4.22915   4.25627
 Alpha virt. eigenvalues --    4.85431   4.86948   4.89619   4.91186   5.08050
 Alpha virt. eigenvalues --    5.09924   5.13672   5.82273   5.93964   5.95090
 Alpha virt. eigenvalues --    5.97317   6.01250   6.04750   6.08074   6.10384
 Alpha virt. eigenvalues --    6.14094   6.23367   6.83307   6.90008   6.90086
 Alpha virt. eigenvalues --    7.00410   7.01770   7.13545   7.16073   7.23857
 Alpha virt. eigenvalues --    7.23913   7.88834   8.35657   8.37838   8.57322
 Alpha virt. eigenvalues --    8.62311   9.06310   9.31703   9.47825   9.53193
 Alpha virt. eigenvalues --   10.09502  10.12624  10.62601  11.16278  11.17596
 Alpha virt. eigenvalues --   11.51480  11.54564  12.21497  21.48313  21.53677
 Alpha virt. eigenvalues --   21.86183  22.82612  37.63287  37.67688  38.01521
 Alpha virt. eigenvalues --   42.55060
          Condensed to atoms (all electrons):
               1          2          3          4          5
     1  O    8.215960   0.169658  -0.031049  -0.042072  -0.042072
     2  C    0.169658   4.527616   0.415538   0.430328   0.430328
     3  H   -0.031049   0.415538   0.602486  -0.035635  -0.035635
     4  H   -0.042072   0.430328  -0.035635   0.627506  -0.059924
     5  H   -0.042072   0.430328  -0.035635  -0.059924   0.627506
          Atomic-Atomic Spin Densities.
               1          2          3          4          5
     1  O    0.984200  -0.015255  -0.021721  -0.002927  -0.002927
     2  C   -0.015255   0.016903   0.018004   0.001107   0.001107
     3  H   -0.021721   0.018004   0.043018  -0.006476  -0.006476
     4  H   -0.002927   0.001107  -0.006476   0.010170   0.003333
     5  H   -0.002927   0.001107  -0.006476   0.003333   0.010170
 Mulliken charges and spin densities:
               1          2
     1  O   -0.270424   0.941370
     2  C    0.026533   0.021867
     3  H    0.084296   0.026350
     4  H    0.079798   0.005207
     5  H    0.079798   0.005207
 Sum of Mulliken charges =  -0.00000   1.00000
 Mulliken charges and spin densities with hydrogens summed into heavy atoms:
               1          2
     1  O   -0.270424   0.941370
     2  C    0.270424   0.058630
 Electronic spatial extent (au):  <R**2>=             74.3832
 Charge=             -0.0000 electrons
 Dipole moment (field-independent basis, Debye):
    X=              0.1088    Y=             -1.8668    Z=             -0.0000  Tot=              1.8699
 Quadrupole moment (field-independent basis, Debye-Ang):
   XX=            -11.6748   YY=            -13.6980   ZZ=            -12.6675
   XY=             -0.1409   XZ=              0.0000   YZ=              0.0000
 Traceless Quadrupole moment (field-independent basis, Debye-Ang):
   XX=              1.0053   YY=             -1.0179   ZZ=              0.0126
   XY=             -0.1409   XZ=              0.0000   YZ=              0.0000
 Octapole moment (field-independent basis, Debye-Ang**2):
  XXX=              0.8184  YYY=              1.0429  ZZZ=              0.0000  XYY=              0.0385
  XXY=              0.8960  XXZ=              0.0000  XZZ=             -0.5502  YZZ=             -0.1041
  YYZ=             -0.0000  XYZ=             -0.0000
 Hexadecapole moment (field-independent basis, Debye-Ang**3):
 XXXX=            -16.6321 YYYY=            -56.0356 ZZZZ=            -18.6007 XXXY=             -0.9429
 XXXZ=             -0.0000 YYYX=             -0.0365 YYYZ=             -0.0000 ZZZX=              0.0000
 ZZZY=             -0.0000 XXYY=            -11.5391 XXZZ=             -6.0775 YYZZ=            -12.4523
 XXYZ=              0.0000 YYXZ=             -0.0000 ZZXY=              0.6345
 N-N= 3.444054834682D+01 E-N=-3.387264141463D+02  KE= 1.144215506590D+02
 Symmetry A'   KE= 1.076681593913D+02
 Symmetry A"   KE= 6.753391267679D+00
 Symmetry A'   SP= 1.000000000000D+00
 Symmetry A"   SP=-1.938146544655D-15
                          Isotropic Fermi Contact Couplings
        Atom                 a.u.       MegaHertz       Gauss      10(-4) cm-1
     1  O(17)              0.00005      -0.02945      -0.01051      -0.00982
     2  C(13)              0.00000       0.00022       0.00008       0.00007
     3  H(1)               0.01751      78.24848      27.92100      26.10088
     4  H(1)               0.00337      15.05904       5.37344       5.02316
     5  H(1)               0.00337      15.05904       5.37344       5.02316
 --------------------------------------------------------
       Center         ----  Spin Dipole Couplings  ----
                      3XX-RR        3YY-RR        3ZZ-RR
 --------------------------------------------------------
     1   Atom        3.789933     -1.888291     -1.901642
     2   Atom       -0.007196      0.065119     -0.057923
     3   Atom        0.002674      0.017296     -0.019971
     4   Atom       -0.012063      0.015233     -0.003169
     5   Atom       -0.012063      0.015233     -0.003169
 --------------------------------------------------------
                        XY            XZ            YZ
 --------------------------------------------------------
     1   Atom       -0.174489      0.000000      0.000000
     2   Atom       -0.003250      0.000000      0.000000
     3   Atom       -0.021463     -0.000000     -0.000000
     4   Atom        0.006671     -0.003962     -0.017078
     5   Atom        0.006671      0.003962      0.017078
 --------------------------------------------------------


 ---------------------------------------------------------------------------------
              Anisotropic Spin Dipole Couplings in Principal Axis System
 ---------------------------------------------------------------------------------

       Atom             a.u.   MegaHertz   Gauss  10(-4) cm-1        Axes

              Baa    -1.9016   137.601    49.100    45.899  0.0000  0.0000  1.0000
     1 O(17)  Bbb    -1.8936   137.023    48.893    45.706  0.0307  0.9995 -0.0000
              Bcc     3.7953  -274.625   -97.993   -91.605  0.9995 -0.0307 -0.0000
 
              Baa    -0.0579    -7.773    -2.773    -2.593 -0.0000 -0.0000  1.0000
     2 C(13)  Bbb    -0.0073    -0.985    -0.352    -0.329  0.9990  0.0448  0.0000
              Bcc     0.0653     8.758     3.125     2.921 -0.0448  0.9990  0.0000
 
              Baa    -0.0200   -10.655    -3.802    -3.554  0.0000  0.0000  1.0000
     3 H(1)   Bbb    -0.0127    -6.770    -2.416    -2.258  0.8132  0.5820 -0.0000
              Bcc     0.0327    17.426     6.218     5.813 -0.5820  0.8132  0.0000
 
              Baa    -0.0136    -7.260    -2.591    -2.422  0.9779 -0.2063  0.0336
     4 H(1)   Bbb    -0.0134    -7.132    -2.545    -2.379  0.0755  0.4982  0.8638
              Bcc     0.0270    14.391     5.135     4.800  0.1949  0.8421 -0.5028
 
              Baa    -0.0136    -7.260    -2.591    -2.422  0.9779 -0.2063 -0.0336
     5 H(1)   Bbb    -0.0134    -7.132    -2.545    -2.379 -0.0755 -0.4982  0.8638
              Bcc     0.0270    14.391     5.135     4.800  0.1949  0.8421  0.5028
 

 ---------------------------------------------------------------------------------

 1\1\GINC-GAMBA\SP\ROHF\Gen\C1H3O1(2)\IRIKURA\03-Oct-2023\0\\# rohf/gen
  geom=check guess=check\\methoxyl, ROHF/cc-pVTZ-F12\\0,2\O,0,-0.012392
 6194,0.7882511654,0.\C,0,-0.011155557,-0.574567272,0.\H,0,1.0567015062
 ,-0.8662652024,0.\H,0,-0.4491976365,-1.0092772095,0.9078364517\H,0,-0.
 4491976365,-1.0092772095,-0.9078364517\\Version=ES64L-G16RevB.01\State
 =2-A'\HF=-114.4686661\RMSD=2.587e-09\Dipole=0.043476,-0.734407,0.\Quad
 rupole=0.7476005,-0.7569554,0.0093549,-0.103361,0.,0.\PG=CS [SG(C1H1O1
 ),X(H2)]\\@


 IT PROBABLY IS NOT POSSIBLE FOR A SCIENTIST TO INTERROGATE NATURE 
 FROM A WHOLLY DISINTERESTED VIEWPOINT.
 EVEN IF HE HAS NO PARTICULAR AXE TO GRIND, HE IS LIKELY TO HAVE 
 A DISTINCTIVE WAY OF VIEWING NATURE.

                                                   -- JOHN LOSEE
 Job cpu time:       0 days  0 hours  0 minutes 22.9 seconds.
 Elapsed time:       0 days  0 hours  0 minutes  6.6 seconds.
 File lengths (MBytes):  RWF=     14 Int=      0 D2E=      0 Chk=      4 Scr=      1
 Normal termination of Gaussian 16 at Tue Oct  3 16:35:12 2023.
