 Entering Gaussian System, Link 0=g16
 AtFile(1): pcseg2.gbs
            -H     0
            S   4   1.00
                  0.754732D+02           0.427821D-02
                  0.113575D+02           0.328672D-01
                  0.260081D+01           0.159578D+00
                  0.735503D+00           0.500000D+00
            S   1   1.00
                  0.231761D+00           1.0000000
            S   1   1.00
                  0.741675D-01           1.0000000
            P   1   1.00
                  0.160000D+01           1.0000000
            P   1   1.00
                  0.450000D+00           1.0000000
            D   1   1.00
                  0.125000D+01           1.0000000
            ****
            -C     0
            S   7   1.00
                  0.731999D+04           0.695369D-03
                  0.109818D+04           0.537138D-02
                  0.250014D+03           0.274734D-01
                  0.707586D+02           0.105078D+00
                  0.228595D+02           0.291262D+00
                  0.803936D+01           0.500000D+00
                  0.289309D+01           0.362224D+00
            S   2   1.00
                  0.521640D+01          -0.957844D-01
                  0.556124D+00           0.500000D+00
            S   1   1.00
                  0.228813D+00           1.0000000
            S   1   1.00
                  0.936338D-01           1.0000000
            P   4   1.00
                  0.339855D+02           0.818395D-02
                  0.772957D+01           0.586921D-01
                  0.224954D+01           0.222514D+00
                  0.767681D+00           0.500000D+00
            P   1   1.00
                  0.263283D+00           1.0000000
            P   1   1.00
                  0.848744D-01           1.0000000
            D   1   1.00
                  0.140000D+01           1.0000000
            D   1   1.00
                  0.450000D+00           1.0000000
            F   1   1.00
                  0.950000D+00           1.0000000
            ****
            -O     0
            S   7   1.00
                  0.135887D+05           0.665492D-03
                  0.203847D+04           0.514222D-02
                  0.464041D+03           0.263472D-01
                  0.131339D+03           0.101500D+00
                  0.425340D+02           0.285877D+00
                  0.150429D+02           0.500000D+00
                  0.546616D+01           0.368211D+00
            S   2   1.00
                  0.100915D+02          -0.100084D+00
                  0.110429D+01           0.500000D+00
            S   1   1.00
                  0.448082D+00           1.0000000
            S   1   1.00
                  0.175325D+00           1.0000000
            P   4   1.00
                  0.608220D+02           0.908253D-02
                  0.140332D+02           0.645878D-01
                  0.418244D+01           0.241502D+00
                  0.142490D+01           0.500000D+00
            P   1   1.00
                  0.478741D+00           1.0000000
            P   1   1.00
                  0.146257D+00           1.0000000
            D   1   1.00
                  0.220000D+01           1.0000000
            D   1   1.00
                  0.650000D+00           1.0000000
            F   1   1.00
                  0.110000D+01           1.0000000
            ****
            -N     0
            S   7   1.00
                  0.101643D+05           0.682757D-03
                  0.152481D+04           0.527488D-02
                  0.347119D+03           0.270037D-01
                  0.982389D+02           0.103673D+00
                  0.317799D+02           0.289575D+00
                  0.112240D+02           0.500000D+00
                  0.406611D+01           0.364621D+00
            S   2   1.00
                  0.747898D+01          -0.975681D-01
                  0.805040D+00           0.500000D+00
            S   1   1.00
                  0.324626D+00           1.0000000
            S   1   1.00
                  0.128132D+00           1.0000000
            P   4   1.00
                  0.482704D+02           0.829547D-02
                  0.110815D+02           0.596223D-01
                  0.326643D+01           0.227889D+00
                  0.111680D+01           0.500000D+00
            P   1   1.00
                  0.382049D+00           1.0000000
            P   1   1.00
                  0.121222D+00           1.0000000
            D   1   1.00
                  0.180000D+01           1.0000000
            D   1   1.00
                  0.550000D+00           1.0000000
            F   1   1.00
                  0.102000D+01           1.0000000
            ****
            -F     0
            S   7   1.00
                  0.174507D+05           0.655972D-03
                  0.261768D+04           0.506944D-02
                  0.595857D+03           0.259899D-01
                  0.168651D+03           0.100353D+00
                  0.546654D+02           0.284095D+00
                  0.193717D+02           0.500000D+00
                  0.706202D+01           0.370721D+00
            S   2   1.00
                  0.131197D+02          -0.101997D+00
                  0.145046D+01           0.500000D+00
            S   1   1.00
                  0.588255D+00           1.0000000
            S   1   1.00
                  0.227960D+00           1.0000000
            P   4   1.00
                  0.779407D+02           0.931135D-02
                  0.180425D+02           0.663964D-01
                  0.542342D+01           0.246386D+00
                  0.184876D+01           0.500000D+00
            P   1   1.00
                  0.617455D+00           1.0000000
            P   1   1.00
                  0.185496D+00           1.0000000
            D   1   1.00
                  0.280000D+01           1.0000000
            D   1   1.00
                  0.800000D+00           1.0000000
            F   1   1.00
                  0.120000D+01           1.0000000
            ****
            -Cl     0
            S   8   1.00
                  0.154272D+06           0.222473D-03
                  0.231232D+05           0.172590D-02
                  0.526257D+04           0.899286D-02
                  0.148995D+04           0.367724D-01
                  0.485417D+03           0.121446D+00
                  0.174634D+03           0.304148D+00
                  0.672393D+02           0.500000D+00
                  0.265780D+02           0.360252D+00
            S   3   1.00
                  0.131826D+03          -0.531330D-01
                  0.400703D+02          -0.233346D+00
                  0.789448D+01           0.500000D+00
            S   2   1.00
                  0.427711D+01           0.500000D+00
                  0.196233D+01           0.370517D+00
            S   1   1.00
                  0.520793D+00           1.0000000
            S   1   1.00
                  0.181633D+00           1.0000000
            P   7   1.00
                  0.124440D+04           0.988206D-03
                  0.295109D+03           0.829674D-02
                  0.947224D+02           0.430906D-01
                  0.352588D+02           0.148443D+00
                  0.144211D+02           0.344744D+00
                  0.610371D+01           0.500000D+00
                  0.258886D+01           0.348278D+00
            P   2   1.00
                  0.109447D+02          -0.196768D-01
                  0.104413D+01           0.500000D+00
            P   1   1.00
                  0.376184D+00           1.0000000
            P   1   1.00
                  0.120613D+00           1.0000000
            D   1   1.00
                  0.231000D+01           1.0000000
            D   1   1.00
                  0.520000D+00           1.0000000
            F   1   1.00
                  0.720000D+00           1.0000000
            ****
            -S     0
            S   8   1.00
                  0.134700D+06           0.226231D-03
                  0.201904D+05           0.175488D-02
                  0.459528D+04           0.914190D-02
                  0.130109D+04           0.373551D-01
                  0.423902D+03           0.123121D+00
                  0.152485D+03           0.306801D+00
                  0.586925D+02           0.500000D+00
                  0.231461D+02           0.354358D+00
            S   3   1.00
                  0.116327D+03          -0.491772D-01
                  0.352841D+02          -0.215962D+00
                  0.677831D+01           0.500000D+00
            S   2   1.00
                  0.360404D+01           0.500000D+00
                  0.164871D+01           0.366278D+00
            S   1   1.00
                  0.421821D+00           1.0000000
            S   1   1.00
                  0.147554D+00           1.0000000
            P   7   1.00
                  0.104863D+04           0.105273D-02
                  0.248717D+03           0.879338D-02
                  0.797887D+02           0.453358D-01
                  0.296023D+02           0.154476D+00
                  0.120627D+02           0.352366D+00
                  0.507628D+01           0.500000D+00
                  0.213375D+01           0.346429D+00
            P   2   1.00
                  0.928958D+01          -0.185932D-01
                  0.837819D+00           0.500000D+00
            P   1   1.00
                  0.301495D+00           1.0000000
            P   1   1.00
                  0.974740D-01           1.0000000
            D   1   1.00
                  0.210000D+01           1.0000000
            D   1   1.00
                  0.480000D+00           1.0000000
            F   1   1.00
                  0.660000D+00           1.0000000
            ****
            -Si     0
            S    8   1.00
                  0.996133D+05           0.235546D-03
                  0.149311D+05           0.182707D-02
                  0.339820D+04           0.951425D-02
                  0.962140D+03           0.388172D-01
                  0.313430D+03           0.127328D+00
                  0.112683D+03           0.313522D+00
                  0.433372D+02           0.500000D+00
                  0.170029D+02           0.340347D+00
            S    3   1.00
                  0.884208D+02          -0.404451D-01
                  0.266756D+02          -0.178059D+00
                  0.479640D+01           0.500000D+00
            S    2   1.00
                  0.239385D+01           0.500000D+00
                  0.108333D+01           0.338016D+00
            S    1   1.00
                  0.252420D+00           1.0000000
            S    1   1.00
                  0.891210D-01           1.0000000
            P    7   1.00
                  0.709901D+03           0.123028D-02
                  0.168426D+03           0.101366D-01
                  0.539946D+02           0.511840D-01
                  0.198646D+02           0.169967D+00
                  0.801369D+01           0.370717D+00
                  0.331870D+01           0.500000D+00
                  0.136112D+01           0.344128D+00
            P    2   1.00
                  0.622158D+01          -0.166609D-01
                  0.503049D+00           0.500000D+00
            P    1   1.00
                  0.179848D+00           1.0000000
            P    1   1.00
                  0.591912D-01           1.0000000
            D    1   1.00
                  0.168000D+01           1.0000000
            D    1   1.00
                  0.380000D+00           1.0000000
            F    1   1.00
                  0.540000D+00           1.0000000
            ****
            -P     0
            S    8   1.00
                  0.116416D+06           0.230715D-03
                  0.174500D+05           0.178960D-02
                  0.397149D+04           0.932116D-02
                  0.112447D+04           0.380591D-01
                  0.366347D+03           0.125148D+00
                  0.131757D+03           0.310022D+00
                  0.506988D+02           0.500000D+00
                  0.199436D+02           0.347528D+00
            S    3   1.00
                  0.101878D+03          -0.446755D-01
                  0.308249D+02          -0.196376D+00
                  0.573688D+01           0.500000D+00
            S    2   1.00
                  0.296868D+01           0.500000D+00
                  0.135315D+01           0.355098D+00
            S    1   1.00
                  0.332196D+00           1.0000000
            S    1   1.00
                  0.116229D+00           1.0000000
            P    7   1.00
                  0.873928D+03           0.112375D-02
                  0.207298D+03           0.933330D-02
                  0.664628D+02           0.477213D-01
                  0.245665D+02           0.160733D+00
                  0.996820D+01           0.359760D+00
                  0.416536D+01           0.500000D+00
                  0.173022D+01           0.346593D+00
            P    2   1.00
                  0.772530D+01          -0.175718D-01
                  0.657252D+00           0.500000D+00
            P    1   1.00
                  0.239903D+00           1.0000000
            P    1   1.00
                  0.800988D-01           1.0000000
            D    1   1.00
                  0.189000D+01           1.0000000
            D    1   1.00
                  0.430000D+00           1.0000000
            F    1   1.00
                  0.600000D+00           1.0000000
            ****
            
 Initial command:
 /usr/local/apps/g16_b01_avx/g16/l1.exe "/wrk/irikura/Gau-23334.inp" -scrdir="/wrk/irikura/"
 Entering Link 1 = /usr/local/apps/g16_b01_avx/g16/l1.exe PID=     23336.
  
 Copyright (c) 1988-2017, Gaussian, Inc.  All Rights Reserved.
  
 This is part of the Gaussian(R) 16 program.  It is based on
 the Gaussian(R) 09 system (copyright 2009, Gaussian, Inc.),
 the Gaussian(R) 03 system (copyright 2003, Gaussian, Inc.),
 the Gaussian(R) 98 system (copyright 1998, Gaussian, Inc.),
 the Gaussian(R) 94 system (copyright 1995, Gaussian, Inc.),
 the Gaussian 92(TM) system (copyright 1992, Gaussian, Inc.),
 the Gaussian 90(TM) system (copyright 1990, Gaussian, Inc.),
 the Gaussian 88(TM) system (copyright 1988, Gaussian, Inc.),
 the Gaussian 86(TM) system (copyright 1986, Carnegie Mellon
 University), and the Gaussian 82(TM) system (copyright 1983,
 Carnegie Mellon University). Gaussian is a federally registered
 trademark of Gaussian, Inc.
  
 This software contains proprietary and confidential information,
 including trade secrets, belonging to Gaussian, Inc.
  
 This software is provided under written license and may be
 used, copied, transmitted, or stored only in accord with that
 written license.
  
 The following legend is applicable only to US Government
 contracts under FAR:
  
                    RESTRICTED RIGHTS LEGEND
  
 Use, reproduction and disclosure by the US Government is
 subject to restrictions as set forth in subparagraphs (a)
 and (c) of the Commercial Computer Software - Restricted
 Rights clause in FAR 52.227-19.
  
 Gaussian, Inc.
 340 Quinnipiac St., Bldg. 40, Wallingford CT 06492
  
  
 ---------------------------------------------------------------
 Warning -- This program may not be used in any manner that
 competes with the business of Gaussian, Inc. or will provide
 assistance to any competitor of Gaussian, Inc.  The licensee
 of this program is prohibited from giving any competitor of
 Gaussian, Inc. access to this program.  By using this program,
 the user acknowledges that Gaussian, Inc. is engaged in the
 business of creating and licensing software in the field of
 computational chemistry and represents and warrants to the
 licensee that it is not a competitor of Gaussian, Inc. and that
 it will not use this program in any manner prohibited above.
 ---------------------------------------------------------------
  

 Cite this work as:
 Gaussian 16, Revision B.01,
 M. J. Frisch, G. W. Trucks, H. B. Schlegel, G. E. Scuseria, 
 M. A. Robb, J. R. Cheeseman, G. Scalmani, V. Barone, 
 G. A. Petersson, H. Nakatsuji, X. Li, M. Caricato, A. V. Marenich, 
 J. Bloino, B. G. Janesko, R. Gomperts, B. Mennucci, H. P. Hratchian, 
 J. V. Ortiz, A. F. Izmaylov, J. L. Sonnenberg, D. Williams-Young, 
 F. Ding, F. Lipparini, F. Egidi, J. Goings, B. Peng, A. Petrone, 
 T. Henderson, D. Ranasinghe, V. G. Zakrzewski, J. Gao, N. Rega, 
 G. Zheng, W. Liang, M. Hada, M. Ehara, K. Toyota, R. Fukuda, 
 J. Hasegawa, M. Ishida, T. Nakajima, Y. Honda, O. Kitao, H. Nakai, 
 T. Vreven, K. Throssell, J. A. Montgomery, Jr., J. E. Peralta, 
 F. Ogliaro, M. J. Bearpark, J. J. Heyd, E. N. Brothers, K. N. Kudin, 
 V. N. Staroverov, T. A. Keith, R. Kobayashi, J. Normand, 
 K. Raghavachari, A. P. Rendell, J. C. Burant, S. S. Iyengar, 
 J. Tomasi, M. Cossi, J. M. Millam, M. Klene, C. Adamo, R. Cammi, 
 J. W. Ochterski, R. L. Martin, K. Morokuma, O. Farkas, 
 J. B. Foresman, and D. J. Fox, Gaussian, Inc., Wallingford CT, 2016.
 
 ******************************************
 Gaussian 16:  ES64L-G16RevB.01 20-Dec-2017
                25-Feb-2022 
 ******************************************
 %mem=500mw
 %nprocs=4
 Will use up to    4 processors via shared memory.
 --------------------
 # b3lyp/gen opt freq
 --------------------
 1/18=20,19=15,26=3,38=1/1,3;
 2/9=110,12=2,17=6,18=5,40=1/2;
 3/5=7,11=2,25=1,30=1,71=1,74=-5/1,2,3;
 4//1;
 5/5=2,38=5/2;
 6/7=2,8=2,9=2,10=2,28=1/1;
 7//1,2,3,16;
 1/18=20,19=15,26=3/3(2);
 2/9=110/2;
 99//99;
 2/9=110/2;
 3/5=7,6=1,11=2,25=1,30=1,71=1,74=-5,82=7/1,2,3;
 4/5=5,16=3,69=1/1;
 5/5=2,38=5/2;
 7//1,2,3,16;
 1/18=20,19=15,26=3/3(-5);
 2/9=110/2;
 6/7=2,8=2,9=2,10=2,19=2,28=1/1;
 99/9=1/99;
 ---------------------------
 methanethiol, B3LYP/pcseg-2
 ---------------------------
 Symbolic Z-matrix:
 Charge =  0 Multiplicity = 1
 C                    -0.04802   1.16452   0. 
 S                    -0.04802  -0.67117   0. 
 H                     1.29063  -0.83458   0. 
 H                    -1.0953    1.46572   0. 
 H                     0.43055   1.56024   0.89463 
 H                     0.43055   1.56024  -0.89463 
 

 GradGradGradGradGradGradGradGradGradGradGradGradGradGradGradGradGradGrad
 Berny optimization.
 Initialization pass.
                           ----------------------------
                           !    Initial Parameters    !
                           ! (Angstroms and Degrees)  !
 --------------------------                            --------------------------
 ! Name  Definition              Value          Derivative Info.                !
 --------------------------------------------------------------------------------
 ! R1    R(1,2)                  1.8357         estimate D2E/DX2                !
 ! R2    R(1,4)                  1.0897         estimate D2E/DX2                !
 ! R3    R(1,5)                  1.089          estimate D2E/DX2                !
 ! R4    R(1,6)                  1.089          estimate D2E/DX2                !
 ! R5    R(2,3)                  1.3486         estimate D2E/DX2                !
 ! A1    A(2,1,4)              106.0453         estimate D2E/DX2                !
 ! A2    A(2,1,5)              111.3071         estimate D2E/DX2                !
 ! A3    A(2,1,6)              111.3071         estimate D2E/DX2                !
 ! A4    A(4,1,5)              108.7775         estimate D2E/DX2                !
 ! A5    A(4,1,6)              108.7775         estimate D2E/DX2                !
 ! A6    A(5,1,6)              110.4691         estimate D2E/DX2                !
 ! A7    A(1,2,3)               96.9596         estimate D2E/DX2                !
 ! D1    D(4,1,2,3)            180.0            estimate D2E/DX2                !
 ! D2    D(5,1,2,3)            -61.8561         estimate D2E/DX2                !
 ! D3    D(6,1,2,3)             61.8561         estimate D2E/DX2                !
 --------------------------------------------------------------------------------
 Trust Radius=3.00D-01 FncErr=1.00D-07 GrdErr=1.00D-06 EigMax=2.50D+02 EigMin=1.00D-04
 Number of steps in this run=     25 maximum allowed number of steps=    100.
 GradGradGradGradGradGradGradGradGradGradGradGradGradGradGradGradGradGrad

                          Input orientation:                          
 ---------------------------------------------------------------------
 Center     Atomic      Atomic             Coordinates (Angstroms)
 Number     Number       Type             X           Y           Z
 ---------------------------------------------------------------------
      1          6           0       -0.048019    1.164523    0.000000
      2         16           0       -0.048019   -0.671172    0.000000
      3          1           0        1.290626   -0.834580    0.000000
      4          1           0       -1.095302    1.465722    0.000000
      5          1           0        0.430549    1.560239    0.894626
      6          1           0        0.430549    1.560239   -0.894626
 ---------------------------------------------------------------------
                    Distance matrix (angstroms):
                    1          2          3          4          5
     1  C    0.000000
     2  S    1.835695   0.000000
     3  H    2.405906   1.348582   0.000000
     4  H    1.089735   2.379731   3.314218   0.000000
     5  H    1.089024   2.451240   2.697266   1.771302   0.000000
     6  H    1.089024   2.451240   2.697266   1.771302   1.789252
                    6
     6  H    0.000000
 Stoichiometry    CH4S
 Framework group  CS[SG(CH2S),X(H2)]
 Deg. of freedom     8
 Full point group                 CS      NOp   2
 Largest Abelian subgroup         CS      NOp   2
 Largest concise Abelian subgroup CS      NOp   2
                         Standard orientation:                         
 ---------------------------------------------------------------------
 Center     Atomic      Atomic             Coordinates (Angstroms)
 Number     Number       Type             X           Y           Z
 ---------------------------------------------------------------------
      1          6           0       -0.048019    1.164523    0.000000
      2         16           0       -0.048019   -0.671172    0.000000
      3          1           0        1.290626   -0.834580    0.000000
      4          1           0       -1.095302    1.465722    0.000000
      5          1           0        0.430549    1.560239    0.894626
      6          1           0        0.430549    1.560239   -0.894626
 ---------------------------------------------------------------------
 Rotational constants (GHZ):         102.7115378          12.6947098          12.1766032
 General basis read from cards:  (5D, 7F)
 There are    88 symmetry adapted cartesian basis functions of A'  symmetry.
 There are    46 symmetry adapted cartesian basis functions of A"  symmetry.
 There are    77 symmetry adapted basis functions of A'  symmetry.
 There are    43 symmetry adapted basis functions of A"  symmetry.
   120 basis functions,   193 primitive gaussians,   134 cartesian basis functions
    13 alpha electrons       13 beta electrons
       nuclear repulsion energy        55.9280542963 Hartrees.
 NAtoms=    6 NActive=    6 NUniq=    5 SFac= 1.44D+00 NAtFMM=   60 NAOKFM=F Big=F
 Integral buffers will be    131072 words long.
 Raffenetti 2 integral format.
 Two-electron integral symmetry is turned on.
 One-electron integrals computed using PRISM.
 NBasis=   120 RedAO= T EigKep=  2.06D-03  NBF=    77    43
 NBsUse=   120 1.00D-06 EigRej= -1.00D+00 NBFU=    77    43
 ExpMin= 7.42D-02 ExpMax= 1.35D+05 ExpMxC= 1.30D+03 IAcc=3 IRadAn=         5 AccDes= 0.00D+00
 Harris functional with IExCor=  402 and IRadAn=       5 diagonalized for initial guess.
 HarFok:  IExCor=  402 AccDes= 0.00D+00 IRadAn=         5 IDoV= 1 UseB2=F ITyADJ=14
 ICtDFT=  3500011 ScaDFX=  1.000000  1.000000  1.000000  1.000000
 FoFCou: FMM=F IPFlag=           0 FMFlag=      100000 FMFlg1=           0
         NFxFlg=           0 DoJE=T BraDBF=F KetDBF=T FulRan=T
         wScrn=  0.000000 ICntrl=       500 IOpCl=  0 I1Cent=   200000004 NGrid=           0
         NMat0=    1 NMatS0=      1 NMatT0=    0 NMatD0=    1 NMtDS0=    0 NMtDT0=    0
 Petite list used in FoFCou.
 Initial guess orbital symmetries:
       Occupied  (A') (A') (A') (A') (A') (A") (A') (A') (A') (A")
                 (A') (A') (A")
       Virtual   (A') (A') (A') (A') (A") (A') (A') (A') (A") (A')
                 (A") (A") (A') (A') (A') (A') (A") (A') (A") (A')
                 (A') (A') (A") (A') (A') (A") (A") (A') (A") (A')
                 (A") (A') (A') (A') (A") (A') (A') (A") (A') (A')
                 (A") (A') (A') (A") (A') (A') (A") (A') (A') (A")
                 (A') (A") (A') (A') (A') (A") (A') (A') (A") (A")
                 (A') (A") (A') (A") (A") (A') (A') (A") (A') (A")
                 (A') (A") (A') (A') (A") (A") (A') (A') (A") (A')
                 (A') (A') (A") (A') (A") (A') (A") (A") (A') (A")
                 (A') (A') (A') (A') (A") (A') (A') (A') (A") (A')
                 (A") (A') (A') (A") (A") (A') (A')
 The electronic state of the initial guess is 1-A'.
 Keep R1 ints in memory in symmetry-blocked form, NReq=39656760.
 Requested convergence on RMS density matrix=1.00D-08 within 128 cycles.
 Requested convergence on MAX density matrix=1.00D-06.
 Requested convergence on             energy=1.00D-06.
 No special actions if energy rises.
 Integral accuracy reduced to 1.0D-05 until final iterations.
 Initial convergence to 1.0D-05 achieved.  Increase integral accuracy.
 SCF Done:  E(RB3LYP) =  -438.761088877     A.U. after   11 cycles
            NFock= 11  Conv=0.32D-08     -V/T= 2.0013

 **********************************************************************

            Population analysis using the SCF Density.

 **********************************************************************

 Orbital symmetries:
       Occupied  (A') (A') (A') (A') (A') (A") (A') (A') (A') (A")
                 (A') (A') (A")
       Virtual   (A') (A') (A') (A') (A") (A') (A') (A") (A') (A')
                 (A") (A') (A") (A') (A') (A') (A') (A") (A") (A')
                 (A') (A') (A") (A') (A') (A") (A") (A") (A') (A')
                 (A") (A') (A') (A') (A") (A') (A') (A") (A') (A')
                 (A") (A') (A') (A") (A') (A') (A") (A') (A") (A')
                 (A') (A") (A') (A') (A') (A") (A') (A') (A") (A")
                 (A') (A") (A') (A") (A") (A') (A') (A') (A") (A")
                 (A") (A') (A') (A') (A") (A") (A') (A") (A') (A')
                 (A') (A') (A") (A') (A") (A') (A") (A") (A") (A')
                 (A') (A') (A') (A') (A') (A") (A') (A') (A") (A')
                 (A") (A') (A') (A") (A") (A') (A')
 The electronic state is 1-A'.
 Alpha  occ. eigenvalues --  -88.83681 -10.20306  -7.92963  -5.89282  -5.88946
 Alpha  occ. eigenvalues --   -5.88332  -0.77925  -0.64882  -0.45235  -0.43458
 Alpha  occ. eigenvalues --   -0.39462  -0.33691  -0.24249
 Alpha virt. eigenvalues --   -0.00591   0.02543   0.05634   0.06938   0.07011
 Alpha virt. eigenvalues --    0.14411   0.15827   0.17526   0.18043   0.24375
 Alpha virt. eigenvalues --    0.27503   0.32810   0.33439   0.33487   0.36788
 Alpha virt. eigenvalues --    0.41575   0.45855   0.45931   0.50350   0.58643
 Alpha virt. eigenvalues --    0.71152   0.74873   0.75668   0.85961   0.89134
 Alpha virt. eigenvalues --    0.93068   0.94913   0.97437   1.00603   1.03165
 Alpha virt. eigenvalues --    1.05930   1.06395   1.14752   1.20400   1.29198
 Alpha virt. eigenvalues --    1.39029   1.44855   1.49418   1.52383   1.58312
 Alpha virt. eigenvalues --    1.65371   1.65778   1.77740   1.81933   1.85649
 Alpha virt. eigenvalues --    1.89839   1.96141   2.02856   2.07496   2.08802
 Alpha virt. eigenvalues --    2.14823   2.17895   2.27701   2.30487   2.42527
 Alpha virt. eigenvalues --    2.50364   2.55675   3.19110   3.26825   3.27245
 Alpha virt. eigenvalues --    3.27273   3.33577   3.34543   3.43485   3.59913
 Alpha virt. eigenvalues --    3.60084   3.73303   3.78020   3.78283   3.82356
 Alpha virt. eigenvalues --    3.86068   3.87908   3.95431   3.99494   4.03201
 Alpha virt. eigenvalues --    4.15323   4.15791   4.16773   4.21182   4.25472
 Alpha virt. eigenvalues --    4.40738   4.43056   4.47670   4.49690   4.51053
 Alpha virt. eigenvalues --    4.53060   4.59031   4.63066   4.68611   4.68688
 Alpha virt. eigenvalues --    4.70343   4.84618   4.94669   5.06882   5.15813
 Alpha virt. eigenvalues --    5.15872   5.41936   5.60587   5.66789   5.67186
 Alpha virt. eigenvalues --    5.78293   5.79746   5.83571   5.84095   6.10060
 Alpha virt. eigenvalues --    6.10535  25.44800
          Condensed to atoms (all electrons):
               1          2          3          4          5          6
     1  C    4.633267   0.255568  -0.032279   0.405731   0.426224   0.426224
     2  S    0.255568  15.620299   0.344091  -0.026580  -0.042817  -0.042817
     3  H   -0.032279   0.344091   0.642964   0.006633  -0.006514  -0.006514
     4  H    0.405731  -0.026580   0.006633   0.614835  -0.023773  -0.023773
     5  H    0.426224  -0.042817  -0.006514  -0.023773   0.614039  -0.029127
     6  H    0.426224  -0.042817  -0.006514  -0.023773  -0.029127   0.614039
 Mulliken charges:
               1
     1  C   -0.114736
     2  S   -0.107745
     3  H    0.051618
     4  H    0.046927
     5  H    0.061968
     6  H    0.061968
 Sum of Mulliken charges =  -0.00000
 Mulliken charges with hydrogens summed into heavy atoms:
               1
     1  C    0.056127
     2  S   -0.056127
 Electronic spatial extent (au):  <R**2>=            146.3309
 Charge=             -0.0000 electrons
 Dipole moment (field-independent basis, Debye):
    X=              0.7668    Y=              1.4132    Z=              0.0000  Tot=              1.6078
 Quadrupole moment (field-independent basis, Debye-Ang):
   XX=            -19.3641   YY=            -20.5381   ZZ=            -22.6906
   XY=             -1.2727   XZ=              0.0000   YZ=             -0.0000
 Traceless Quadrupole moment (field-independent basis, Debye-Ang):
   XX=              1.5002   YY=              0.3261   ZZ=             -1.8263
   XY=             -1.2727   XZ=              0.0000   YZ=             -0.0000
 Octapole moment (field-independent basis, Debye-Ang**2):
  XXX=              0.7965  YYY=             -0.1679  ZZZ=              0.0000  XYY=              1.3465
  XXY=             -0.1934  XXZ=             -0.0000  XZZ=              0.9340  YZZ=              2.5355
  YYZ=             -0.0000  XYZ=              0.0000
 Hexadecapole moment (field-independent basis, Debye-Ang**3):
 XXXX=            -35.8051 YYYY=           -138.4948 ZZZZ=            -37.5668 XXXY=             -0.6499
 XXXZ=              0.0000 YYYX=              0.6772 YYYZ=             -0.0000 ZZZX=             -0.0000
 ZZZY=              0.0000 XXYY=            -28.2349 XXZZ=            -12.9572 YYZZ=            -29.6820
 XXYZ=              0.0000 YYXZ=              0.0000 ZZXY=              1.6180
 N-N= 5.592805429629D+01 E-N=-1.152951039906D+03  KE= 4.381696827426D+02
 Symmetry A'   KE= 3.972546113302D+02
 Symmetry A"   KE= 4.091507141240D+01
 Calling FoFJK, ICntrl=      2127 FMM=F ISym2X=1 I1Cent= 0 IOpClX= 0 NMat=1 NMatS=1 NMatT=0.
 ***** Axes restored to original set *****
 -------------------------------------------------------------------
 Center     Atomic                   Forces (Hartrees/Bohr)
 Number     Number              X              Y              Z
 -------------------------------------------------------------------
      1        6          -0.000513430   -0.001459694    0.000000000
      2       16           0.002902497    0.003202598   -0.000000000
      3        1          -0.002761646    0.000248417    0.000000000
      4        1           0.001404489   -0.000541421   -0.000000000
      5        1          -0.000515955   -0.000724950   -0.001292256
      6        1          -0.000515955   -0.000724950    0.001292256
 -------------------------------------------------------------------
 Cartesian Forces:  Max     0.003202598 RMS     0.001413289

 GradGradGradGradGradGradGradGradGradGradGradGradGradGradGradGradGradGrad
 Berny optimization.
 FormGI is forming the generalized inverse of G from B-inverse, IUseBI=4.
 Internal  Forces:  Max     0.003451179 RMS     0.001340555
 Search for a local minimum.
 Step number   1 out of a maximum of   25
 All quantities printed in internal units (Hartrees-Bohrs-Radians)
 Mixed Optimization -- RFO/linear search
 Second derivative matrix not updated -- first step.
 The second derivative matrix:
                          R1        R2        R3        R4        R5
           R1           0.23495
           R2           0.00000   0.34843
           R3           0.00000   0.00000   0.34926
           R4           0.00000   0.00000   0.00000   0.34926
           R5           0.00000   0.00000   0.00000   0.00000   0.25747
           A1           0.00000   0.00000   0.00000   0.00000   0.00000
           A2           0.00000   0.00000   0.00000   0.00000   0.00000
           A3           0.00000   0.00000   0.00000   0.00000   0.00000
           A4           0.00000   0.00000   0.00000   0.00000   0.00000
           A5           0.00000   0.00000   0.00000   0.00000   0.00000
           A6           0.00000   0.00000   0.00000   0.00000   0.00000
           A7           0.00000   0.00000   0.00000   0.00000   0.00000
           D1           0.00000   0.00000   0.00000   0.00000   0.00000
           D2           0.00000   0.00000   0.00000   0.00000   0.00000
           D3           0.00000   0.00000   0.00000   0.00000   0.00000
                          A1        A2        A3        A4        A5
           A1           0.16000
           A2           0.00000   0.16000
           A3           0.00000   0.00000   0.16000
           A4           0.00000   0.00000   0.00000   0.16000
           A5           0.00000   0.00000   0.00000   0.00000   0.16000
           A6           0.00000   0.00000   0.00000   0.00000   0.00000
           A7           0.00000   0.00000   0.00000   0.00000   0.00000
           D1           0.00000   0.00000   0.00000   0.00000   0.00000
           D2           0.00000   0.00000   0.00000   0.00000   0.00000
           D3           0.00000   0.00000   0.00000   0.00000   0.00000
                          A6        A7        D1        D2        D3
           A6           0.16000
           A7           0.00000   0.16000
           D1           0.00000   0.00000   0.00230
           D2           0.00000   0.00000   0.00000   0.00230
           D3           0.00000   0.00000   0.00000   0.00000   0.00230
 ITU=  0
     Eigenvalues ---    0.00230   0.09530   0.10244   0.16000   0.16000
     Eigenvalues ---    0.16000   0.16000   0.23495   0.25747   0.34843
     Eigenvalues ---    0.34926   0.34926
 RFO step:  Lambda=-1.02989141D-04 EMin= 2.30000000D-03
 Linear search not attempted -- first point.
 Iteration  1 RMS(Cart)=  0.00589951 RMS(Int)=  0.00000333
 Iteration  2 RMS(Cart)=  0.00000319 RMS(Int)=  0.00000124
 Iteration  3 RMS(Cart)=  0.00000000 RMS(Int)=  0.00000124
 ClnCor:  largest displacement from symmetrization is 1.24D-12 for atom     6.
 Variable       Old X    -DE/DX   Delta X   Delta X   Delta X     New X
                                 (Linear)    (Quad)   (Total)
    R1        3.46896  -0.00345   0.00000  -0.01468  -0.01468   3.45428
    R2        2.05930  -0.00150   0.00000  -0.00430  -0.00430   2.05500
    R3        2.05796  -0.00155   0.00000  -0.00444  -0.00444   2.05352
    R4        2.05796  -0.00155   0.00000  -0.00444  -0.00444   2.05352
    R5        2.54845  -0.00277   0.00000  -0.01076  -0.01076   2.53769
    A1        1.85084  -0.00004   0.00000   0.00013   0.00013   1.85097
    A2        1.94268  -0.00023   0.00000  -0.00161  -0.00162   1.94106
    A3        1.94268  -0.00023   0.00000  -0.00161  -0.00162   1.94106
    A4        1.89853   0.00023   0.00000   0.00184   0.00184   1.90037
    A5        1.89853   0.00023   0.00000   0.00184   0.00184   1.90037
    A6        1.92805   0.00004   0.00000  -0.00038  -0.00038   1.92767
    A7        1.69227   0.00022   0.00000   0.00140   0.00140   1.69366
    D1        3.14159  -0.00000   0.00000  -0.00000   0.00000   3.14159
    D2       -1.07959   0.00014   0.00000   0.00142   0.00142  -1.07817
    D3        1.07959  -0.00014   0.00000  -0.00142  -0.00142   1.07817
         Item               Value     Threshold  Converged?
 Maximum Force            0.003451     0.000450     NO 
 RMS     Force            0.001341     0.000300     NO 
 Maximum Displacement     0.011614     0.001800     NO 
 RMS     Displacement     0.005901     0.001200     NO 
 Predicted change in Energy=-5.151465D-05
 GradGradGradGradGradGradGradGradGradGradGradGradGradGradGradGradGradGrad

                          Input orientation:                          
 ---------------------------------------------------------------------
 Center     Atomic      Atomic             Coordinates (Angstroms)
 Number     Number       Type             X           Y           Z
 ---------------------------------------------------------------------
      1          6           0       -0.047901    1.162899    0.000000
      2         16           0       -0.046649   -0.665026    0.000000
      3          1           0        1.286229   -0.828694    0.000000
      4          1           0       -1.093163    1.462887    0.000000
      5          1           0        0.430934    1.556453    0.892577
      6          1           0        0.430934    1.556453   -0.892577
 ---------------------------------------------------------------------
                    Distance matrix (angstroms):
                    1          2          3          4          5
     1  C    0.000000
     2  S    1.827925   0.000000
     3  H    2.397153   1.342889   0.000000
     4  H    1.087459   2.371330   3.303460   0.000000
     5  H    1.086674   2.441259   2.686476   1.768705   0.000000
     6  H    1.086674   2.441259   2.686476   1.768705   1.785153
                    6
     6  H    0.000000
 Stoichiometry    CH4S
 Framework group  CS[SG(CH2S),X(H2)]
 Deg. of freedom     8
 Full point group                 CS      NOp   2
 Largest Abelian subgroup         CS      NOp   2
 Largest concise Abelian subgroup CS      NOp   2
                         Standard orientation:                         
 ---------------------------------------------------------------------
 Center     Atomic      Atomic             Coordinates (Angstroms)
 Number     Number       Type             X           Y           Z
 ---------------------------------------------------------------------
      1          6           0       -0.047920    1.159698    0.000000
      2         16           0       -0.047920   -0.668227    0.000000
      3          1           0        1.284845   -0.832808    0.000000
      4          1           0       -1.092976    1.460402    0.000000
      5          1           0        0.431184    1.552924    0.892577
      6          1           0        0.431184    1.552924   -0.892577
 ---------------------------------------------------------------------
 Rotational constants (GHZ):         103.2655891          12.8008851          12.2777246
 Basis read from rwf:  (5D, 7F)
 There are    88 symmetry adapted cartesian basis functions of A'  symmetry.
 There are    46 symmetry adapted cartesian basis functions of A"  symmetry.
 There are    77 symmetry adapted basis functions of A'  symmetry.
 There are    43 symmetry adapted basis functions of A"  symmetry.
   120 basis functions,   193 primitive gaussians,   134 cartesian basis functions
    13 alpha electrons       13 beta electrons
       nuclear repulsion energy        56.1403302295 Hartrees.
 NAtoms=    6 NActive=    6 NUniq=    5 SFac= 1.44D+00 NAtFMM=   60 NAOKFM=F Big=F
 Integral buffers will be    131072 words long.
 Raffenetti 2 integral format.
 Two-electron integral symmetry is turned on.
 One-electron integrals computed using PRISM.
 NBasis=   120 RedAO= T EigKep=  2.04D-03  NBF=    77    43
 NBsUse=   120 1.00D-06 EigRej= -1.00D+00 NBFU=    77    43
 Initial guess from the checkpoint file:  "/wrk/irikura/Gau-23336.chk"
 B after Tr=     0.000000   -0.000000    0.000000
         Rot=    1.000000   -0.000000    0.000000    0.000170 Ang=   0.02 deg.
 Initial guess orbital symmetries:
       Occupied  (A') (A') (A') (A') (A') (A") (A') (A') (A') (A")
                 (A') (A') (A")
       Virtual   (A') (A') (A') (A') (A") (A') (A') (A") (A') (A')
                 (A") (A') (A") (A') (A') (A') (A') (A") (A") (A')
                 (A') (A') (A") (A') (A') (A") (A") (A") (A') (A')
                 (A") (A') (A') (A') (A") (A') (A') (A") (A') (A')
                 (A") (A') (A') (A") (A') (A') (A") (A') (A") (A')
                 (A') (A") (A') (A') (A') (A") (A') (A') (A") (A")
                 (A') (A") (A') (A") (A") (A') (A') (A') (A") (A")
                 (A") (A') (A') (A') (A") (A") (A') (A") (A') (A')
                 (A') (A') (A") (A') (A") (A') (A") (A") (A") (A')
                 (A') (A') (A') (A') (A') (A") (A') (A') (A") (A')
                 (A") (A') (A') (A") (A") (A') (A')
 Keep R1 ints in memory in symmetry-blocked form, NReq=39656760.
 Requested convergence on RMS density matrix=1.00D-08 within 128 cycles.
 Requested convergence on MAX density matrix=1.00D-06.
 Requested convergence on             energy=1.00D-06.
 No special actions if energy rises.
 SCF Done:  E(RB3LYP) =  -438.761143138     A.U. after    7 cycles
            NFock=  7  Conv=0.65D-08     -V/T= 2.0013
 Calling FoFJK, ICntrl=      2127 FMM=F ISym2X=1 I1Cent= 0 IOpClX= 0 NMat=1 NMatS=1 NMatT=0.
 ***** Axes restored to original set *****
 -------------------------------------------------------------------
 Center     Atomic                   Forces (Hartrees/Bohr)
 Number     Number              X              Y              Z
 -------------------------------------------------------------------
      1        6          -0.000090548   -0.001016220   -0.000000000
      2       16           0.000045779    0.000563268    0.000000000
      3        1           0.000013823   -0.000112758   -0.000000000
      4        1           0.000067485    0.000149588    0.000000000
      5        1          -0.000018270    0.000208061   -0.000025431
      6        1          -0.000018270    0.000208061    0.000025431
 -------------------------------------------------------------------
 Cartesian Forces:  Max     0.001016220 RMS     0.000287580

 GradGradGradGradGradGradGradGradGradGradGradGradGradGradGradGradGradGrad
 Berny optimization.
 Using GEDIIS/GDIIS optimizer.
 FormGI is forming the generalized inverse of G from B-inverse, IUseBI=4.
 Internal  Forces:  Max     0.000450612 RMS     0.000186216
 Search for a local minimum.
 Step number   2 out of a maximum of   25
 All quantities printed in internal units (Hartrees-Bohrs-Radians)
 Mixed Optimization -- En-DIIS/RFO-DIIS
 Update second derivatives using D2CorX and points    1    2
 DE= -5.43D-05 DEPred=-5.15D-05 R= 1.05D+00
 TightC=F SS=  1.41D+00  RLast= 2.02D-02 DXNew= 5.0454D-01 6.0556D-02
 Trust test= 1.05D+00 RLast= 2.02D-02 DXMaxT set to 3.00D-01
 The second derivative matrix:
                          R1        R2        R3        R4        R5
           R1           0.21129
           R2          -0.00501   0.34885
           R3          -0.00302   0.00150   0.35196
           R4          -0.00302   0.00150   0.00270   0.35196
           R5          -0.00707   0.00185   0.00393   0.00393   0.26293
           A1           0.00646   0.00314   0.00338   0.00338   0.00593
           A2           0.00495   0.00293   0.00335   0.00335   0.00574
           A3           0.00495   0.00293   0.00335   0.00335   0.00574
           A4          -0.00300  -0.00204  -0.00242  -0.00242  -0.00408
           A5          -0.00300  -0.00204  -0.00242  -0.00242  -0.00408
           A6          -0.01002  -0.00481  -0.00517  -0.00517  -0.00908
           A7           0.00919   0.00409   0.00427   0.00427   0.00760
           D1          -0.00000  -0.00000  -0.00000  -0.00000  -0.00000
           D2          -0.00462  -0.00228  -0.00247  -0.00247  -0.00432
           D3           0.00462   0.00228   0.00247   0.00247   0.00432
                          A1        A2        A3        A4        A5
           A1           0.16036
           A2           0.00091   0.16137
           A3           0.00091   0.00137   0.16137
           A4          -0.00087  -0.00117  -0.00117   0.16096
           A5          -0.00087  -0.00117  -0.00117   0.00096   0.16096
           A6          -0.00049  -0.00133  -0.00133   0.00129   0.00129
           A7           0.00006   0.00081   0.00081  -0.00088  -0.00088
           D1          -0.00000  -0.00000  -0.00000   0.00000   0.00000
           D2          -0.00030  -0.00069  -0.00069   0.00065   0.00065
           D3           0.00030   0.00069   0.00069  -0.00065  -0.00065
                          A6        A7        D1        D2        D3
           A6           0.16065
           A7          -0.00001   0.15955
           D1           0.00000  -0.00000   0.00230
           D2           0.00041  -0.00009   0.00000   0.00254
           D3          -0.00041   0.00009  -0.00000  -0.00024   0.00254
 ITU=  1  0
 Use linear search instead of GDIIS.
     Eigenvalues ---    0.00230   0.09577   0.10247   0.15526   0.16000
     Eigenvalues ---    0.16000   0.16120   0.21650   0.26519   0.34830
     Eigenvalues ---    0.34926   0.35731
 RFO step:  Lambda=-2.85637782D-06 EMin= 2.30000000D-03
 Quartic linear search produced a step of  0.05084.
 Iteration  1 RMS(Cart)=  0.00118630 RMS(Int)=  0.00000149
 Iteration  2 RMS(Cart)=  0.00000117 RMS(Int)=  0.00000059
 Iteration  3 RMS(Cart)=  0.00000000 RMS(Int)=  0.00000059
 ClnCor:  largest displacement from symmetrization is 3.86D-12 for atom     6.
 Variable       Old X    -DE/DX   Delta X   Delta X   Delta X     New X
                                 (Linear)    (Quad)   (Total)
    R1        3.45428  -0.00045  -0.00075  -0.00166  -0.00241   3.45187
    R2        2.05500  -0.00002  -0.00022   0.00003  -0.00019   2.05481
    R3        2.05352   0.00005  -0.00023   0.00024   0.00002   2.05353
    R4        2.05352   0.00005  -0.00023   0.00024   0.00002   2.05353
    R5        2.53769   0.00003  -0.00055   0.00037  -0.00018   2.53751
    A1        1.85097   0.00015   0.00001   0.00092   0.00092   1.85189
    A2        1.94106   0.00022  -0.00008   0.00150   0.00142   1.94248
    A3        1.94106   0.00022  -0.00008   0.00150   0.00142   1.94248
    A4        1.90037  -0.00019   0.00009  -0.00132  -0.00123   1.89914
    A5        1.90037  -0.00019   0.00009  -0.00132  -0.00123   1.89914
    A6        1.92767  -0.00022  -0.00002  -0.00131  -0.00133   1.92634
    A7        1.69366   0.00028   0.00007   0.00180   0.00187   1.69553
    D1        3.14159  -0.00000   0.00000  -0.00000   0.00000   3.14159
    D2       -1.07817  -0.00002   0.00007  -0.00024  -0.00017  -1.07834
    D3        1.07817   0.00002  -0.00007   0.00024   0.00017   1.07834
         Item               Value     Threshold  Converged?
 Maximum Force            0.000451     0.000450     NO 
 RMS     Force            0.000186     0.000300     YES
 Maximum Displacement     0.003007     0.001800     NO 
 RMS     Displacement     0.001186     0.001200     YES
 Predicted change in Energy=-1.560729D-06
 GradGradGradGradGradGradGradGradGradGradGradGradGradGradGradGradGradGrad

                          Input orientation:                          
 ---------------------------------------------------------------------
 Center     Atomic      Atomic             Coordinates (Angstroms)
 Number     Number       Type             X           Y           Z
 ---------------------------------------------------------------------
      1          6           0       -0.047864    1.162203    0.000000
      2         16           0       -0.046188   -0.664446    0.000000
      3          1           0        1.286326   -0.830286    0.000000
      4          1           0       -1.092824    1.462884    0.000000
      5          1           0        0.430468    1.557308    0.892173
      6          1           0        0.430468    1.557308   -0.892173
 ---------------------------------------------------------------------
                    Distance matrix (angstroms):
                    1          2          3          4          5
     1  C    0.000000
     2  S    1.826650   0.000000
     3  H    2.397932   1.342795   0.000000
     4  H    1.087359   2.370860   3.304388   0.000000
     5  H    1.086684   2.441180   2.688693   1.767854   0.000000
     6  H    1.086684   2.441180   2.688693   1.767854   1.784346
                    6
     6  H    0.000000
 Stoichiometry    CH4S
 Framework group  CS[SG(CH2S),X(H2)]
 Deg. of freedom     8
 Full point group                 CS      NOp   2
 Largest Abelian subgroup         CS      NOp   2
 Largest concise Abelian subgroup CS      NOp   2
                         Standard orientation:                         
 ---------------------------------------------------------------------
 Center     Atomic      Atomic             Coordinates (Angstroms)
 Number     Number       Type             X           Y           Z
 ---------------------------------------------------------------------
      1          6           0       -0.047887    1.158813    0.000000
      2         16           0       -0.047887   -0.667837    0.000000
      3          1           0        1.284474   -0.834899    0.000000
      4          1           0       -1.092571    1.460452    0.000000
      5          1           0        0.430807    1.553478    0.892173
      6          1           0        0.430807    1.553478   -0.892173
 ---------------------------------------------------------------------
 Rotational constants (GHZ):         103.3557409          12.8123358          12.2886660
 Basis read from rwf:  (5D, 7F)
 There are    88 symmetry adapted cartesian basis functions of A'  symmetry.
 There are    46 symmetry adapted cartesian basis functions of A"  symmetry.
 There are    77 symmetry adapted basis functions of A'  symmetry.
 There are    43 symmetry adapted basis functions of A"  symmetry.
   120 basis functions,   193 primitive gaussians,   134 cartesian basis functions
    13 alpha electrons       13 beta electrons
       nuclear repulsion energy        56.1609477523 Hartrees.
 NAtoms=    6 NActive=    6 NUniq=    5 SFac= 1.44D+00 NAtFMM=   60 NAOKFM=F Big=F
 Integral buffers will be    131072 words long.
 Raffenetti 2 integral format.
 Two-electron integral symmetry is turned on.
 One-electron integrals computed using PRISM.
 NBasis=   120 RedAO= T EigKep=  2.04D-03  NBF=    77    43
 NBsUse=   120 1.00D-06 EigRej= -1.00D+00 NBFU=    77    43
 Initial guess from the checkpoint file:  "/wrk/irikura/Gau-23336.chk"
 B after Tr=    -0.000000    0.000000    0.000000
         Rot=    1.000000    0.000000   -0.000000    0.000037 Ang=   0.00 deg.
 Initial guess orbital symmetries:
       Occupied  (A') (A') (A') (A') (A') (A") (A') (A') (A') (A")
                 (A') (A') (A")
       Virtual   (A') (A') (A') (A') (A") (A') (A') (A") (A') (A')
                 (A") (A') (A") (A') (A') (A') (A') (A") (A") (A')
                 (A') (A') (A") (A') (A') (A") (A") (A") (A') (A')
                 (A") (A') (A') (A') (A") (A') (A') (A") (A') (A')
                 (A") (A') (A') (A") (A') (A') (A") (A') (A") (A')
                 (A') (A") (A') (A') (A') (A") (A') (A') (A") (A")
                 (A') (A") (A') (A") (A") (A') (A') (A') (A") (A")
                 (A") (A') (A') (A') (A") (A") (A') (A") (A') (A')
                 (A') (A') (A") (A') (A") (A') (A") (A") (A') (A")
                 (A') (A') (A') (A') (A") (A') (A') (A') (A") (A')
                 (A") (A') (A') (A") (A") (A') (A')
 Keep R1 ints in memory in symmetry-blocked form, NReq=39656760.
 Requested convergence on RMS density matrix=1.00D-08 within 128 cycles.
 Requested convergence on MAX density matrix=1.00D-06.
 Requested convergence on             energy=1.00D-06.
 No special actions if energy rises.
 SCF Done:  E(RB3LYP) =  -438.761145141     A.U. after    7 cycles
            NFock=  7  Conv=0.29D-08     -V/T= 2.0013
 Calling FoFJK, ICntrl=      2127 FMM=F ISym2X=1 I1Cent= 0 IOpClX= 0 NMat=1 NMatS=1 NMatT=0.
 ***** Axes restored to original set *****
 -------------------------------------------------------------------
 Center     Atomic                   Forces (Hartrees/Bohr)
 Number     Number              X              Y              Z
 -------------------------------------------------------------------
      1        6           0.000060935   -0.000448948   -0.000000000
      2       16          -0.000121783    0.000166178    0.000000000
      3        1           0.000077432    0.000004886    0.000000000
      4        1          -0.000063693    0.000048377    0.000000000
      5        1           0.000023555    0.000114753    0.000046085
      6        1           0.000023555    0.000114753   -0.000046085
 -------------------------------------------------------------------
 Cartesian Forces:  Max     0.000448948 RMS     0.000127328

 GradGradGradGradGradGradGradGradGradGradGradGradGradGradGradGradGradGrad
 Berny optimization.
 Using GEDIIS/GDIIS optimizer.
 FormGI is forming the generalized inverse of G from B-inverse, IUseBI=4.
 Internal  Forces:  Max     0.000171260 RMS     0.000080004
 Search for a local minimum.
 Step number   3 out of a maximum of   25
 All quantities printed in internal units (Hartrees-Bohrs-Radians)
 Mixed Optimization -- En-DIIS/RFO-DIIS
 Swapping is turned off.
 Update second derivatives using D2CorX and points    1    2    3
 DE= -2.00D-06 DEPred=-1.56D-06 R= 1.28D+00
 TightC=F SS=  1.41D+00  RLast= 4.37D-03 DXNew= 5.0454D-01 1.3110D-02
 Trust test= 1.28D+00 RLast= 4.37D-03 DXMaxT set to 3.00D-01
 The second derivative matrix:
                          R1        R2        R3        R4        R5
           R1           0.18028
           R2           0.00531   0.35532
           R3           0.01036   0.00620   0.35465
           R4           0.01036   0.00620   0.00539   0.35465
           R5           0.00396   0.00751   0.00779   0.00779   0.26777
           A1           0.00602  -0.00290  -0.00215  -0.00215   0.00024
           A2           0.02378   0.00087  -0.00089  -0.00089   0.00299
           A3           0.02378   0.00087  -0.00089  -0.00089   0.00299
           A4          -0.01610   0.00117   0.00218   0.00218  -0.00048
           A5          -0.01610   0.00117   0.00218   0.00218  -0.00048
           A6          -0.02217  -0.00126  -0.00037  -0.00037  -0.00520
           A7           0.00715  -0.00902  -0.00761  -0.00761  -0.00473
           D1           0.00000   0.00000   0.00000   0.00000   0.00000
           D2          -0.00347  -0.00228  -0.00262  -0.00262  -0.00437
           D3           0.00347   0.00228   0.00262   0.00262   0.00437
                          A1        A2        A3        A4        A5
           A1           0.16417
           A2          -0.00148   0.15170
           A3          -0.00148  -0.00830   0.15170
           A4          -0.00031   0.00632   0.00632   0.15554
           A5          -0.00031   0.00632   0.00632  -0.00446   0.15554
           A6          -0.00032   0.00585   0.00585  -0.00380  -0.00380
           A7           0.00856  -0.00385  -0.00385  -0.00009  -0.00009
           D1          -0.00000  -0.00000  -0.00000   0.00000   0.00000
           D2          -0.00051  -0.00123  -0.00123   0.00109   0.00109
           D3           0.00051   0.00123   0.00123  -0.00109  -0.00109
                          A6        A7        D1        D2        D3
           A6           0.15590
           A7          -0.00007   0.17846
           D1           0.00000  -0.00000   0.00230
           D2           0.00084  -0.00053  -0.00000   0.00251
           D3          -0.00084   0.00053   0.00000  -0.00021   0.00251
 ITU=  1  1  0
     Eigenvalues ---    0.00230   0.09097   0.10236   0.10718   0.16000
     Eigenvalues ---    0.16003   0.18020   0.20867   0.26667   0.34874
     Eigenvalues ---    0.34926   0.37102
 En-DIIS/RFO-DIIS/Sim-DIIS IScMMF=       -3 using points:     3    2
 RFO step:  Lambda=-7.48312690D-07.
 DidBck=F Rises=F RFO-DIIS coefs:    1.50148   -0.50148
 Iteration  1 RMS(Cart)=  0.00050603 RMS(Int)=  0.00000065
 Iteration  2 RMS(Cart)=  0.00000035 RMS(Int)=  0.00000054
 ClnCor:  largest displacement from symmetrization is 5.23D-12 for atom     6.
 Variable       Old X    -DE/DX   Delta X   Delta X   Delta X     New X
                                 (Linear)    (Quad)   (Total)
    R1        3.45187  -0.00017  -0.00121  -0.00031  -0.00152   3.45035
    R2        2.05481   0.00007  -0.00009   0.00030   0.00021   2.05502
    R3        2.05353   0.00009   0.00001   0.00028   0.00029   2.05383
    R4        2.05353   0.00009   0.00001   0.00028   0.00029   2.05383
    R5        2.53751   0.00008  -0.00009   0.00032   0.00023   2.53775
    A1        1.85189  -0.00000   0.00046  -0.00043   0.00003   1.85192
    A2        1.94248   0.00010   0.00071   0.00038   0.00109   1.94357
    A3        1.94248   0.00010   0.00071   0.00038   0.00109   1.94357
    A4        1.89914  -0.00006  -0.00062  -0.00011  -0.00073   1.89840
    A5        1.89914  -0.00006  -0.00062  -0.00011  -0.00073   1.89840
    A6        1.92634  -0.00009  -0.00067  -0.00014  -0.00081   1.92553
    A7        1.69553  -0.00004   0.00094  -0.00100  -0.00006   1.69547
    D1        3.14159   0.00000   0.00000   0.00000   0.00000   3.14159
    D2       -1.07834  -0.00002  -0.00008  -0.00019  -0.00027  -1.07861
    D3        1.07834   0.00002   0.00008   0.00019   0.00027   1.07861
         Item               Value     Threshold  Converged?
 Maximum Force            0.000171     0.000450     YES
 RMS     Force            0.000080     0.000300     YES
 Maximum Displacement     0.001186     0.001800     YES
 RMS     Displacement     0.000506     0.001200     YES
 Predicted change in Energy=-3.741792D-07
 Optimization completed.
    -- Stationary point found.
                           ----------------------------
                           !   Optimized Parameters   !
                           ! (Angstroms and Degrees)  !
 --------------------------                            --------------------------
 ! Name  Definition              Value          Derivative Info.                !
 --------------------------------------------------------------------------------
 ! R1    R(1,2)                  1.8266         -DE/DX =   -0.0002              !
 ! R2    R(1,4)                  1.0874         -DE/DX =    0.0001              !
 ! R3    R(1,5)                  1.0867         -DE/DX =    0.0001              !
 ! R4    R(1,6)                  1.0867         -DE/DX =    0.0001              !
 ! R5    R(2,3)                  1.3428         -DE/DX =    0.0001              !
 ! A1    A(2,1,4)              106.1054         -DE/DX =    0.0                 !
 ! A2    A(2,1,5)              111.2958         -DE/DX =    0.0001              !
 ! A3    A(2,1,6)              111.2958         -DE/DX =    0.0001              !
 ! A4    A(4,1,5)              108.8125         -DE/DX =   -0.0001              !
 ! A5    A(4,1,6)              108.8125         -DE/DX =   -0.0001              !
 ! A6    A(5,1,6)              110.3711         -DE/DX =   -0.0001              !
 ! A7    A(1,2,3)               97.1469         -DE/DX =    0.0                 !
 ! D1    D(4,1,2,3)            180.0            -DE/DX =    0.0                 !
 ! D2    D(5,1,2,3)            -61.7843         -DE/DX =    0.0                 !
 ! D3    D(6,1,2,3)             61.7843         -DE/DX =    0.0                 !
 --------------------------------------------------------------------------------
 GradGradGradGradGradGradGradGradGradGradGradGradGradGradGradGradGradGrad

                          Input orientation:                          
 ---------------------------------------------------------------------
 Center     Atomic      Atomic             Coordinates (Angstroms)
 Number     Number       Type             X           Y           Z
 ---------------------------------------------------------------------
      1          6           0       -0.047864    1.162203    0.000000
      2         16           0       -0.046188   -0.664446    0.000000
      3          1           0        1.286326   -0.830286    0.000000
      4          1           0       -1.092824    1.462884    0.000000
      5          1           0        0.430468    1.557308    0.892173
      6          1           0        0.430468    1.557308   -0.892173
 ---------------------------------------------------------------------
                    Distance matrix (angstroms):
                    1          2          3          4          5
     1  C    0.000000
     2  S    1.826650   0.000000
     3  H    2.397932   1.342795   0.000000
     4  H    1.087359   2.370860   3.304388   0.000000
     5  H    1.086684   2.441180   2.688693   1.767854   0.000000
     6  H    1.086684   2.441180   2.688693   1.767854   1.784346
                    6
     6  H    0.000000
 Stoichiometry    CH4S
 Framework group  CS[SG(CH2S),X(H2)]
 Deg. of freedom     8
 Full point group                 CS      NOp   2
 Largest Abelian subgroup         CS      NOp   2
 Largest concise Abelian subgroup CS      NOp   2
                         Standard orientation:                         
 ---------------------------------------------------------------------
 Center     Atomic      Atomic             Coordinates (Angstroms)
 Number     Number       Type             X           Y           Z
 ---------------------------------------------------------------------
      1          6           0       -0.047887    1.158813    0.000000
      2         16           0       -0.047887   -0.667837    0.000000
      3          1           0        1.284474   -0.834899    0.000000
      4          1           0       -1.092571    1.460452    0.000000
      5          1           0        0.430807    1.553478    0.892173
      6          1           0        0.430807    1.553478   -0.892173
 ---------------------------------------------------------------------
 Rotational constants (GHZ):         103.3557409          12.8123358          12.2886660

 **********************************************************************

            Population analysis using the SCF Density.

 **********************************************************************

 Orbital symmetries:
       Occupied  (A') (A') (A') (A') (A') (A") (A') (A') (A') (A")
                 (A') (A') (A")
       Virtual   (A') (A') (A') (A') (A") (A') (A') (A") (A') (A')
                 (A") (A') (A") (A') (A') (A') (A") (A') (A") (A')
                 (A') (A') (A") (A') (A') (A") (A") (A") (A') (A')
                 (A") (A') (A') (A') (A") (A') (A') (A") (A') (A')
                 (A") (A') (A') (A") (A') (A') (A") (A') (A") (A')
                 (A') (A") (A') (A') (A') (A") (A') (A') (A") (A")
                 (A') (A") (A') (A") (A") (A') (A') (A') (A") (A")
                 (A") (A') (A') (A') (A") (A") (A') (A") (A') (A')
                 (A') (A') (A") (A') (A") (A') (A") (A") (A') (A")
                 (A') (A') (A') (A') (A") (A') (A') (A') (A") (A')
                 (A") (A') (A') (A") (A") (A') (A')
 The electronic state is 1-A'.
 Alpha  occ. eigenvalues --  -88.83591 -10.20178  -7.92904  -5.89221  -5.88881
 Alpha  occ. eigenvalues --   -5.88272  -0.78135  -0.64908  -0.45367  -0.43530
 Alpha  occ. eigenvalues --   -0.39577  -0.33672  -0.24220
 Alpha virt. eigenvalues --   -0.00513   0.02675   0.05764   0.06949   0.07018
 Alpha virt. eigenvalues --    0.14391   0.15844   0.17525   0.18078   0.24442
 Alpha virt. eigenvalues --    0.27501   0.32880   0.33481   0.33536   0.36909
 Alpha virt. eigenvalues --    0.41692   0.45911   0.45925   0.50358   0.58761
 Alpha virt. eigenvalues --    0.71359   0.74987   0.75884   0.86095   0.89136
 Alpha virt. eigenvalues --    0.93087   0.95008   0.97656   1.00804   1.03330
 Alpha virt. eigenvalues --    1.05994   1.06437   1.14610   1.20190   1.29431
 Alpha virt. eigenvalues --    1.39084   1.45137   1.49568   1.52778   1.58560
 Alpha virt. eigenvalues --    1.65552   1.66003   1.78141   1.81971   1.85642
 Alpha virt. eigenvalues --    1.89914   1.96289   2.03015   2.07734   2.09730
 Alpha virt. eigenvalues --    2.15448   2.18333   2.27677   2.30413   2.43023
 Alpha virt. eigenvalues --    2.50873   2.56305   3.19578   3.27097   3.27506
 Alpha virt. eigenvalues --    3.27606   3.33812   3.34827   3.43872   3.60449
 Alpha virt. eigenvalues --    3.60711   3.73562   3.78077   3.78381   3.82470
 Alpha virt. eigenvalues --    3.86309   3.88226   3.96403   4.00026   4.03458
 Alpha virt. eigenvalues --    4.15569   4.16138   4.17216   4.21412   4.25808
 Alpha virt. eigenvalues --    4.41074   4.43425   4.48184   4.50089   4.51591
 Alpha virt. eigenvalues --    4.53651   4.59464   4.63627   4.69071   4.69211
 Alpha virt. eigenvalues --    4.70916   4.85614   4.95547   5.07541   5.16459
 Alpha virt. eigenvalues --    5.16559   5.41690   5.61919   5.67753   5.68255
 Alpha virt. eigenvalues --    5.79006   5.80438   5.84025   5.84795   6.11176
 Alpha virt. eigenvalues --    6.11747  25.50642
          Condensed to atoms (all electrons):
               1          2          3          4          5          6
     1  C    4.626736   0.255990  -0.032489   0.406057   0.427132   0.427132
     2  S    0.255990  15.619890   0.345051  -0.026920  -0.043487  -0.043487
     3  H   -0.032489   0.345051   0.643387   0.006747  -0.006658  -0.006658
     4  H    0.406057  -0.026920   0.006747   0.615839  -0.023759  -0.023759
     5  H    0.427132  -0.043487  -0.006658  -0.023759   0.615564  -0.029379
     6  H    0.427132  -0.043487  -0.006658  -0.023759  -0.029379   0.615564
 Mulliken charges:
               1
     1  C   -0.110557
     2  S   -0.107036
     3  H    0.050621
     4  H    0.045795
     5  H    0.060588
     6  H    0.060588
 Sum of Mulliken charges =  -0.00000
 Mulliken charges with hydrogens summed into heavy atoms:
               1
     1  C    0.056414
     2  S   -0.056414
 Electronic spatial extent (au):  <R**2>=            145.4650
 Charge=             -0.0000 electrons
 Dipole moment (field-independent basis, Debye):
    X=              0.7706    Y=              1.4122    Z=              0.0000  Tot=              1.6088
 Quadrupole moment (field-independent basis, Debye-Ang):
   XX=            -19.3554   YY=            -20.5462   ZZ=            -22.6718
   XY=             -1.2816   XZ=              0.0000   YZ=              0.0000
 Traceless Quadrupole moment (field-independent basis, Debye-Ang):
   XX=              1.5024   YY=              0.3117   ZZ=             -1.8140
   XY=             -1.2816   XZ=              0.0000   YZ=              0.0000
 Octapole moment (field-independent basis, Debye-Ang**2):
  XXX=              0.8015  YYY=             -0.1724  ZZZ=              0.0000  XYY=              1.3569
  XXY=             -0.1691  XXZ=             -0.0000  XZZ=              0.9384  YZZ=              2.5258
  YYZ=              0.0000  XYZ=              0.0000
 Hexadecapole moment (field-independent basis, Debye-Ang**3):
 XXXX=            -35.6747 YYYY=           -137.4089 ZZZZ=            -37.4755 XXXY=             -0.6657
 XXXZ=             -0.0000 YYYX=              0.6088 YYYZ=              0.0000 ZZZX=             -0.0000
 ZZZY=              0.0000 XXYY=            -28.0301 XXZZ=            -12.9046 YYZZ=            -29.5115
 XXYZ=              0.0000 YYXZ=              0.0000 ZZXY=              1.5863
 N-N= 5.616094775231D+01 E-N=-1.153441797038D+03  KE= 4.381996015261D+02
 Symmetry A'   KE= 3.972803821770D+02
 Symmetry A"   KE= 4.091921934911D+01
 1\1\GINC-GAMBA\FOpt\RB3LYP\Gen\C1H4S1\IRIKURA\25-Feb-2022\0\\# b3lyp/g
 en opt freq\\methanethiol, B3LYP/pcseg-2\\0,1\C,-0.047864496,1.1622033
 28,0.\S,-0.0461883882,-0.6644456374,0.\H,1.2863259886,-0.8302856406,0.
 \H,-1.0928243758,1.4628838761,0.\H,0.4304676357,1.557307537,0.89217306
 75\H,0.4304676357,1.557307537,-0.8921730675\\Version=ES64L-G16RevB.01\
 State=1-A'\HF=-438.7611451\RMSD=2.932e-09\RMSF=1.273e-04\Dipole=0.3026
 77,0.555899,0.\Quadrupole=1.1187228,0.2299663,-1.348689,-0.9520547,0.,
 0.\PG=CS [SG(C1H2S1),X(H2)]\\@


 CHARLIE BROWN.."I CAN'T GET THAT STUPID KITE IN THE
 AIR... I CAN'T... I C A N N O T..."
 LUCY.."OH COME NOW CHARLIE BROWN...THAT'S NO WAY TO TALK...
 THE TROUBLE WITH YOU IS YOU DON'T BELIEVE IN YOURSELF... YOU
 DON'T BELIEVE IN YOUR OWN ABILITIES...  YOU'VE GOT TO SAY TO
 YOURSELF...'I BELIEVE I CAN FLY THIS KITE.'... GO AHEAD SAY
 IT...."
 CHARLIE BROWN.."I BELIEVE THAT I CAN FLY THIS STUPID
 KITE.....I BELIEVE THAT I CAN FLY THIS KITE........
 I  A C T U A L L Y  B E L I E V E  T H A T  I  C A N ******"
 LUCY.."I'LL BET YOU TEN-TO-ONE YOU'RE WRONG......."    SCHULZ
 Job cpu time:       0 days  0 hours  1 minutes 13.9 seconds.
 Elapsed time:       0 days  0 hours  0 minutes 18.7 seconds.
 File lengths (MBytes):  RWF=     10 Int=      0 D2E=      0 Chk=      2 Scr=      1
 Normal termination of Gaussian 16 at Fri Feb 25 20:48:50 2022.
 Link1:  Proceeding to internal job step number  2.
 ------------------------------------------------------------------
 #N Geom=AllCheck Guess=TCheck SCRF=Check GenChk RB3LYP/ChkBas Freq
 ------------------------------------------------------------------
 1/10=4,29=7,30=1,38=1,40=1/1,3;
 2/12=2,40=1/2;
 3/5=7,6=2,11=2,14=-4,25=1,30=1,67=1,70=2,71=2,74=-5,82=7,116=1,140=1/1,2,3;
 4/5=101/1;
 5/5=2,38=6,98=1/2;
 8/6=4,10=90,11=11/1;
 11/6=1,8=1,9=11,15=111,16=1/1,2,10;
 10/6=1/2;
 6/7=2,8=2,9=2,10=2,28=1/1;
 7/8=1,10=1,25=1/1,2,3,16;
 1/10=4,30=1/3;
 99//99;
 Structure from the checkpoint file:  "/wrk/irikura/Gau-23336.chk"
 ---------------------------
 methanethiol, B3LYP/pcseg-2
 ---------------------------
 Charge =  0 Multiplicity = 1
 Redundant internal coordinates found in file.  (old form).
 C,0,-0.047864496,1.162203328,0.
 S,0,-0.0461883882,-0.6644456374,0.
 H,0,1.2863259886,-0.8302856406,0.
 H,0,-1.0928243758,1.4628838761,0.
 H,0,0.4304676357,1.557307537,0.8921730675
 H,0,0.4304676357,1.557307537,-0.8921730675
 Recover connectivity data from disk.

 GradGradGradGradGradGradGradGradGradGradGradGradGradGradGradGradGradGrad
 Berny optimization.
 Initialization pass.
                           ----------------------------
                           !    Initial Parameters    !
                           ! (Angstroms and Degrees)  !
 --------------------------                            --------------------------
 ! Name  Definition              Value          Derivative Info.                !
 --------------------------------------------------------------------------------
 ! R1    R(1,2)                  1.8266         calculate D2E/DX2 analytically  !
 ! R2    R(1,4)                  1.0874         calculate D2E/DX2 analytically  !
 ! R3    R(1,5)                  1.0867         calculate D2E/DX2 analytically  !
 ! R4    R(1,6)                  1.0867         calculate D2E/DX2 analytically  !
 ! R5    R(2,3)                  1.3428         calculate D2E/DX2 analytically  !
 ! A1    A(2,1,4)              106.1054         calculate D2E/DX2 analytically  !
 ! A2    A(2,1,5)              111.2958         calculate D2E/DX2 analytically  !
 ! A3    A(2,1,6)              111.2958         calculate D2E/DX2 analytically  !
 ! A4    A(4,1,5)              108.8125         calculate D2E/DX2 analytically  !
 ! A5    A(4,1,6)              108.8125         calculate D2E/DX2 analytically  !
 ! A6    A(5,1,6)              110.3711         calculate D2E/DX2 analytically  !
 ! A7    A(1,2,3)               97.1469         calculate D2E/DX2 analytically  !
 ! D1    D(4,1,2,3)            180.0            calculate D2E/DX2 analytically  !
 ! D2    D(5,1,2,3)            -61.7843         calculate D2E/DX2 analytically  !
 ! D3    D(6,1,2,3)             61.7843         calculate D2E/DX2 analytically  !
 --------------------------------------------------------------------------------
 Trust Radius=3.00D-01 FncErr=1.00D-07 GrdErr=1.00D-07 EigMax=2.50D+02 EigMin=1.00D-04
 Number of steps in this run=      2 maximum allowed number of steps=      2.
 GradGradGradGradGradGradGradGradGradGradGradGradGradGradGradGradGradGrad

                          Input orientation:                          
 ---------------------------------------------------------------------
 Center     Atomic      Atomic             Coordinates (Angstroms)
 Number     Number       Type             X           Y           Z
 ---------------------------------------------------------------------
      1          6           0       -0.047864    1.162203    0.000000
      2         16           0       -0.046188   -0.664446    0.000000
      3          1           0        1.286326   -0.830286    0.000000
      4          1           0       -1.092824    1.462884    0.000000
      5          1           0        0.430468    1.557308    0.892173
      6          1           0        0.430468    1.557308   -0.892173
 ---------------------------------------------------------------------
                    Distance matrix (angstroms):
                    1          2          3          4          5
     1  C    0.000000
     2  S    1.826650   0.000000
     3  H    2.397932   1.342795   0.000000
     4  H    1.087359   2.370860   3.304388   0.000000
     5  H    1.086684   2.441180   2.688693   1.767854   0.000000
     6  H    1.086684   2.441180   2.688693   1.767854   1.784346
                    6
     6  H    0.000000
 Stoichiometry    CH4S
 Framework group  CS[SG(CH2S),X(H2)]
 Deg. of freedom     8
 Full point group                 CS      NOp   2
 Largest Abelian subgroup         CS      NOp   2
 Largest concise Abelian subgroup CS      NOp   2
                         Standard orientation:                         
 ---------------------------------------------------------------------
 Center     Atomic      Atomic             Coordinates (Angstroms)
 Number     Number       Type             X           Y           Z
 ---------------------------------------------------------------------
      1          6           0       -0.047887    1.158813    0.000000
      2         16           0       -0.047887   -0.667837    0.000000
      3          1           0        1.284474   -0.834899    0.000000
      4          1           0       -1.092571    1.460452    0.000000
      5          1           0        0.430807    1.553478    0.892173
      6          1           0        0.430807    1.553478   -0.892173
 ---------------------------------------------------------------------
 Rotational constants (GHZ):         103.3557409          12.8123358          12.2886660
 Basis read from chk: "/wrk/irikura/Gau-23336.chk" (5D, 7F)
 There are    88 symmetry adapted cartesian basis functions of A'  symmetry.
 There are    46 symmetry adapted cartesian basis functions of A"  symmetry.
 There are    77 symmetry adapted basis functions of A'  symmetry.
 There are    43 symmetry adapted basis functions of A"  symmetry.
   120 basis functions,   193 primitive gaussians,   134 cartesian basis functions
    13 alpha electrons       13 beta electrons
       nuclear repulsion energy        56.1609477523 Hartrees.
 NAtoms=    6 NActive=    6 NUniq=    5 SFac= 1.44D+00 NAtFMM=   60 NAOKFM=F Big=F
 Integral buffers will be    131072 words long.
 Raffenetti 2 integral format.
 Two-electron integral symmetry is turned on.
 One-electron integrals computed using PRISM.
 NBasis=   120 RedAO= T EigKep=  2.04D-03  NBF=    77    43
 NBsUse=   120 1.00D-06 EigRej= -1.00D+00 NBFU=    77    43
 Initial guess from the checkpoint file:  "/wrk/irikura/Gau-23336.chk"
 B after Tr=     0.000000    0.000000    0.000000
         Rot=    1.000000    0.000000    0.000000    0.000000 Ang=   0.00 deg.
 Initial guess orbital symmetries:
       Occupied  (A') (A') (A') (A') (A') (A") (A') (A') (A') (A")
                 (A') (A') (A")
       Virtual   (A') (A') (A') (A') (A") (A') (A') (A") (A') (A')
                 (A") (A') (A") (A') (A') (A') (A") (A') (A") (A')
                 (A') (A') (A") (A') (A') (A") (A") (A") (A') (A')
                 (A") (A') (A') (A') (A") (A') (A') (A") (A') (A')
                 (A") (A') (A') (A") (A') (A') (A") (A') (A") (A')
                 (A') (A") (A') (A') (A') (A") (A') (A') (A") (A")
                 (A') (A") (A') (A") (A") (A') (A') (A') (A") (A")
                 (A") (A') (A') (A') (A") (A") (A') (A") (A') (A')
                 (A') (A') (A") (A') (A") (A') (A") (A") (A') (A")
                 (A') (A') (A') (A') (A") (A') (A') (A') (A") (A')
                 (A") (A') (A') (A") (A") (A') (A')
 Keep R1 ints in memory in symmetry-blocked form, NReq=39656760.
 Requested convergence on RMS density matrix=1.00D-08 within 128 cycles.
 Requested convergence on MAX density matrix=1.00D-06.
 Requested convergence on             energy=1.00D-06.
 No special actions if energy rises.
 SCF Done:  E(RB3LYP) =  -438.761145141     A.U. after    1 cycles
            NFock=  1  Conv=0.86D-09     -V/T= 2.0013
 DoSCS=F DFT=T ScalE2(SS,OS)=  1.000000  1.000000
 Range of M.O.s used for correlation:     1   120
 NBasis=   120 NAE=    13 NBE=    13 NFC=     0 NFV=     0
 NROrb=    120 NOA=    13 NOB=    13 NVA=   107 NVB=   107
 Symmetrizing basis deriv contribution to polar:
 IMax=3 JMax=2 DiffMx= 0.00D+00
 G2DrvN: will do     7 centers at a time, making    1 passes.
 Calling FoFCou, ICntrl=  3107 FMM=F I1Cent=   0 AccDes= 0.00D+00.
 End of G2Drv F.D. properties file   721 does not exist.
 End of G2Drv F.D. properties file   722 does not exist.
 End of G2Drv F.D. properties file   788 does not exist.
          IDoAtm=111111
          Differentiating once with respect to electric field.
                with respect to dipole field.
          Differentiating once with respect to nuclear coordinates.
 Keep R1 ints in memory in symmetry-blocked form, NReq=39659602.
          There are    18 degrees of freedom in the 1st order CPHF.  IDoFFX=4 NUNeed=    18.
     18 vectors produced by pass  0 Test12= 7.73D-15 5.56D-09 XBig12= 2.90D+01 2.12D+00.
 AX will form    18 AO Fock derivatives at one time.
     18 vectors produced by pass  1 Test12= 7.73D-15 5.56D-09 XBig12= 3.18D+00 6.18D-01.
     18 vectors produced by pass  2 Test12= 7.73D-15 5.56D-09 XBig12= 5.84D-02 4.87D-02.
     18 vectors produced by pass  3 Test12= 7.73D-15 5.56D-09 XBig12= 7.94D-05 2.10D-03.
     18 vectors produced by pass  4 Test12= 7.73D-15 5.56D-09 XBig12= 1.52D-07 1.22D-04.
     11 vectors produced by pass  5 Test12= 7.73D-15 5.56D-09 XBig12= 1.76D-10 3.88D-06.
      3 vectors produced by pass  6 Test12= 7.73D-15 5.56D-09 XBig12= 9.66D-14 6.46D-08.
 InvSVY:  IOpt=1 It=  1 EMax= 7.37D-16
 Solved reduced A of dimension   104 with    18 vectors.
 Isotropic polarizability for W=    0.000000       31.12 Bohr**3.
 End of Minotr F.D. properties file   721 does not exist.
 End of Minotr F.D. properties file   722 does not exist.
 End of Minotr F.D. properties file   788 does not exist.

 **********************************************************************

            Population analysis using the SCF Density.

 **********************************************************************

 Orbital symmetries:
       Occupied  (A') (A') (A') (A') (A') (A") (A') (A') (A') (A")
                 (A') (A') (A")
[...]
     4   1     0.00   0.00   0.38     0.03   0.68   0.00     0.11   0.42  -0.00
     5   1     0.30  -0.03  -0.15     0.14   0.25   0.01     0.19  -0.28  -0.03
     6   1    -0.30   0.03  -0.15     0.14   0.25  -0.01     0.19  -0.28   0.03
                      4                      5                      6
                     A"                     A'                     A'
 Frequencies --    971.0319              1097.4521              1359.9307
 Red. masses --      1.1778                 1.2284                 1.1491
 Frc consts  --      0.6543                 0.8717                 1.2521
 IR Inten    --      4.7217                13.1855                 7.7071
  Atom  AN      X      Y      Z        X      Y      Z        X      Y      Z
     1   6    -0.00  -0.00   0.12     0.12  -0.00  -0.00     0.00  -0.11  -0.00
     2  16    -0.00   0.00  -0.03    -0.03  -0.02  -0.00     0.00  -0.01   0.00
     3   1     0.00   0.00   0.03     0.05   0.67   0.00    -0.00  -0.04  -0.00
     4   1     0.00   0.00  -0.24    -0.03  -0.53   0.00     0.18   0.58   0.00
     5   1     0.06   0.65  -0.20    -0.20   0.29   0.05    -0.14   0.51  -0.17
     6   1    -0.06  -0.65  -0.20    -0.20   0.29  -0.05    -0.14   0.51   0.17
                      7                      8                      9
                     A"                     A'                     A'
 Frequencies --   1474.3184              1487.5174              2669.9545
 Red. masses --      1.0530                 1.0500                 1.0386
 Frc consts  --      1.3486                 1.3689                 4.3624
 IR Inten    --      4.5770                 7.9221                 5.8296
  Atom  AN      X      Y      Z        X      Y      Z        X      Y      Z
     1   6    -0.00   0.00  -0.06    -0.06  -0.01   0.00     0.00  -0.00  -0.00
     2  16    -0.00  -0.00  -0.00    -0.00  -0.00   0.00    -0.03   0.00   0.00
     3   1     0.00   0.00  -0.01     0.00   0.04  -0.00     0.99  -0.12  -0.00
     4   1    -0.00  -0.00   0.73    -0.13  -0.33  -0.00    -0.01   0.01  -0.00
     5   1    -0.40   0.26   0.07     0.50   0.21  -0.38    -0.00  -0.00  -0.00
     6   1     0.40  -0.26   0.07     0.50   0.21   0.38    -0.00  -0.00   0.00
                     10                     11                     12
                     A'                     A"                     A'
 Frequencies --   3056.0495              3137.9264              3141.1416
 Red. masses --      1.0292                 1.1081                 1.1040
 Frc consts  --      5.6631                 6.4285                 6.4182
 IR Inten    --     25.7774                 7.5401                 6.8942
  Atom  AN      X      Y      Z        X      Y      Z        X      Y      Z
     1   6     0.00   0.04  -0.00     0.00   0.00  -0.10    -0.09  -0.00  -0.00
     2  16    -0.00   0.00  -0.00     0.00   0.00   0.00    -0.00   0.00   0.00
     3   1     0.00  -0.00   0.00    -0.00  -0.00   0.00     0.02  -0.01  -0.00
     4   1     0.51  -0.14   0.00    -0.00   0.00  -0.02     0.81  -0.23  -0.00
     5   1    -0.27  -0.20  -0.50     0.32   0.24   0.58     0.15   0.13   0.32
     6   1    -0.27  -0.20   0.50    -0.32  -0.24   0.58     0.15   0.13  -0.32

 -------------------
 - Thermochemistry -
 -------------------
 Temperature   298.150 Kelvin.  Pressure   1.00000 Atm.
 Atom     1 has atomic number  6 and mass  12.00000
 Atom     2 has atomic number 16 and mass  31.97207
 Atom     3 has atomic number  1 and mass   1.00783
 Atom     4 has atomic number  1 and mass   1.00783
 Atom     5 has atomic number  1 and mass   1.00783
 Atom     6 has atomic number  1 and mass   1.00783
 Molecular mass:    48.00337 amu.
 Principal axes and moments of inertia in atomic units:
                           1         2         3
     Eigenvalues --    17.46145 140.85966 146.86226
           X           -0.03079   0.99953   0.00000
           Y            0.99953   0.03079   0.00000
           Z           -0.00000  -0.00000   1.00000
 This molecule is an asymmetric top.
 Rotational symmetry number  1.
 Rotational temperatures (Kelvin)      4.96029     0.61490     0.58976
 Rotational constants (GHZ):         103.35574    12.81234    12.28867
 Zero-point vibrational energy     120346.2 (Joules/Mol)
                                   28.76343 (Kcal/Mol)
 Warning -- explicit consideration of   1 degrees of freedom as
           vibrations may cause significant error
 Vibrational temperatures:    333.84  1001.26  1146.78  1397.10  1578.99
          (Kelvin)           1956.64  2121.22  2140.21  3841.47  4396.97
                             4514.78  4519.40
 
 Zero-point correction=                           0.045837 (Hartree/Particle)
 Thermal correction to Energy=                    0.049462
 Thermal correction to Enthalpy=                  0.050406
 Thermal correction to Gibbs Free Energy=         0.021590
 Sum of electronic and zero-point Energies=           -438.715308
 Sum of electronic and thermal Energies=              -438.711684
 Sum of electronic and thermal Enthalpies=            -438.710739
 Sum of electronic and thermal Free Energies=         -438.739555
 
                     E (Thermal)             CV                S
                      KCal/Mol        Cal/Mol-Kelvin    Cal/Mol-Kelvin
 Total                   31.038             10.221             60.648
 Electronic               0.000              0.000              0.000
 Translational            0.889              2.981             37.530
 Rotational               0.889              2.981             20.518
 Vibrational             29.260              4.259              2.599
 Vibration     1          0.653              1.792              1.863
                       Q            Log10(Q)             Ln(Q)
 Total Bot       0.117273D-09         -9.930802        -22.866517
 Total V=0       0.142214D+12         11.152941         25.680596
 Vib (Bot)       0.131857D-20        -20.879898        -48.077741
 Vib (Bot)    1  0.848084D+00         -0.071561         -0.164776
 Vib (V=0)       0.159899D+01          0.203845          0.469371
 Vib (V=0)    1  0.148450D+01          0.171581          0.395080
 Electronic      0.100000D+01          0.000000          0.000000
 Translational   0.130726D+08          7.116361         16.386028
 Rotational      0.680353D+04          3.832734          8.825197
 ***** Axes restored to original set *****
 -------------------------------------------------------------------
 Center     Atomic                   Forces (Hartrees/Bohr)
 Number     Number              X              Y              Z
 -------------------------------------------------------------------
      1        6           0.000060947   -0.000448928   -0.000000000
      2       16          -0.000121763    0.000166172   -0.000000000
      3        1           0.000077413    0.000004884    0.000000000
      4        1          -0.000063695    0.000048378   -0.000000000
      5        1           0.000023549    0.000114747    0.000046073
      6        1           0.000023549    0.000114747   -0.000046073
 -------------------------------------------------------------------
 Cartesian Forces:  Max     0.000448928 RMS     0.000127321
 FormGI is forming the generalized inverse of G from B-inverse, IUseBI=4.

 GradGradGradGradGradGradGradGradGradGradGradGradGradGradGradGradGradGrad
 Berny optimization.
 Internal  Forces:  Max     0.000171252 RMS     0.000079999
 Search for a local minimum.
 Step number   1 out of a maximum of    2
 All quantities printed in internal units (Hartrees-Bohrs-Radians)
 Second derivative matrix not updated -- analytic derivatives used.
 The second derivative matrix:
                          R1        R2        R3        R4        R5
           R1           0.19708
           R2           0.00440   0.34419
           R3           0.00512   0.00258   0.34195
           R4           0.00512   0.00258   0.00309   0.34195
           R5           0.00085  -0.00129   0.00033   0.00033   0.26362
           A1           0.01543   0.00193  -0.00464  -0.00464   0.00255
           A2           0.02110  -0.00566  -0.00508  -0.00451  -0.00093
           A3           0.02110  -0.00566  -0.00451  -0.00508  -0.00093
           A4          -0.01948   0.00694   0.00872  -0.00361  -0.00028
           A5          -0.01948   0.00694  -0.00361   0.00872  -0.00028
           A6          -0.01927  -0.00361   0.00890   0.00890  -0.00002
           A7           0.02487   0.00294  -0.00103  -0.00103  -0.00023
           D1           0.00000  -0.00000  -0.00451   0.00451  -0.00000
           D2          -0.00284   0.00645   0.00045  -0.00502   0.00069
           D3           0.00284  -0.00645   0.00502  -0.00045  -0.00069
                          A1        A2        A3        A4        A5
           A1           0.10735
           A2          -0.01838   0.10474
           A3          -0.01838  -0.02325   0.10474
           A4          -0.03399  -0.03051  -0.00002   0.06452
           A5          -0.03399  -0.00002  -0.03051   0.00064   0.06452
           A6          -0.00016  -0.03422  -0.03422   0.00076   0.00076
           A7           0.03316  -0.01118  -0.01118  -0.00623  -0.00623
           D1          -0.00000  -0.00989   0.00989  -0.01974   0.01974
           D2           0.01346  -0.00126  -0.01359   0.02101   0.00019
           D3          -0.01346   0.01359   0.00126  -0.00019  -0.02101
                          A6        A7        D1        D2        D3
           A6           0.06546
           A7           0.00276   0.19703
           D1           0.00000   0.00000   0.01968
           D2          -0.01756   0.00633  -0.00931   0.02327
           D3           0.01756  -0.00633  -0.00931  -0.01027   0.02327
 ITU=  0
     Eigenvalues ---    0.00275   0.07828   0.08063   0.10381   0.12251
     Eigenvalues ---    0.14029   0.19787   0.24168   0.26373   0.33975
     Eigenvalues ---    0.34212   0.34997
 Angle between quadratic step and forces=  21.68 degrees.
 Linear search not attempted -- first point.
 Iteration  1 RMS(Cart)=  0.00049069 RMS(Int)=  0.00000045
 Iteration  2 RMS(Cart)=  0.00000033 RMS(Int)=  0.00000027
 ClnCor:  largest displacement from symmetrization is 1.77D-13 for atom     2.
 Variable       Old X    -DE/DX   Delta X   Delta X   Delta X     New X
                                 (Linear)    (Quad)   (Total)
    R1        3.45187  -0.00017   0.00000  -0.00138  -0.00138   3.45049
    R2        2.05481   0.00007   0.00000   0.00029   0.00029   2.05511
    R3        2.05353   0.00009   0.00000   0.00034   0.00034   2.05387
    R4        2.05353   0.00009   0.00000   0.00034   0.00034   2.05387
    R5        2.53751   0.00008   0.00000   0.00030   0.00030   2.53782
    A1        1.85189  -0.00000   0.00000   0.00013   0.00013   1.85202
    A2        1.94248   0.00010   0.00000   0.00107   0.00107   1.94355
    A3        1.94248   0.00010   0.00000   0.00107   0.00107   1.94355
    A4        1.89914  -0.00006   0.00000  -0.00075  -0.00075   1.89839
    A5        1.89914  -0.00006   0.00000  -0.00075  -0.00075   1.89839
    A6        1.92634  -0.00009   0.00000  -0.00082  -0.00082   1.92552
    A7        1.69553  -0.00004   0.00000   0.00006   0.00006   1.69560
    D1        3.14159  -0.00000   0.00000  -0.00000   0.00000   3.14159
    D2       -1.07834  -0.00002   0.00000  -0.00024  -0.00024  -1.07858
    D3        1.07834   0.00002   0.00000   0.00024   0.00024   1.07858
         Item               Value     Threshold  Converged?
 Maximum Force            0.000171     0.000450     YES
 RMS     Force            0.000080     0.000300     YES
 Maximum Displacement     0.001128     0.001800     YES
 RMS     Displacement     0.000491     0.001200     YES
 Predicted change in Energy=-3.674821D-07
 Optimization completed.
    -- Stationary point found.
                           ----------------------------
                           !   Optimized Parameters   !
                           ! (Angstroms and Degrees)  !
 --------------------------                            --------------------------
 ! Name  Definition              Value          Derivative Info.                !
 --------------------------------------------------------------------------------
 ! R1    R(1,2)                  1.8266         -DE/DX =   -0.0002              !
 ! R2    R(1,4)                  1.0874         -DE/DX =    0.0001              !
 ! R3    R(1,5)                  1.0867         -DE/DX =    0.0001              !
 ! R4    R(1,6)                  1.0867         -DE/DX =    0.0001              !
 ! R5    R(2,3)                  1.3428         -DE/DX =    0.0001              !
 ! A1    A(2,1,4)              106.1054         -DE/DX =    0.0                 !
 ! A2    A(2,1,5)              111.2958         -DE/DX =    0.0001              !
 ! A3    A(2,1,6)              111.2958         -DE/DX =    0.0001              !
 ! A4    A(4,1,5)              108.8125         -DE/DX =   -0.0001              !
 ! A5    A(4,1,6)              108.8125         -DE/DX =   -0.0001              !
 ! A6    A(5,1,6)              110.3711         -DE/DX =   -0.0001              !
 ! A7    A(1,2,3)               97.1469         -DE/DX =    0.0                 !
 ! D1    D(4,1,2,3)            180.0            -DE/DX =    0.0                 !
 ! D2    D(5,1,2,3)            -61.7843         -DE/DX =    0.0                 !
 ! D3    D(6,1,2,3)             61.7843         -DE/DX =    0.0                 !
 --------------------------------------------------------------------------------
 GradGradGradGradGradGradGradGradGradGradGradGradGradGradGradGradGradGrad


 ----------------------------------------------------------------------

 Electric dipole moment (input orientation):
 (Debye = 10**-18 statcoulomb cm , SI units = C m)
                  (au)            (Debye)         (10**-30 SI)
   Tot        0.632959D+00      0.160882D+01      0.536645D+01
   x          0.302677D+00      0.769329D+00      0.256621D+01
   y          0.555899D+00      0.141295D+01      0.471311D+01
   z          0.000000D+00      0.000000D+00      0.000000D+00

 Dipole polarizability, Alpha (input orientation).
 (esu units = cm**3 , SI units = C**2 m**2 J**-1)
 Alpha(0;0):
               (au)            (10**-24 esu)      (10**-40 SI)
   iso        0.311242D+02      0.461213D+01      0.513169D+01
   aniso      0.117900D+02      0.174709D+01      0.194390D+01
   xx         0.294187D+02      0.435940D+01      0.485049D+01
   yx        -0.156991D+01     -0.232636D+00     -0.258843D+00
   yy         0.384336D+02      0.569527D+01      0.633684D+01
   zx         0.000000D+00      0.000000D+00      0.000000D+00
   zy         0.000000D+00      0.000000D+00      0.000000D+00
   zz         0.255203D+02      0.378172D+01      0.420773D+01

 ----------------------------------------------------------------------

 Dipole orientation:
     6         -0.99213810          0.54020206          1.88560906
    16          0.46000608         -0.25046537         -1.14449211
     1          2.53390029         -1.37966493         -0.21559538
     1         -2.75390680          1.49945468          1.44035213
     1         -1.41470772         -1.14939139          2.97359535
     1          0.19772750          1.81201610          2.97359535

 Electric dipole moment (dipole orientation):
 (Debye = 10**-18 statcoulomb cm , SI units = C m)
                  (au)            (Debye)         (10**-30 SI)
   Tot        0.632959D+00      0.160882D+01      0.536645D+01
   x          0.000000D+00      0.000000D+00      0.000000D+00
   y          0.000000D+00      0.000000D+00      0.000000D+00
   z          0.632959D+00      0.160882D+01      0.536645D+01

 Dipole polarizability, Alpha (dipole orientation).
 (esu units = cm**3 , SI units = C**2 m**2 J**-1)
 Alpha(0;0):
               (au)            (10**-24 esu)      (10**-40 SI)
   iso        0.311242D+02      0.461213D+01      0.513169D+01
   aniso      0.117900D+02      0.174709D+01      0.194390D+01
   xx         0.311344D+02      0.461364D+01      0.513337D+01
   yx        -0.305678D+01     -0.452968D+00     -0.503995D+00
   yy         0.271847D+02      0.402835D+01      0.448215D+01
   zx        -0.407331D+01     -0.603602D+00     -0.671598D+00
   zy         0.221785D+01      0.328651D+00      0.365674D+00
   zz         0.350535D+02      0.519439D+01      0.577954D+01

 ----------------------------------------------------------------------
 1\1\GINC-GAMBA\Freq\RB3LYP\Gen\C1H4S1\IRIKURA\25-Feb-2022\0\\#N Geom=A
 llCheck Guess=TCheck SCRF=Check GenChk RB3LYP/ChkBas Freq\\methanethio
 l, B3LYP/pcseg-2\\0,1\C,-0.047864496,1.162203328,0.\S,-0.0461883882,-0
 .6644456374,0.\H,1.2863259886,-0.8302856406,0.\H,-1.0928243758,1.46288
 38761,0.\H,0.4304676357,1.557307537,0.8921730675\H,0.4304676357,1.5573
 07537,-0.8921730675\\Version=ES64L-G16RevB.01\State=1-A'\HF=-438.76114
 51\RMSD=8.581e-10\RMSF=1.273e-04\ZeroPoint=0.0458374\Thermal=0.0494616
 \Dipole=0.3026775,0.5558991,0.\DipoleDeriv=0.012247,-0.1015305,0.,0.03
 02807,0.2899868,0.,0.,0.,0.0632062,0.0240993,0.1212457,0.,0.0452283,-0
 .0660553,0.,0.,0.,-0.2448579,-0.0860969,0.0201857,0.,-0.0655977,-0.016
 1098,0.,0.,0.,0.1333641,-0.0574661,0.0484109,0.,0.0324319,0.0005495,0.
 ,0.,0.,0.0881873,0.0536084,-0.0441559,-0.0526129,-0.0211716,-0.1041856
 ,-0.0570784,-0.05804,-0.0632105,-0.0199499,0.0536084,-0.0441559,0.0526
 129,-0.0211716,-0.1041856,0.0570784,0.05804,0.0632105,-0.0199499\Polar
 =29.4187055,-1.5699082,38.4335888,0.,0.,25.5203156\Quadrupole=1.118722
 7,0.2299665,-1.3486892,-0.9520548,0.,0.\PG=CS [SG(C1H2S1),X(H2)]\NImag
 =0\\0.55604168,0.01638496,0.34266739,0.,0.,0.54763001,-0.05039958,0.00
 048008,0.,0.30756943,-0.02940297,-0.13295243,0.,-0.00637674,0.21155781
 ,0.,0.,-0.03059163,0.,0.,0.02151875,0.00004985,-0.00038984,0.,-0.26249
 018,0.02883169,0.,0.26009218,0.02912734,-0.00605207,0.,0.00055302,-0.0
 2429029,0.,-0.02846854,0.03409550,0.,0.,0.00140610,0.,0.,-0.00202658,0
 .,0.,0.00128892,-0.30162191,0.07020809,0.,0.00166403,0.00070474,0.,0.0
 0148961,-0.00116516,0.,0.32290674,0.07266715,-0.06068224,0.,0.02631182
 ,-0.00984754,0.,0.00001733,-0.00763299,0.,-0.07639070,0.07034331,0.,0.
 ,-0.04631820,0.,0.,-0.00018582,0.,0.,-0.00014542,0.,0.,0.04466036,-0.1
 0203502,-0.04334165,-0.09840004,0.00182815,0.00312164,0.00158210,0.000
 42927,-0.00002333,0.00095062,-0.01221924,-0.01130280,-0.02574788,0.104
 37805,-0.04438824,-0.07149032,-0.08273672,-0.01048409,-0.02223377,-0.0
 1724366,0.00000467,0.00193992,0.00049336,0.00332151,0.00390973,0.00833
 125,0.04568256,0.08261538,-0.09982020,-0.07640731,-0.23606314,0.002250
 36,0.00149070,0.00564264,0.00023215,-0.00040575,-0.00026151,0.00087908
 ,0.00110800,0.00099454,0.10903691,0.08268507,0.24925077,-0.10203502,-0
 .04334165,0.09840004,0.00182815,0.00312164,-0.00158210,0.00042927,-0.0
 0002333,-0.00095062,-0.01221924,-0.01130280,0.02574788,0.00761879,0.00
 586358,-0.01257830,0.10437805,-0.04438824,-0.07149032,0.08273672,-0.01
 048409,-0.02223377,0.01724366,0.00000467,0.00193992,-0.00049336,0.0033
 2151,0.00390973,-0.00833125,0.00586358,0.00525907,-0.00847070,0.045682
 56,0.08261538,0.09982020,0.07640731,-0.23606314,-0.00225036,-0.0014907
 0,0.00564264,-0.00023215,0.00040575,-0.00026151,-0.00087908,-0.0011080
 0,0.00099454,0.01257830,0.00847070,-0.01956330,-0.10903691,-0.08268507
 ,0.24925077\\-0.00006095,0.00044893,0.,0.00012176,-0.00016617,0.,-0.00
 007741,-0.00000488,0.,0.00006369,-0.00004838,0.,-0.00002355,-0.0001147
 5,-0.00004607,-0.00002355,-0.00011475,0.00004607\\\@


 We find comfort among those who agree with us -- growth among those who don't.
 -- Frank A. Clark
 Job cpu time:       0 days  0 hours  2 minutes  6.2 seconds.
 Elapsed time:       0 days  0 hours  0 minutes 31.6 seconds.
 File lengths (MBytes):  RWF=     12 Int=      0 D2E=      0 Chk=      2 Scr=      1
 Normal termination of Gaussian 16 at Fri Feb 25 20:49:22 2022.
