 Entering Gaussian System, Link 0=g16
 AtFile(1): pcseg2.gbs
            -H     0
            S   4   1.00
                  0.754732D+02           0.427821D-02
                  0.113575D+02           0.328672D-01
                  0.260081D+01           0.159578D+00
                  0.735503D+00           0.500000D+00
            S   1   1.00
                  0.231761D+00           1.0000000
            S   1   1.00
                  0.741675D-01           1.0000000
            P   1   1.00
                  0.160000D+01           1.0000000
            P   1   1.00
                  0.450000D+00           1.0000000
            D   1   1.00
                  0.125000D+01           1.0000000
            ****
            -C     0
            S   7   1.00
                  0.731999D+04           0.695369D-03
                  0.109818D+04           0.537138D-02
                  0.250014D+03           0.274734D-01
                  0.707586D+02           0.105078D+00
                  0.228595D+02           0.291262D+00
                  0.803936D+01           0.500000D+00
                  0.289309D+01           0.362224D+00
            S   2   1.00
                  0.521640D+01          -0.957844D-01
                  0.556124D+00           0.500000D+00
            S   1   1.00
                  0.228813D+00           1.0000000
            S   1   1.00
                  0.936338D-01           1.0000000
            P   4   1.00
                  0.339855D+02           0.818395D-02
                  0.772957D+01           0.586921D-01
                  0.224954D+01           0.222514D+00
                  0.767681D+00           0.500000D+00
            P   1   1.00
                  0.263283D+00           1.0000000
            P   1   1.00
                  0.848744D-01           1.0000000
            D   1   1.00
                  0.140000D+01           1.0000000
            D   1   1.00
                  0.450000D+00           1.0000000
            F   1   1.00
                  0.950000D+00           1.0000000
            ****
            -O     0
            S   7   1.00
                  0.135887D+05           0.665492D-03
                  0.203847D+04           0.514222D-02
                  0.464041D+03           0.263472D-01
                  0.131339D+03           0.101500D+00
                  0.425340D+02           0.285877D+00
                  0.150429D+02           0.500000D+00
                  0.546616D+01           0.368211D+00
            S   2   1.00
                  0.100915D+02          -0.100084D+00
                  0.110429D+01           0.500000D+00
            S   1   1.00
                  0.448082D+00           1.0000000
            S   1   1.00
                  0.175325D+00           1.0000000
            P   4   1.00
                  0.608220D+02           0.908253D-02
                  0.140332D+02           0.645878D-01
                  0.418244D+01           0.241502D+00
                  0.142490D+01           0.500000D+00
            P   1   1.00
                  0.478741D+00           1.0000000
            P   1   1.00
                  0.146257D+00           1.0000000
            D   1   1.00
                  0.220000D+01           1.0000000
            D   1   1.00
                  0.650000D+00           1.0000000
            F   1   1.00
                  0.110000D+01           1.0000000
            ****
            -N     0
            S   7   1.00
                  0.101643D+05           0.682757D-03
                  0.152481D+04           0.527488D-02
                  0.347119D+03           0.270037D-01
                  0.982389D+02           0.103673D+00
                  0.317799D+02           0.289575D+00
                  0.112240D+02           0.500000D+00
                  0.406611D+01           0.364621D+00
            S   2   1.00
                  0.747898D+01          -0.975681D-01
                  0.805040D+00           0.500000D+00
            S   1   1.00
                  0.324626D+00           1.0000000
            S   1   1.00
                  0.128132D+00           1.0000000
            P   4   1.00
                  0.482704D+02           0.829547D-02
                  0.110815D+02           0.596223D-01
                  0.326643D+01           0.227889D+00
                  0.111680D+01           0.500000D+00
            P   1   1.00
                  0.382049D+00           1.0000000
            P   1   1.00
                  0.121222D+00           1.0000000
            D   1   1.00
                  0.180000D+01           1.0000000
            D   1   1.00
                  0.550000D+00           1.0000000
            F   1   1.00
                  0.102000D+01           1.0000000
            ****
            -F     0
            S   7   1.00
                  0.174507D+05           0.655972D-03
                  0.261768D+04           0.506944D-02
                  0.595857D+03           0.259899D-01
                  0.168651D+03           0.100353D+00
                  0.546654D+02           0.284095D+00
                  0.193717D+02           0.500000D+00
                  0.706202D+01           0.370721D+00
            S   2   1.00
                  0.131197D+02          -0.101997D+00
                  0.145046D+01           0.500000D+00
            S   1   1.00
                  0.588255D+00           1.0000000
            S   1   1.00
                  0.227960D+00           1.0000000
            P   4   1.00
                  0.779407D+02           0.931135D-02
                  0.180425D+02           0.663964D-01
                  0.542342D+01           0.246386D+00
                  0.184876D+01           0.500000D+00
            P   1   1.00
                  0.617455D+00           1.0000000
            P   1   1.00
                  0.185496D+00           1.0000000
            D   1   1.00
                  0.280000D+01           1.0000000
            D   1   1.00
                  0.800000D+00           1.0000000
            F   1   1.00
                  0.120000D+01           1.0000000
            ****
            -Cl     0
            S   8   1.00
                  0.154272D+06           0.222473D-03
                  0.231232D+05           0.172590D-02
                  0.526257D+04           0.899286D-02
                  0.148995D+04           0.367724D-01
                  0.485417D+03           0.121446D+00
                  0.174634D+03           0.304148D+00
                  0.672393D+02           0.500000D+00
                  0.265780D+02           0.360252D+00
            S   3   1.00
                  0.131826D+03          -0.531330D-01
                  0.400703D+02          -0.233346D+00
                  0.789448D+01           0.500000D+00
            S   2   1.00
                  0.427711D+01           0.500000D+00
                  0.196233D+01           0.370517D+00
            S   1   1.00
                  0.520793D+00           1.0000000
            S   1   1.00
                  0.181633D+00           1.0000000
            P   7   1.00
                  0.124440D+04           0.988206D-03
                  0.295109D+03           0.829674D-02
                  0.947224D+02           0.430906D-01
                  0.352588D+02           0.148443D+00
                  0.144211D+02           0.344744D+00
                  0.610371D+01           0.500000D+00
                  0.258886D+01           0.348278D+00
            P   2   1.00
                  0.109447D+02          -0.196768D-01
                  0.104413D+01           0.500000D+00
            P   1   1.00
                  0.376184D+00           1.0000000
            P   1   1.00
                  0.120613D+00           1.0000000
            D   1   1.00
                  0.231000D+01           1.0000000
            D   1   1.00
                  0.520000D+00           1.0000000
            F   1   1.00
                  0.720000D+00           1.0000000
            ****
            -S     0
            S   8   1.00
                  0.134700D+06           0.226231D-03
                  0.201904D+05           0.175488D-02
                  0.459528D+04           0.914190D-02
                  0.130109D+04           0.373551D-01
                  0.423902D+03           0.123121D+00
                  0.152485D+03           0.306801D+00
                  0.586925D+02           0.500000D+00
                  0.231461D+02           0.354358D+00
            S   3   1.00
                  0.116327D+03          -0.491772D-01
                  0.352841D+02          -0.215962D+00
                  0.677831D+01           0.500000D+00
            S   2   1.00
                  0.360404D+01           0.500000D+00
                  0.164871D+01           0.366278D+00
            S   1   1.00
                  0.421821D+00           1.0000000
            S   1   1.00
                  0.147554D+00           1.0000000
            P   7   1.00
                  0.104863D+04           0.105273D-02
                  0.248717D+03           0.879338D-02
                  0.797887D+02           0.453358D-01
                  0.296023D+02           0.154476D+00
                  0.120627D+02           0.352366D+00
                  0.507628D+01           0.500000D+00
                  0.213375D+01           0.346429D+00
            P   2   1.00
                  0.928958D+01          -0.185932D-01
                  0.837819D+00           0.500000D+00
            P   1   1.00
                  0.301495D+00           1.0000000
            P   1   1.00
                  0.974740D-01           1.0000000
            D   1   1.00
                  0.210000D+01           1.0000000
            D   1   1.00
                  0.480000D+00           1.0000000
            F   1   1.00
                  0.660000D+00           1.0000000
            ****
            -Br     0
            S    10   1.00
                  0.233625D+07           0.532336D-04
                  0.349961D+06           0.413715D-03
                  0.796444D+05           0.217123D-02
                  0.225555D+05           0.910109D-02
                  0.735546D+04           0.323789D-01
                  0.265352D+04           0.988755D-01
                  0.103517D+04           0.248138D+00
                  0.422205D+03           0.474328D+00
                  0.180035D+03           0.500000D+00
                  0.793308D+02           0.187769D+00
            S    4   1.00
                  0.620834D+03          -0.226511D-01
                  0.190829D+03          -0.109497D+00
                  0.312505D+02           0.500000D+00
                  0.135270D+02           0.492812D+00
            S    2   1.00
                  0.216097D+02          -0.165418D+00
                  0.372566D+01           0.500000D+00
            S    1   1.00
                  0.169770D+01           1.0000000
            S    1   1.00
                  0.489332D+00           1.0000000
            S    1   1.00
                  0.175712D+00           1.0000000
            P    8   1.00
                  0.960829D+04           0.478974D-03
                  0.227618D+04           0.417853D-02
                  0.736723D+03           0.229315D-01
                  0.281579D+03           0.892653D-01
                  0.118395D+03           0.255288D+00
                  0.527481D+02           0.479074D+00
                  0.245098D+02           0.500000D+00
                  0.112009D+02           0.200944D+00
            P    4   1.00
                  0.587849D+02          -0.189674D-01
                  0.918962D+01           0.264104D+00
                  0.413895D+01           0.500000D+00
                  0.184225D+01           0.319316D+00
            P    1   1.00
                  0.713862D+00           1.0000000
            P    1   1.00
                  0.274232D+00           1.0000000
            P    1   1.00
                  0.944411D-01           1.0000000
            D    7   1.00
                  0.398470D+03           0.204066D-02
                  0.118967D+03           0.175171D-01
                  0.450197D+02           0.829708D-01
                  0.190320D+02           0.236284D+00
                  0.855686D+01           0.428468D+00
                  0.382950D+01           0.500000D+00
                  0.166291D+01           0.349360D+00
            D    1   1.00
                  0.672953D+00           1.0000000
            D    1   1.00
                  0.252000D+00           1.0000000
            F    1   1.00
                  0.530000D+00           1.0000000
            ****
            -Si     0
            S    8   1.00
                  0.996133D+05           0.235546D-03
                  0.149311D+05           0.182707D-02
                  0.339820D+04           0.951425D-02
                  0.962140D+03           0.388172D-01
                  0.313430D+03           0.127328D+00
                  0.112683D+03           0.313522D+00
                  0.433372D+02           0.500000D+00
                  0.170029D+02           0.340347D+00
            S    3   1.00
                  0.884208D+02          -0.404451D-01
                  0.266756D+02          -0.178059D+00
                  0.479640D+01           0.500000D+00
            S    2   1.00
                  0.239385D+01           0.500000D+00
                  0.108333D+01           0.338016D+00
            S    1   1.00
                  0.252420D+00           1.0000000
            S    1   1.00
                  0.891210D-01           1.0000000
            P    7   1.00
                  0.709901D+03           0.123028D-02
                  0.168426D+03           0.101366D-01
                  0.539946D+02           0.511840D-01
                  0.198646D+02           0.169967D+00
                  0.801369D+01           0.370717D+00
                  0.331870D+01           0.500000D+00
                  0.136112D+01           0.344128D+00
            P    2   1.00
                  0.622158D+01          -0.166609D-01
                  0.503049D+00           0.500000D+00
            P    1   1.00
                  0.179848D+00           1.0000000
            P    1   1.00
                  0.591912D-01           1.0000000
            D    1   1.00
                  0.168000D+01           1.0000000
            D    1   1.00
                  0.380000D+00           1.0000000
            F    1   1.00
                  0.540000D+00           1.0000000
            ****
            -P     0
            S    8   1.00
                  0.116416D+06           0.230715D-03
                  0.174500D+05           0.178960D-02
                  0.397149D+04           0.932116D-02
                  0.112447D+04           0.380591D-01
                  0.366347D+03           0.125148D+00
                  0.131757D+03           0.310022D+00
                  0.506988D+02           0.500000D+00
                  0.199436D+02           0.347528D+00
            S    3   1.00
                  0.101878D+03          -0.446755D-01
                  0.308249D+02          -0.196376D+00
                  0.573688D+01           0.500000D+00
            S    2   1.00
                  0.296868D+01           0.500000D+00
                  0.135315D+01           0.355098D+00
            S    1   1.00
                  0.332196D+00           1.0000000
            S    1   1.00
                  0.116229D+00           1.0000000
            P    7   1.00
                  0.873928D+03           0.112375D-02
                  0.207298D+03           0.933330D-02
                  0.664628D+02           0.477213D-01
                  0.245665D+02           0.160733D+00
                  0.996820D+01           0.359760D+00
                  0.416536D+01           0.500000D+00
                  0.173022D+01           0.346593D+00
            P    2   1.00
                  0.772530D+01          -0.175718D-01
                  0.657252D+00           0.500000D+00
            P    1   1.00
                  0.239903D+00           1.0000000
            P    1   1.00
                  0.800988D-01           1.0000000
            D    1   1.00
                  0.189000D+01           1.0000000
            D    1   1.00
                  0.430000D+00           1.0000000
            F    1   1.00
                  0.600000D+00           1.0000000
            ****
            
 Initial command:
 /usr/local/apps/g16_b01_avx/g16/l1.exe "/wrk/irikura/Gau-417931.inp" -scrdir="/wrk/irikura/"
 Entering Link 1 = /usr/local/apps/g16_b01_avx/g16/l1.exe PID=    417933.
  
 Copyright (c) 1988-2017, Gaussian, Inc.  All Rights Reserved.
  
 This is part of the Gaussian(R) 16 program.  It is based on
 the Gaussian(R) 09 system (copyright 2009, Gaussian, Inc.),
 the Gaussian(R) 03 system (copyright 2003, Gaussian, Inc.),
 the Gaussian(R) 98 system (copyright 1998, Gaussian, Inc.),
 the Gaussian(R) 94 system (copyright 1995, Gaussian, Inc.),
 the Gaussian 92(TM) system (copyright 1992, Gaussian, Inc.),
 the Gaussian 90(TM) system (copyright 1990, Gaussian, Inc.),
 the Gaussian 88(TM) system (copyright 1988, Gaussian, Inc.),
 the Gaussian 86(TM) system (copyright 1986, Carnegie Mellon
 University), and the Gaussian 82(TM) system (copyright 1983,
 Carnegie Mellon University). Gaussian is a federally registered
 trademark of Gaussian, Inc.
  
 This software contains proprietary and confidential information,
 including trade secrets, belonging to Gaussian, Inc.
  
 This software is provided under written license and may be
 used, copied, transmitted, or stored only in accord with that
 written license.
  
 The following legend is applicable only to US Government
 contracts under FAR:
  
                    RESTRICTED RIGHTS LEGEND
  
 Use, reproduction and disclosure by the US Government is
 subject to restrictions as set forth in subparagraphs (a)
 and (c) of the Commercial Computer Software - Restricted
 Rights clause in FAR 52.227-19.
  
 Gaussian, Inc.
 340 Quinnipiac St., Bldg. 40, Wallingford CT 06492
  
  
 ---------------------------------------------------------------
 Warning -- This program may not be used in any manner that
 competes with the business of Gaussian, Inc. or will provide
 assistance to any competitor of Gaussian, Inc.  The licensee
 of this program is prohibited from giving any competitor of
 Gaussian, Inc. access to this program.  By using this program,
 the user acknowledges that Gaussian, Inc. is engaged in the
 business of creating and licensing software in the field of
 computational chemistry and represents and warrants to the
 licensee that it is not a competitor of Gaussian, Inc. and that
 it will not use this program in any manner prohibited above.
 ---------------------------------------------------------------
  

 Cite this work as:
 Gaussian 16, Revision B.01,
 M. J. Frisch, G. W. Trucks, H. B. Schlegel, G. E. Scuseria, 
 M. A. Robb, J. R. Cheeseman, G. Scalmani, V. Barone, 
 G. A. Petersson, H. Nakatsuji, X. Li, M. Caricato, A. V. Marenich, 
 J. Bloino, B. G. Janesko, R. Gomperts, B. Mennucci, H. P. Hratchian, 
 J. V. Ortiz, A. F. Izmaylov, J. L. Sonnenberg, D. Williams-Young, 
 F. Ding, F. Lipparini, F. Egidi, J. Goings, B. Peng, A. Petrone, 
 T. Henderson, D. Ranasinghe, V. G. Zakrzewski, J. Gao, N. Rega, 
 G. Zheng, W. Liang, M. Hada, M. Ehara, K. Toyota, R. Fukuda, 
 J. Hasegawa, M. Ishida, T. Nakajima, Y. Honda, O. Kitao, H. Nakai, 
 T. Vreven, K. Throssell, J. A. Montgomery, Jr., J. E. Peralta, 
 F. Ogliaro, M. J. Bearpark, J. J. Heyd, E. N. Brothers, K. N. Kudin, 
 V. N. Staroverov, T. A. Keith, R. Kobayashi, J. Normand, 
 K. Raghavachari, A. P. Rendell, J. C. Burant, S. S. Iyengar, 
 J. Tomasi, M. Cossi, J. M. Millam, M. Klene, C. Adamo, R. Cammi, 
 J. W. Ochterski, R. L. Martin, K. Morokuma, O. Farkas, 
 J. B. Foresman, and D. J. Fox, Gaussian, Inc., Wallingford CT, 2016.
 
 ******************************************
 Gaussian 16:  ES64L-G16RevB.01 20-Dec-2017
                29-Sep-2023 
 ******************************************
 %chk=ch3sh.chk
 %mem=500mw
 %nprocs=4
 Will use up to    4 processors via shared memory.
 ---------------------------------------
 # b3lyp/gen opt freq CPHF(Grid=OneStep)
 ---------------------------------------
 1/18=20,19=15,26=3,38=1/1,3;
 2/9=110,12=2,17=6,18=5,40=1/2;
 3/5=7,11=2,25=1,30=1,71=1,74=-5/1,2,3;
 4//1;
 5/5=2,38=5/2;
 6/7=2,8=2,9=2,10=2,28=1/1;
 7//1,2,3,16;
 1/18=20,19=15,26=3/3(2);
 2/9=110/2;
 99//99;
 2/9=110/2;
 3/5=7,6=1,11=2,25=1,30=1,71=1,74=-5,82=7/1,2,3;
 4/5=5,16=3,69=1/1;
 5/5=2,38=5/2;
 7//1,2,3,16;
 1/18=20,19=15,26=3/3(-5);
 2/9=110/2;
 6/7=2,8=2,9=2,10=2,19=2,28=1/1;
 99/9=1/99;
 ---------------------------
 methanethiol, B3LYP/pcseg-2
 ---------------------------
 Symbolic Z-matrix:
 Charge =  0 Multiplicity = 1
 C                    -0.04789   1.15881   0. 
 S                    -0.04789  -0.66784   0. 
 H                     1.28447  -0.8349    0. 
 H                    -1.09257   1.46045   0. 
 H                     0.43081   1.55348   0.89217 
 H                     0.43081   1.55348  -0.89217 
 

 GradGradGradGradGradGradGradGradGradGradGradGradGradGradGradGradGradGrad
 Berny optimization.
 Initialization pass.
                           ----------------------------
                           !    Initial Parameters    !
                           ! (Angstroms and Degrees)  !
 --------------------------                            --------------------------
 ! Name  Definition              Value          Derivative Info.                !
 --------------------------------------------------------------------------------
 ! R1    R(1,2)                  1.8267         estimate D2E/DX2                !
 ! R2    R(1,4)                  1.0874         estimate D2E/DX2                !
 ! R3    R(1,5)                  1.0867         estimate D2E/DX2                !
 ! R4    R(1,6)                  1.0867         estimate D2E/DX2                !
 ! R5    R(2,3)                  1.3428         estimate D2E/DX2                !
 ! A1    A(2,1,4)              106.1054         estimate D2E/DX2                !
 ! A2    A(2,1,5)              111.2958         estimate D2E/DX2                !
 ! A3    A(2,1,6)              111.2958         estimate D2E/DX2                !
 ! A4    A(4,1,5)              108.8125         estimate D2E/DX2                !
 ! A5    A(4,1,6)              108.8125         estimate D2E/DX2                !
 ! A6    A(5,1,6)              110.3711         estimate D2E/DX2                !
 ! A7    A(1,2,3)               97.1469         estimate D2E/DX2                !
 ! D1    D(4,1,2,3)            180.0            estimate D2E/DX2                !
 ! D2    D(5,1,2,3)            -61.7843         estimate D2E/DX2                !
 ! D3    D(6,1,2,3)             61.7843         estimate D2E/DX2                !
 --------------------------------------------------------------------------------
 Trust Radius=3.00D-01 FncErr=1.00D-07 GrdErr=1.00D-06 EigMax=2.50D+02 EigMin=1.00D-04
 Number of steps in this run=     25 maximum allowed number of steps=    100.
 GradGradGradGradGradGradGradGradGradGradGradGradGradGradGradGradGradGrad

                          Input orientation:                          
 ---------------------------------------------------------------------
 Center     Atomic      Atomic             Coordinates (Angstroms)
 Number     Number       Type             X           Y           Z
 ---------------------------------------------------------------------
      1          6           0       -0.047887    1.158813    0.000000
      2         16           0       -0.047887   -0.667837    0.000000
      3          1           0        1.284474   -0.834899    0.000000
      4          1           0       -1.092571    1.460452    0.000000
      5          1           0        0.430807    1.553478    0.892173
      6          1           0        0.430807    1.553478   -0.892173
 ---------------------------------------------------------------------
                    Distance matrix (angstroms):
                    1          2          3          4          5
     1  C    0.000000
     2  S    1.826650   0.000000
     3  H    2.397931   1.342794   0.000000
     4  H    1.087360   2.370860   3.304388   0.000000
     5  H    1.086684   2.441180   2.688692   1.767854   0.000000
     6  H    1.086684   2.441180   2.688692   1.767854   1.784346
                    6
     6  H    0.000000
 Stoichiometry    CH4S
 Framework group  CS[SG(CH2S),X(H2)]
 Deg. of freedom     8
 Full point group                 CS      NOp   2
 Largest Abelian subgroup         CS      NOp   2
 Largest concise Abelian subgroup CS      NOp   2
                         Standard orientation:                         
 ---------------------------------------------------------------------
 Center     Atomic      Atomic             Coordinates (Angstroms)
 Number     Number       Type             X           Y           Z
 ---------------------------------------------------------------------
      1          6           0       -0.047887    1.158813    0.000000
      2         16           0       -0.047887   -0.667837    0.000000
      3          1           0        1.284474   -0.834899    0.000000
      4          1           0       -1.092571    1.460452    0.000000
      5          1           0        0.430807    1.553478    0.892173
      6          1           0        0.430807    1.553478   -0.892173
 ---------------------------------------------------------------------
 Rotational constants (GHZ):         103.3557800          12.8123333          12.2886642
 General basis read from cards:  (5D, 7F)
 There are    88 symmetry adapted cartesian basis functions of A'  symmetry.
 There are    46 symmetry adapted cartesian basis functions of A"  symmetry.
 There are    77 symmetry adapted basis functions of A'  symmetry.
 There are    43 symmetry adapted basis functions of A"  symmetry.
   120 basis functions,   193 primitive gaussians,   134 cartesian basis functions
    13 alpha electrons       13 beta electrons
       nuclear repulsion energy        56.1609479342 Hartrees.
 NAtoms=    6 NActive=    6 NUniq=    5 SFac= 1.44D+00 NAtFMM=   60 NAOKFM=F Big=F
 Integral buffers will be    131072 words long.
 Raffenetti 2 integral format.
 Two-electron integral symmetry is turned on.
 One-electron integrals computed using PRISM.
 NBasis=   120 RedAO= T EigKep=  2.04D-03  NBF=    77    43
 NBsUse=   120 1.00D-06 EigRej= -1.00D+00 NBFU=    77    43
 ExpMin= 7.42D-02 ExpMax= 1.35D+05 ExpMxC= 1.30D+03 IAcc=3 IRadAn=         5 AccDes= 0.00D+00
 Harris functional with IExCor=  402 and IRadAn=       5 diagonalized for initial guess.
 HarFok:  IExCor=  402 AccDes= 0.00D+00 IRadAn=         5 IDoV= 1 UseB2=F ITyADJ=14
 ICtDFT=  3500011 ScaDFX=  1.000000  1.000000  1.000000  1.000000
 FoFCou: FMM=F IPFlag=           0 FMFlag=      100000 FMFlg1=           0
         NFxFlg=           0 DoJE=T BraDBF=F KetDBF=T FulRan=T
         wScrn=  0.000000 ICntrl=       500 IOpCl=  0 I1Cent=   200000004 NGrid=           0
         NMat0=    1 NMatS0=      1 NMatT0=    0 NMatD0=    1 NMtDS0=    0 NMtDT0=    0
 Petite list used in FoFCou.
 Initial guess orbital symmetries:
       Occupied  (A') (A') (A') (A') (A') (A") (A') (A') (A') (A")
                 (A') (A') (A")
       Virtual   (A') (A') (A') (A') (A") (A') (A') (A') (A") (A')
                 (A") (A") (A') (A') (A') (A') (A") (A') (A") (A')
                 (A') (A') (A") (A') (A') (A") (A") (A') (A") (A')
                 (A") (A') (A') (A') (A") (A') (A') (A") (A') (A')
                 (A") (A') (A') (A") (A') (A') (A") (A') (A') (A")
                 (A') (A") (A') (A') (A') (A") (A') (A') (A") (A")
                 (A') (A") (A') (A") (A") (A') (A') (A") (A') (A")
                 (A') (A") (A') (A') (A") (A") (A') (A') (A") (A')
                 (A') (A') (A") (A') (A") (A') (A") (A") (A') (A')
                 (A") (A') (A') (A') (A") (A') (A') (A') (A") (A')
                 (A") (A') (A') (A") (A") (A') (A')
 The electronic state of the initial guess is 1-A'.
 Keep R1 ints in memory in symmetry-blocked form, NReq=39656760.
 Requested convergence on RMS density matrix=1.00D-08 within 128 cycles.
 Requested convergence on MAX density matrix=1.00D-06.
 Requested convergence on             energy=1.00D-06.
 No special actions if energy rises.
 Integral accuracy reduced to 1.0D-05 until final iterations.
 Initial convergence to 1.0D-05 achieved.  Increase integral accuracy.
 SCF Done:  E(RB3LYP) =  -438.761145140     A.U. after   11 cycles
            NFock= 11  Conv=0.45D-08     -V/T= 2.0013

 **********************************************************************

            Population analysis using the SCF Density.

 **********************************************************************

 Orbital symmetries:
       Occupied  (A') (A') (A') (A') (A') (A") (A') (A') (A') (A")
                 (A') (A') (A")
       Virtual   (A') (A') (A') (A') (A") (A') (A') (A") (A') (A')
                 (A") (A') (A") (A') (A') (A') (A") (A') (A") (A')
                 (A') (A') (A") (A') (A') (A") (A") (A") (A') (A')
                 (A") (A') (A') (A') (A") (A') (A') (A") (A') (A')
                 (A") (A') (A') (A") (A') (A') (A") (A') (A") (A')
                 (A') (A") (A') (A') (A') (A") (A') (A') (A") (A")
                 (A') (A") (A') (A") (A") (A') (A') (A') (A") (A")
                 (A") (A') (A') (A') (A") (A") (A') (A") (A') (A')
                 (A') (A') (A") (A') (A") (A') (A") (A") (A') (A")
                 (A') (A') (A') (A') (A") (A') (A') (A') (A") (A')
                 (A") (A') (A') (A") (A") (A') (A')
 The electronic state is 1-A'.
 Alpha  occ. eigenvalues --  -88.83591 -10.20178  -7.92904  -5.89221  -5.88881
 Alpha  occ. eigenvalues --   -5.88272  -0.78135  -0.64908  -0.45367  -0.43530
 Alpha  occ. eigenvalues --   -0.39577  -0.33672  -0.24221
 Alpha virt. eigenvalues --   -0.00513   0.02675   0.05764   0.06949   0.07018
 Alpha virt. eigenvalues --    0.14391   0.15844   0.17525   0.18078   0.24442
 Alpha virt. eigenvalues --    0.27501   0.32880   0.33481   0.33536   0.36909
 Alpha virt. eigenvalues --    0.41692   0.45911   0.45925   0.50358   0.58761
 Alpha virt. eigenvalues --    0.71359   0.74987   0.75884   0.86095   0.89136
 Alpha virt. eigenvalues --    0.93087   0.95008   0.97656   1.00804   1.03330
 Alpha virt. eigenvalues --    1.05994   1.06437   1.14610   1.20190   1.29431
 Alpha virt. eigenvalues --    1.39084   1.45137   1.49568   1.52778   1.58560
 Alpha virt. eigenvalues --    1.65552   1.66003   1.78141   1.81971   1.85642
 Alpha virt. eigenvalues --    1.89914   1.96289   2.03015   2.07734   2.09730
 Alpha virt. eigenvalues --    2.15448   2.18333   2.27677   2.30413   2.43023
 Alpha virt. eigenvalues --    2.50873   2.56305   3.19578   3.27097   3.27506
 Alpha virt. eigenvalues --    3.27606   3.33812   3.34827   3.43872   3.60449
 Alpha virt. eigenvalues --    3.60711   3.73562   3.78077   3.78381   3.82470
 Alpha virt. eigenvalues --    3.86309   3.88226   3.96403   4.00026   4.03458
 Alpha virt. eigenvalues --    4.15569   4.16138   4.17216   4.21412   4.25808
 Alpha virt. eigenvalues --    4.41074   4.43425   4.48184   4.50089   4.51591
 Alpha virt. eigenvalues --    4.53651   4.59464   4.63627   4.69071   4.69211
 Alpha virt. eigenvalues --    4.70916   4.85614   4.95548   5.07541   5.16459
 Alpha virt. eigenvalues --    5.16559   5.41690   5.61919   5.67753   5.68255
 Alpha virt. eigenvalues --    5.79006   5.80438   5.84025   5.84795   6.11176
 Alpha virt. eigenvalues --    6.11747  25.50642
          Condensed to atoms (all electrons):
               1          2          3          4          5          6
     1  C    4.626736   0.255989  -0.032489   0.406057   0.427132   0.427132
     2  S    0.255989  15.619890   0.345051  -0.026920  -0.043487  -0.043487
     3  H   -0.032489   0.345051   0.643386   0.006747  -0.006658  -0.006658
     4  H    0.406057  -0.026920   0.006747   0.615839  -0.023759  -0.023759
     5  H    0.427132  -0.043487  -0.006658  -0.023759   0.615564  -0.029379
     6  H    0.427132  -0.043487  -0.006658  -0.023759  -0.029379   0.615564
 Mulliken charges:
               1
     1  C   -0.110557
     2  S   -0.107036
     3  H    0.050621
     4  H    0.045795
     5  H    0.060588
     6  H    0.060588
 Sum of Mulliken charges =  -0.00000
 Mulliken charges with hydrogens summed into heavy atoms:
               1
     1  C    0.056414
     2  S   -0.056414
 Electronic spatial extent (au):  <R**2>=            145.4650
 Charge=              0.0000 electrons
 Dipole moment (field-independent basis, Debye):
    X=              0.7706    Y=              1.4122    Z=              0.0000  Tot=              1.6088
 Quadrupole moment (field-independent basis, Debye-Ang):
   XX=            -19.3554   YY=            -20.5461   ZZ=            -22.6718
   XY=             -1.2816   XZ=             -0.0000   YZ=             -0.0000
 Traceless Quadrupole moment (field-independent basis, Debye-Ang):
   XX=              1.5024   YY=              0.3117   ZZ=             -1.8140
   XY=             -1.2816   XZ=             -0.0000   YZ=             -0.0000
 Octapole moment (field-independent basis, Debye-Ang**2):
  XXX=              0.8015  YYY=             -0.1724  ZZZ=              0.0000  XYY=              1.3569
  XXY=             -0.1691  XXZ=              0.0000  XZZ=              0.9384  YZZ=              2.5259
  YYZ=             -0.0000  XYZ=             -0.0000
 Hexadecapole moment (field-independent basis, Debye-Ang**3):
 XXXX=            -35.6747 YYYY=           -137.4089 ZZZZ=            -37.4755 XXXY=             -0.6657
 XXXZ=              0.0000 YYYX=              0.6088 YYYZ=              0.0000 ZZZX=              0.0000
 ZZZY=             -0.0000 XXYY=            -28.0301 XXZZ=            -12.9046 YYZZ=            -29.5114
 XXYZ=              0.0000 YYXZ=             -0.0000 ZZXY=              1.5863
 N-N= 5.616094793423D+01 E-N=-1.153441800811D+03  KE= 4.381996034011D+02
 Symmetry A'   KE= 3.972803833629D+02
 Symmetry A"   KE= 4.091922003824D+01
 Calling FoFJK, ICntrl=      2127 FMM=F ISym2X=1 I1Cent= 0 IOpClX= 0 NMat=1 NMatS=1 NMatT=0.
 ***** Axes restored to original set *****
 -------------------------------------------------------------------
 Center     Atomic                   Forces (Hartrees/Bohr)
 Number     Number              X              Y              Z
 -------------------------------------------------------------------
      1        6           0.000060043   -0.000449149    0.000000000
      2       16          -0.000121938    0.000166431    0.000000000
      3        1           0.000077787    0.000004735   -0.000000000
      4        1          -0.000063432    0.000048388   -0.000000000
      5        1           0.000023770    0.000114797    0.000046222
      6        1           0.000023770    0.000114797   -0.000046222
 -------------------------------------------------------------------
 Cartesian Forces:  Max     0.000449149 RMS     0.000127390

 GradGradGradGradGradGradGradGradGradGradGradGradGradGradGradGradGradGrad
 Berny optimization.
 FormGI is forming the generalized inverse of G from B-inverse, IUseBI=4.
 Internal  Forces:  Max     0.000171322 RMS     0.000080044
 Search for a local minimum.
 Step number   1 out of a maximum of   25
 All quantities printed in internal units (Hartrees-Bohrs-Radians)
 Mixed Optimization -- En-DIIS/RFO-DIIS
 Second derivative matrix not updated -- first step.
 The second derivative matrix:
                          R1        R2        R3        R4        R5
           R1           0.24125
           R2           0.00000   0.35120
           R3           0.00000   0.00000   0.35199
           R4           0.00000   0.00000   0.00000   0.35199
           R5           0.00000   0.00000   0.00000   0.00000   0.26200
           A1           0.00000   0.00000   0.00000   0.00000   0.00000
           A2           0.00000   0.00000   0.00000   0.00000   0.00000
           A3           0.00000   0.00000   0.00000   0.00000   0.00000
           A4           0.00000   0.00000   0.00000   0.00000   0.00000
           A5           0.00000   0.00000   0.00000   0.00000   0.00000
           A6           0.00000   0.00000   0.00000   0.00000   0.00000
           A7           0.00000   0.00000   0.00000   0.00000   0.00000
           D1           0.00000   0.00000   0.00000   0.00000   0.00000
           D2           0.00000   0.00000   0.00000   0.00000   0.00000
           D3           0.00000   0.00000   0.00000   0.00000   0.00000
                          A1        A2        A3        A4        A5
           A1           0.16000
           A2           0.00000   0.16000
           A3           0.00000   0.00000   0.16000
           A4           0.00000   0.00000   0.00000   0.16000
           A5           0.00000   0.00000   0.00000   0.00000   0.16000
           A6           0.00000   0.00000   0.00000   0.00000   0.00000
           A7           0.00000   0.00000   0.00000   0.00000   0.00000
           D1           0.00000   0.00000   0.00000   0.00000   0.00000
           D2           0.00000   0.00000   0.00000   0.00000   0.00000
           D3           0.00000   0.00000   0.00000   0.00000   0.00000
                          A6        A7        D1        D2        D3
           A6           0.16000
           A7           0.00000   0.16000
           D1           0.00000   0.00000   0.00230
           D2           0.00000   0.00000   0.00000   0.00230
           D3           0.00000   0.00000   0.00000   0.00000   0.00230
 ITU=  0
     Eigenvalues ---    0.00230   0.09536   0.10236   0.16000   0.16000
     Eigenvalues ---    0.16000   0.16000   0.24125   0.26200   0.35120
     Eigenvalues ---    0.35199   0.35199
 RFO step:  Lambda=-4.57659774D-07 EMin= 2.30000000D-03
 Linear search not attempted -- first point.
 Iteration  1 RMS(Cart)=  0.00031054 RMS(Int)=  0.00000017
 Iteration  2 RMS(Cart)=  0.00000012 RMS(Int)=  0.00000011
 ClnCor:  largest displacement from symmetrization is 7.76D-13 for atom     6.
 Variable       Old X    -DE/DX   Delta X   Delta X   Delta X     New X
                                 (Linear)    (Quad)   (Total)
    R1        3.45187  -0.00017   0.00000  -0.00071  -0.00071   3.45116
    R2        2.05481   0.00007   0.00000   0.00021   0.00021   2.05502
    R3        2.05353   0.00009   0.00000   0.00026   0.00026   2.05379
    R4        2.05353   0.00009   0.00000   0.00026   0.00026   2.05379
    R5        2.53751   0.00008   0.00000   0.00029   0.00029   2.53781
    A1        1.85189  -0.00000   0.00000  -0.00007  -0.00007   1.85182
    A2        1.94248   0.00010   0.00000   0.00068   0.00068   1.94316
    A3        1.94248   0.00010   0.00000   0.00068   0.00068   1.94316
    A4        1.89914  -0.00006   0.00000  -0.00044  -0.00044   1.89870
    A5        1.89914  -0.00006   0.00000  -0.00044  -0.00044   1.89870
    A6        1.92634  -0.00009   0.00000  -0.00046  -0.00046   1.92588
    A7        1.69553  -0.00004   0.00000  -0.00023  -0.00023   1.69530
    D1        3.14159  -0.00000   0.00000   0.00000   0.00000   3.14159
    D2       -1.07834  -0.00002   0.00000  -0.00020  -0.00020  -1.07854
    D3        1.07834   0.00002   0.00000   0.00020   0.00020   1.07854
         Item               Value     Threshold  Converged?
 Maximum Force            0.000171     0.000450     YES
 RMS     Force            0.000080     0.000300     YES
 Maximum Displacement     0.000701     0.001800     YES
 RMS     Displacement     0.000311     0.001200     YES
 Predicted change in Energy=-2.288409D-07
 Optimization completed.
    -- Stationary point found.
                           ----------------------------
                           !   Optimized Parameters   !
                           ! (Angstroms and Degrees)  !
 --------------------------                            --------------------------
 ! Name  Definition              Value          Derivative Info.                !
 --------------------------------------------------------------------------------
 ! R1    R(1,2)                  1.8267         -DE/DX =   -0.0002              !
 ! R2    R(1,4)                  1.0874         -DE/DX =    0.0001              !
 ! R3    R(1,5)                  1.0867         -DE/DX =    0.0001              !
 ! R4    R(1,6)                  1.0867         -DE/DX =    0.0001              !
 ! R5    R(2,3)                  1.3428         -DE/DX =    0.0001              !
 ! A1    A(2,1,4)              106.1054         -DE/DX =    0.0                 !
 ! A2    A(2,1,5)              111.2958         -DE/DX =    0.0001              !
 ! A3    A(2,1,6)              111.2958         -DE/DX =    0.0001              !
 ! A4    A(4,1,5)              108.8125         -DE/DX =   -0.0001              !
 ! A5    A(4,1,6)              108.8125         -DE/DX =   -0.0001              !
 ! A6    A(5,1,6)              110.3711         -DE/DX =   -0.0001              !
 ! A7    A(1,2,3)               97.1469         -DE/DX =    0.0                 !
 ! D1    D(4,1,2,3)            180.0            -DE/DX =    0.0                 !
 ! D2    D(5,1,2,3)            -61.7843         -DE/DX =    0.0                 !
 ! D3    D(6,1,2,3)             61.7843         -DE/DX =    0.0                 !
 --------------------------------------------------------------------------------
 GradGradGradGradGradGradGradGradGradGradGradGradGradGradGradGradGradGrad

                          Input orientation:                          
 ---------------------------------------------------------------------
 Center     Atomic      Atomic             Coordinates (Angstroms)
 Number     Number       Type             X           Y           Z
 ---------------------------------------------------------------------
      1          6           0       -0.047887    1.158813    0.000000
      2         16           0       -0.047887   -0.667837    0.000000
      3          1           0        1.284474   -0.834899    0.000000
      4          1           0       -1.092571    1.460452    0.000000
      5          1           0        0.430807    1.553478    0.892173
      6          1           0        0.430807    1.553478   -0.892173
 ---------------------------------------------------------------------
                    Distance matrix (angstroms):
                    1          2          3          4          5
     1  C    0.000000
     2  S    1.826650   0.000000
     3  H    2.397931   1.342794   0.000000
     4  H    1.087360   2.370860   3.304388   0.000000
     5  H    1.086684   2.441180   2.688692   1.767854   0.000000
     6  H    1.086684   2.441180   2.688692   1.767854   1.784346
                    6
     6  H    0.000000
 Stoichiometry    CH4S
 Framework group  CS[SG(CH2S),X(H2)]
 Deg. of freedom     8
 Full point group                 CS      NOp   2
 Largest Abelian subgroup         CS      NOp   2
 Largest concise Abelian subgroup CS      NOp   2
                         Standard orientation:                         
 ---------------------------------------------------------------------
 Center     Atomic      Atomic             Coordinates (Angstroms)
 Number     Number       Type             X           Y           Z
 ---------------------------------------------------------------------
      1          6           0       -0.047887    1.158813    0.000000
      2         16           0       -0.047887   -0.667837    0.000000
      3          1           0        1.284474   -0.834899    0.000000
      4          1           0       -1.092571    1.460452    0.000000
      5          1           0        0.430807    1.553478    0.892173
      6          1           0        0.430807    1.553478   -0.892173
 ---------------------------------------------------------------------
 Rotational constants (GHZ):         103.3557800          12.8123333          12.2886642
 1\1\GINC-GAMBA\FOpt\RB3LYP\Gen\C1H4S1\IRIKURA\29-Sep-2023\0\\# b3lyp/g
 en opt freq CPHF(Grid=OneStep)\\methanethiol, B3LYP/pcseg-2\\0,1\C,-0.
 047887,1.158813,0.\S,-0.047887,-0.667837,0.\H,1.284474,-0.834899,0.\H,
 -1.092571,1.460452,0.\H,0.430807,1.553478,0.892173\H,0.430807,1.553478
 ,-0.892173\\Version=ES64L-G16RevB.01\State=1-A'\HF=-438.7611451\RMSD=4
 .542e-09\RMSF=1.274e-04\Dipole=0.3031875,0.5556214,0.\Quadrupole=1.116
 9741,0.2317145,-1.3486886,-0.952868,0.,0.\PG=CS [SG(C1H2S1),X(H2)]\\@


 HOW IS IT THAT THE SKY FEEDS THE STARS?

                           -- LUCRETIUS
 Job cpu time:       0 days  0 hours  0 minutes 28.1 seconds.
 Elapsed time:       0 days  0 hours  0 minutes  7.1 seconds.
 File lengths (MBytes):  RWF=     10 Int=      0 D2E=      0 Chk=      2 Scr=      1
 Normal termination of Gaussian 16 at Fri Sep 29 22:29:38 2023.
 Link1:  Proceeding to internal job step number  2.
 ------------------------------------------------------------------
 #N Geom=AllCheck Guess=TCheck SCRF=Check GenChk RB3LYP/ChkBas Freq
 ------------------------------------------------------------------
 1/10=4,29=7,30=1,38=1,40=1/1,3;
 2/12=2,40=1/2;
 3/5=7,6=2,11=2,14=-4,25=1,30=1,67=1,70=2,71=2,74=-5,82=7,116=1,140=1/1,2,3;
 4/5=101/1;
 5/5=2,38=6,98=1/2;
 8/6=4,10=90,11=11/1;
 11/6=1,8=1,9=11,15=111,16=1/1,2,10;
 10/6=1,60=-420/2;
 6/7=2,8=2,9=2,10=2,28=1/1;
 7/8=1,10=1,25=1/1,2,3,16;
 1/10=4,30=1/3;
 99//99;
 Structure from the checkpoint file:  "ch3sh.chk"
 ---------------------------
 methanethiol, B3LYP/pcseg-2
 ---------------------------
 Charge =  0 Multiplicity = 1
 Redundant internal coordinates found in file.  (old form).
 C,0,-0.047887,1.158813,0.
 S,0,-0.047887,-0.667837,0.
 H,0,1.284474,-0.834899,0.
 H,0,-1.092571,1.460452,0.
 H,0,0.430807,1.553478,0.892173
 H,0,0.430807,1.553478,-0.892173
 Recover connectivity data from disk.

 GradGradGradGradGradGradGradGradGradGradGradGradGradGradGradGradGradGrad
 Berny optimization.
 Initialization pass.
                           ----------------------------
                           !    Initial Parameters    !
                           ! (Angstroms and Degrees)  !
 --------------------------                            --------------------------
 ! Name  Definition              Value          Derivative Info.                !
 --------------------------------------------------------------------------------
 ! R1    R(1,2)                  1.8267         calculate D2E/DX2 analytically  !
 ! R2    R(1,4)                  1.0874         calculate D2E/DX2 analytically  !
 ! R3    R(1,5)                  1.0867         calculate D2E/DX2 analytically  !
 ! R4    R(1,6)                  1.0867         calculate D2E/DX2 analytically  !
 ! R5    R(2,3)                  1.3428         calculate D2E/DX2 analytically  !
 ! A1    A(2,1,4)              106.1054         calculate D2E/DX2 analytically  !
 ! A2    A(2,1,5)              111.2958         calculate D2E/DX2 analytically  !
 ! A3    A(2,1,6)              111.2958         calculate D2E/DX2 analytically  !
 ! A4    A(4,1,5)              108.8125         calculate D2E/DX2 analytically  !
 ! A5    A(4,1,6)              108.8125         calculate D2E/DX2 analytically  !
 ! A6    A(5,1,6)              110.3711         calculate D2E/DX2 analytically  !
 ! A7    A(1,2,3)               97.1469         calculate D2E/DX2 analytically  !
 ! D1    D(4,1,2,3)            180.0            calculate D2E/DX2 analytically  !
 ! D2    D(5,1,2,3)            -61.7843         calculate D2E/DX2 analytically  !
 ! D3    D(6,1,2,3)             61.7843         calculate D2E/DX2 analytically  !
 --------------------------------------------------------------------------------
 Trust Radius=3.00D-01 FncErr=1.00D-07 GrdErr=1.00D-07 EigMax=2.50D+02 EigMin=1.00D-04
 Number of steps in this run=      2 maximum allowed number of steps=      2.
 GradGradGradGradGradGradGradGradGradGradGradGradGradGradGradGradGradGrad

                          Input orientation:                          
 ---------------------------------------------------------------------
 Center     Atomic      Atomic             Coordinates (Angstroms)
 Number     Number       Type             X           Y           Z
 ---------------------------------------------------------------------
      1          6           0       -0.047887    1.158813    0.000000
      2         16           0       -0.047887   -0.667837    0.000000
      3          1           0        1.284474   -0.834899    0.000000
      4          1           0       -1.092571    1.460452    0.000000
      5          1           0        0.430807    1.553478    0.892173
      6          1           0        0.430807    1.553478   -0.892173
 ---------------------------------------------------------------------
                    Distance matrix (angstroms):
                    1          2          3          4          5
     1  C    0.000000
     2  S    1.826650   0.000000
     3  H    2.397931   1.342794   0.000000
     4  H    1.087360   2.370860   3.304388   0.000000
     5  H    1.086684   2.441180   2.688692   1.767854   0.000000
     6  H    1.086684   2.441180   2.688692   1.767854   1.784346
                    6
     6  H    0.000000
 Stoichiometry    CH4S
 Framework group  CS[SG(CH2S),X(H2)]
 Deg. of freedom     8
 Full point group                 CS      NOp   2
 Largest Abelian subgroup         CS      NOp   2
 Largest concise Abelian subgroup CS      NOp   2
                         Standard orientation:                         
 ---------------------------------------------------------------------
 Center     Atomic      Atomic             Coordinates (Angstroms)
 Number     Number       Type             X           Y           Z
 ---------------------------------------------------------------------
      1          6           0       -0.047887    1.158813    0.000000
      2         16           0       -0.047887   -0.667837    0.000000
      3          1           0        1.284474   -0.834899    0.000000
      4          1           0       -1.092571    1.460452    0.000000
      5          1           0        0.430807    1.553478    0.892173
      6          1           0        0.430807    1.553478   -0.892173
 ---------------------------------------------------------------------
 Rotational constants (GHZ):         103.3557800          12.8123333          12.2886642
 Basis read from chk: "ch3sh.chk" (5D, 7F)
 There are    88 symmetry adapted cartesian basis functions of A'  symmetry.
 There are    46 symmetry adapted cartesian basis functions of A"  symmetry.
 There are    77 symmetry adapted basis functions of A'  symmetry.
 There are    43 symmetry adapted basis functions of A"  symmetry.
   120 basis functions,   193 primitive gaussians,   134 cartesian basis functions
    13 alpha electrons       13 beta electrons
       nuclear repulsion energy        56.1609479342 Hartrees.
 NAtoms=    6 NActive=    6 NUniq=    5 SFac= 1.44D+00 NAtFMM=   60 NAOKFM=F Big=F
 Integral buffers will be    131072 words long.
 Raffenetti 2 integral format.
 Two-electron integral symmetry is turned on.
 One-electron integrals computed using PRISM.
 NBasis=   120 RedAO= T EigKep=  2.04D-03  NBF=    77    43
 NBsUse=   120 1.00D-06 EigRej= -1.00D+00 NBFU=    77    43
 Initial guess from the checkpoint file:  "ch3sh.chk"
 B after Tr=     0.000000    0.000000    0.000000
         Rot=    1.000000    0.000000    0.000000    0.000000 Ang=   0.00 deg.
 Initial guess orbital symmetries:
       Occupied  (A') (A') (A') (A') (A') (A") (A') (A') (A') (A")
                 (A') (A') (A")
       Virtual   (A') (A') (A') (A') (A") (A') (A') (A") (A') (A')
                 (A") (A') (A") (A') (A') (A') (A") (A') (A") (A')
                 (A') (A') (A") (A') (A') (A") (A") (A") (A') (A')
                 (A") (A') (A') (A') (A") (A') (A') (A") (A') (A')
                 (A") (A') (A') (A") (A') (A') (A") (A') (A") (A')
                 (A') (A") (A') (A') (A') (A") (A') (A') (A") (A")
                 (A') (A") (A') (A") (A") (A') (A') (A') (A") (A")
                 (A") (A') (A') (A') (A") (A") (A') (A") (A') (A')
                 (A') (A') (A") (A') (A") (A') (A") (A") (A') (A")
                 (A') (A') (A') (A') (A") (A') (A') (A') (A") (A')
                 (A") (A') (A') (A") (A") (A') (A')
 Keep R1 ints in memory in symmetry-blocked form, NReq=39656760.
 Requested convergence on RMS density matrix=1.00D-08 within 128 cycles.
 Requested convergence on MAX density matrix=1.00D-06.
 Requested convergence on             energy=1.00D-06.
 No special actions if energy rises.
 SCF Done:  E(RB3LYP) =  -438.761145140     A.U. after    1 cycles
            NFock=  1  Conv=0.21D-08     -V/T= 2.0013
 DoSCS=F DFT=T ScalE2(SS,OS)=  1.000000  1.000000
 Range of M.O.s used for correlation:     1   120
 NBasis=   120 NAE=    13 NBE=    13 NFC=     0 NFV=     0
 NROrb=    120 NOA=    13 NOB=    13 NVA=   107 NVB=   107
 Symmetrizing basis deriv contribution to polar:
 IMax=3 JMax=2 DiffMx= 0.00D+00
 G2DrvN: will do     7 centers at a time, making    1 passes.
 Calling FoFCou, ICntrl=  3107 FMM=F I1Cent=   0 AccDes= 0.00D+00.
 End of G2Drv F.D. properties file   721 does not exist.
 End of G2Drv F.D. properties file   722 does not exist.
 End of G2Drv F.D. properties file   788 does not exist.
          IDoAtm=111111
          Differentiating once with respect to electric field.
                with respect to dipole field.
          Differentiating once with respect to nuclear coordinates.
 Keep R1 ints in memory in symmetry-blocked form, NReq=39660512.
          There are    18 degrees of freedom in the 1st order CPHF.  IDoFFX=4 NUNeed=    18.
     18 vectors produced by pass  0 Test12= 7.73D-15 5.56D-09 XBig12= 2.90D+01 2.12D+00.
 AX will form    18 AO Fock derivatives at one time.
     18 vectors produced by pass  1 Test12= 7.73D-15 5.56D-09 XBig12= 3.18D+00 6.18D-01.
     18 vectors produced by pass  2 Test12= 7.73D-15 5.56D-09 XBig12= 5.84D-02 4.87D-02.
     18 vectors produced by pass  3 Test12= 7.73D-15 5.56D-09 XBig12= 7.94D-05 2.10D-03.
     18 vectors produced by pass  4 Test12= 7.73D-15 5.56D-09 XBig12= 1.52D-07 1.22D-04.
     11 vectors produced by pass  5 Test12= 7.73D-15 5.56D-09 XBig12= 1.76D-10 3.88D-06.
      3 vectors produced by pass  6 Test12= 7.73D-15 5.56D-09 XBig12= 9.65D-14 6.46D-08.
 InvSVY:  IOpt=1 It=  1 EMax= 2.66D-15
 Solved reduced A of dimension   104 with    18 vectors.
 Isotropic polarizability for W=    0.000000       31.12 Bohr**3.
 End of Minotr F.D. properties file   721 does not exist.
 End of Minotr F.D. properties file   722 does not exist.
 End of Minotr F.D. properties file   788 does not exist.

 **********************************************************************

            Population analysis using the SCF Density.

 **********************************************************************

 Orbital symmetries:
       Occupied  (A') (A') (A') (A') (A') (A") (A') (A') (A') (A")
                 (A') (A') (A")
       Virtual   (A') (A') (A') (A') (A") (A') (A') (A") (A') (A')
                 (A") (A') (A") (A') (A') (A') (A") (A') (A") (A')
                 (A') (A') (A") (A') (A') (A") (A") (A") (A') (A')
                 (A") (A') (A') (A') (A") (A') (A') (A") (A') (A')
                 (A") (A') (A') (A") (A') (A') (A") (A') (A") (A')
                 (A') (A") (A') (A') (A') (A") (A') (A') (A") (A")
                 (A') (A") (A') (A") (A") (A') (A') (A') (A") (A")
                 (A") (A') (A') (A') (A") (A") (A') (A") (A') (A')
                 (A') (A') (A") (A') (A") (A') (A") (A") (A') (A")
                 (A') (A') (A') (A') (A") (A') (A') (A') (A") (A')
                 (A") (A') (A') (A") (A") (A') (A')
 The electronic state is 1-A'.
 Alpha  occ. eigenvalues --  -88.83590 -10.20178  -7.92904  -5.89221  -5.88881
 Alpha  occ. eigenvalues --   -5.88272  -0.78135  -0.64908  -0.45367  -0.43530
 Alpha  occ. eigenvalues --   -0.39577  -0.33672  -0.24220
 Alpha virt. eigenvalues --   -0.00513   0.02675   0.05764   0.06949   0.07018
 Alpha virt. eigenvalues --    0.14391   0.15844   0.17525   0.18078   0.24442
 Alpha virt. eigenvalues --    0.27501   0.32880   0.33481   0.33536   0.36909
 Alpha virt. eigenvalues --    0.41692   0.45911   0.45925   0.50358   0.58761
 Alpha virt. eigenvalues --    0.71359   0.74987   0.75884   0.86095   0.89136
 Alpha virt. eigenvalues --    0.93087   0.95008   0.97657   1.00804   1.03330
 Alpha virt. eigenvalues --    1.05994   1.06437   1.14610   1.20190   1.29431
 Alpha virt. eigenvalues --    1.39084   1.45137   1.49568   1.52778   1.58560
 Alpha virt. eigenvalues --    1.65552   1.66003   1.78141   1.81971   1.85642
 Alpha virt. eigenvalues --    1.89914   1.96289   2.03015   2.07734   2.09730
 Alpha virt. eigenvalues --    2.15448   2.18333   2.27677   2.30413   2.43023
 Alpha virt. eigenvalues --    2.50873   2.56305   3.19578   3.27097   3.27506
 Alpha virt. eigenvalues --    3.27606   3.33812   3.34827   3.43872   3.60449
 Alpha virt. eigenvalues --    3.60711   3.73562   3.78077   3.78381   3.82470
 Alpha virt. eigenvalues --    3.86309   3.88226   3.96403   4.00026   4.03458
 Alpha virt. eigenvalues --    4.15569   4.16138   4.17216   4.21412   4.25808
 Alpha virt. eigenvalues --    4.41074   4.43425   4.48184   4.50089   4.51591
 Alpha virt. eigenvalues --    4.53651   4.59464   4.63627   4.69071   4.69211
 Alpha virt. eigenvalues --    4.70916   4.85614   4.95548   5.07541   5.16459
 Alpha virt. eigenvalues --    5.16559   5.41690   5.61919   5.67753   5.68255
 Alpha virt. eigenvalues --    5.79006   5.80438   5.84025   5.84795   6.11176
 Alpha virt. eigenvalues --    6.11747  25.50642
          Condensed to atoms (all electrons):
               1          2          3          4          5          6
     1  C    4.626736   0.255990  -0.032490   0.406057   0.427132   0.427132
     2  S    0.255990  15.619890   0.345051  -0.026920  -0.043487  -0.043487
     3  H   -0.032490   0.345051   0.643387   0.006747  -0.006658  -0.006658
     4  H    0.406057  -0.026920   0.006747   0.615839  -0.023759  -0.023759
     5  H    0.427132  -0.043487  -0.006658  -0.023759   0.615564  -0.029379
     6  H    0.427132  -0.043487  -0.006658  -0.023759  -0.029379   0.615564
 Mulliken charges:
               1
     1  C   -0.110557
     2  S   -0.107036
     3  H    0.050621
     4  H    0.045795
     5  H    0.060588
     6  H    0.060588
 Sum of Mulliken charges =  -0.00000
 Mulliken charges with hydrogens summed into heavy atoms:
               1
     1  C    0.056414
     2  S   -0.056414
 APT charges:
               1
     1  C    0.121819
     2  S   -0.095634
     3  H    0.010401
     4  H    0.010423
     5  H   -0.023504
     6  H   -0.023504
 Sum of APT charges =  -0.00000
 APT charges with hydrogens summed into heavy atoms:
               1
     1  C    0.085233
     2  S   -0.085233
 Electronic spatial extent (au):  <R**2>=            145.4650
 Charge=              0.0000 electrons
 Dipole moment (field-independent basis, Debye):
    X=              0.7706    Y=              1.4122    Z=             -0.0000  Tot=              1.6088
 Quadrupole moment (field-independent basis, Debye-Ang):
   XX=            -19.3554   YY=            -20.5462   ZZ=            -22.6718
   XY=             -1.2816   XZ=             -0.0000   YZ=              0.0000
 Traceless Quadrupole moment (field-independent basis, Debye-Ang):
   XX=              1.5024   YY=              0.3117   ZZ=             -1.8140
   XY=             -1.2816   XZ=             -0.0000   YZ=              0.0000
 Octapole moment (field-independent basis, Debye-Ang**2):
  XXX=              0.8015  YYY=             -0.1724  ZZZ=             -0.0000  XYY=              1.3569
  XXY=             -0.1691  XXZ=             -0.0000  XZZ=              0.9384  YZZ=              2.5259
  YYZ=             -0.0000  XYZ=             -0.0000
 Hexadecapole moment (field-independent basis, Debye-Ang**3):
 XXXX=            -35.6747 YYYY=           -137.4089 ZZZZ=            -37.4755 XXXY=             -0.6657
 XXXZ=             -0.0000 YYYX=              0.6088 YYYZ=             -0.0000 ZZZX=             -0.0000
 ZZZY=              0.0000 XXYY=            -28.0301 XXZZ=            -12.9046 YYZZ=            -29.5115
 XXYZ=              0.0000 YYXZ=             -0.0000 ZZXY=              1.5863
 N-N= 5.616094793423D+01 E-N=-1.153441795299D+03  KE= 4.381996013193D+02
 Symmetry A'   KE= 3.972803819344D+02
 Symmetry A"   KE= 4.091921938493D+01
  Exact polarizability:  29.415  -1.562  38.436   0.000  -0.000  25.521
 Approx polarizability:  44.116  -2.858  52.331   0.000   0.000  35.202
 Calling FoFJK, ICntrl=    100127 FMM=F ISym2X=1 I1Cent= 0 IOpClX= 0 NMat=1 NMatS=1 NMatT=0.
 Full mass-weighted force constant matrix:
 Low frequencies ---  -32.7558   -2.7339   -0.0039   -0.0011    0.0021    7.1192
 Low frequencies ---  231.9527  695.9094  797.0555
 Diagonal vibrational polarizability:
        0.3163854       0.4226891       7.5580239
 Harmonic frequencies (cm**-1), IR intensities (KM/Mole), Raman scattering
 activities (A**4/AMU), depolarization ratios for plane and unpolarized
 incident light, reduced masses (AMU), force constants (mDyne/A),
 and normal coordinates:
                      1                      2                      3
                     A"                     A'                     A'
 Frequencies --    231.9449               695.9094               797.0555
 Red. masses --      1.0296                 5.1842                 1.0759
 Frc consts  --      0.0326                 1.4792                 0.4027
 IR Inten    --     14.6855                 1.6408                 0.7032
  Atom  AN      X      Y      Z        X      Y      Z        X      Y      Z
     1   6    -0.00  -0.00  -0.00    -0.04   0.48  -0.00    -0.03  -0.07   0.00
     2  16     0.00   0.00  -0.03     0.00  -0.23   0.00    -0.01   0.01  -0.00
     3   1     0.00   0.00   0.80     0.06   0.29   0.00     0.08   0.76  -0.00
     4   1     0.00   0.00   0.38     0.03   0.68   0.00     0.11   0.42  -0.00
     5   1     0.30  -0.03  -0.15     0.14   0.25   0.01     0.19  -0.28  -0.03
     6   1    -0.30   0.03  -0.15     0.14   0.25  -0.01     0.19  -0.28   0.03
                      4                      5                      6
                     A"                     A'                     A'
 Frequencies --    971.0234              1097.4515              1359.9309
 Red. masses --      1.1778                 1.2284                 1.1491
 Frc consts  --      0.6543                 0.8717                 1.2521
 IR Inten    --      4.7209                13.1838                 7.7059
  Atom  AN      X      Y      Z        X      Y      Z        X      Y      Z
     1   6    -0.00   0.00   0.12     0.12  -0.00   0.00     0.00  -0.11   0.00
     2  16     0.00  -0.00  -0.03    -0.03  -0.02  -0.00     0.00  -0.01  -0.00
     3   1    -0.00  -0.00   0.03     0.05   0.67   0.00    -0.00  -0.04  -0.00
     4   1    -0.00  -0.00  -0.24    -0.03  -0.53  -0.00     0.18   0.58  -0.00
     5   1     0.06   0.65  -0.20    -0.20   0.29   0.05    -0.14   0.51  -0.17
     6   1    -0.06  -0.65  -0.20    -0.20   0.29  -0.05    -0.14   0.51   0.17
                      7                      8                      9
                     A"                     A'                     A'
 Frequencies --   1474.3186              1487.5165              2669.9812
 Red. masses --      1.0530                 1.0500                 1.0386
 Frc consts  --      1.3486                 1.3689                 4.3625
 IR Inten    --      4.5773                 7.9215                 5.8232
  Atom  AN      X      Y      Z        X      Y      Z        X      Y      Z
     1   6     0.00  -0.00  -0.06    -0.06  -0.01  -0.00     0.00  -0.00   0.00
     2  16     0.00   0.00  -0.00    -0.00  -0.00  -0.00    -0.03   0.00   0.00
     3   1    -0.00  -0.00  -0.01     0.00   0.04  -0.00     0.99  -0.12  -0.00
     4   1     0.00   0.00   0.73    -0.13  -0.33   0.00    -0.01   0.01   0.00
     5   1    -0.40   0.26   0.07     0.50   0.21  -0.38    -0.00  -0.00  -0.00
     6   1     0.40  -0.26   0.07     0.50   0.21   0.38    -0.00  -0.00   0.00
                     10                     11                     12
                     A'                     A"                     A'
 Frequencies --   3056.0511              3137.9302              3141.1400
 Red. masses --      1.0292                 1.1081                 1.1040
 Frc consts  --      5.6631                 6.4285                 6.4182
 IR Inten    --     25.7748                 7.5381                 6.8950
  Atom  AN      X      Y      Z        X      Y      Z        X      Y      Z
     1   6     0.00   0.04   0.00    -0.00  -0.00  -0.10    -0.09  -0.00   0.00
     2  16    -0.00   0.00   0.00    -0.00   0.00   0.00    -0.00   0.00  -0.00
     3   1     0.00  -0.00  -0.00     0.00  -0.00   0.00     0.02  -0.01  -0.00
     4   1     0.51  -0.14   0.00     0.00  -0.00  -0.02     0.81  -0.23   0.00
     5   1    -0.27  -0.20  -0.50     0.32   0.24   0.58     0.15   0.13   0.32
     6   1    -0.27  -0.20   0.50    -0.32  -0.24   0.58     0.15   0.13  -0.32

 -------------------
 - Thermochemistry -
 -------------------
 Temperature   298.150 Kelvin.  Pressure   1.00000 Atm.
 Atom     1 has atomic number  6 and mass  12.00000
 Atom     2 has atomic number 16 and mass  31.97207
 Atom     3 has atomic number  1 and mass   1.00783
 Atom     4 has atomic number  1 and mass   1.00783
 Atom     5 has atomic number  1 and mass   1.00783
 Atom     6 has atomic number  1 and mass   1.00783
 Molecular mass:    48.00337 amu.
 Principal axes and moments of inertia in atomic units:
                           1         2         3
     Eigenvalues --    17.46144 140.85968 146.86228
           X           -0.03079   0.99953   0.00000
           Y            0.99953   0.03079   0.00000
           Z           -0.00000   0.00000   1.00000
 This molecule is an asymmetric top.
 Rotational symmetry number  1.
 Rotational temperatures (Kelvin)      4.96030     0.61490     0.58976
 Rotational constants (GHZ):         103.35578    12.81233    12.28866
 Zero-point vibrational energy     120345.8 (Joules/Mol)
                                   28.76335 (Kcal/Mol)
 Warning -- explicit consideration of   1 degrees of freedom as
           vibrations may cause significant error
 Vibrational temperatures:    333.72  1001.26  1146.79  1397.09  1578.99
          (Kelvin)           1956.64  2121.22  2140.20  3841.51  4396.98
                             4514.78  4519.40
 
 Zero-point correction=                           0.045837 (Hartree/Particle)
 Thermal correction to Energy=                    0.049462
 Thermal correction to Enthalpy=                  0.050406
 Thermal correction to Gibbs Free Energy=         0.021590
 Sum of electronic and zero-point Energies=           -438.715308
 Sum of electronic and thermal Energies=              -438.711684
 Sum of electronic and thermal Enthalpies=            -438.710739
 Sum of electronic and thermal Free Energies=         -438.739555
 
                     E (Thermal)             CV                S
                      KCal/Mol        Cal/Mol-Kelvin    Cal/Mol-Kelvin
 Total                   31.038             10.221             60.648
 Electronic               0.000              0.000              0.000
 Translational            0.889              2.981             37.530
 Rotational               0.889              2.981             20.518
 Vibrational             29.260              4.260              2.600
 Vibration     1          0.653              1.792              1.864
                       Q            Log10(Q)             Ln(Q)
 Total Bot       0.117314D-09         -9.930651        -22.866169
 Total V=0       0.142242D+12         11.153029         25.680799
 Vib (Bot)       0.131903D-20        -20.879747        -48.077393
 Vib (Bot)    1  0.848434D+00         -0.071382         -0.164363
 Vib (V=0)       0.159931D+01          0.203934          0.469574
 Vib (V=0)    1  0.148480D+01          0.171669          0.395283
 Electronic      0.100000D+01          0.000000          0.000000
 Translational   0.130726D+08          7.116361         16.386028
 Rotational      0.680353D+04          3.832734          8.825197
 ***** Axes restored to original set *****
 -------------------------------------------------------------------
 Center     Atomic                   Forces (Hartrees/Bohr)
 Number     Number              X              Y              Z
 -------------------------------------------------------------------
      1        6           0.000060035   -0.000449172   -0.000000000
      2       16          -0.000121927    0.000166443    0.000000000
      3        1           0.000077774    0.000004742    0.000000000
      4        1          -0.000063418    0.000048384   -0.000000000
      5        1           0.000023768    0.000114801    0.000046220
      6        1           0.000023768    0.000114801   -0.000046220
 -------------------------------------------------------------------
 Cartesian Forces:  Max     0.000449172 RMS     0.000127394
 FormGI is forming the generalized inverse of G from B-inverse, IUseBI=4.

 GradGradGradGradGradGradGradGradGradGradGradGradGradGradGradGradGradGrad
 Berny optimization.
 Internal  Forces:  Max     0.000171339 RMS     0.000080047
 Search for a local minimum.
 Step number   1 out of a maximum of    2
 All quantities printed in internal units (Hartrees-Bohrs-Radians)
 Second derivative matrix not updated -- analytic derivatives used.
 The second derivative matrix:
                          R1        R2        R3        R4        R5
           R1           0.19708
           R2           0.00440   0.34419
           R3           0.00512   0.00258   0.34195
           R4           0.00512   0.00258   0.00309   0.34195
           R5           0.00085  -0.00129   0.00033   0.00033   0.26362
           A1           0.01543   0.00193  -0.00464  -0.00464   0.00255
           A2           0.02110  -0.00566  -0.00508  -0.00451  -0.00093
           A3           0.02110  -0.00566  -0.00451  -0.00508  -0.00093
           A4          -0.01949   0.00694   0.00872  -0.00361  -0.00028
           A5          -0.01949   0.00694  -0.00361   0.00872  -0.00028
           A6          -0.01927  -0.00361   0.00890   0.00890  -0.00002
           A7           0.02487   0.00294  -0.00103  -0.00103  -0.00023
           D1           0.00000  -0.00000  -0.00451   0.00451   0.00000
           D2          -0.00284   0.00645   0.00045  -0.00502   0.00069
           D3           0.00284  -0.00645   0.00502  -0.00045  -0.00069
                          A1        A2        A3        A4        A5
           A1           0.10735
           A2          -0.01838   0.10474
           A3          -0.01838  -0.02325   0.10474
           A4          -0.03399  -0.03051  -0.00002   0.06452
           A5          -0.03399  -0.00002  -0.03051   0.00064   0.06452
           A6          -0.00016  -0.03422  -0.03422   0.00076   0.00076
           A7           0.03316  -0.01118  -0.01118  -0.00623  -0.00623
           D1           0.00000  -0.00989   0.00989  -0.01974   0.01974
           D2           0.01346  -0.00126  -0.01359   0.02101   0.00019
           D3          -0.01346   0.01359   0.00126  -0.00019  -0.02101
                          A6        A7        D1        D2        D3
           A6           0.06546
           A7           0.00276   0.19703
           D1           0.00000   0.00000   0.01968
           D2          -0.01756   0.00633  -0.00931   0.02327
           D3           0.01756  -0.00633  -0.00931  -0.01027   0.02327
 ITU=  0
     Eigenvalues ---    0.00275   0.07828   0.08063   0.10381   0.12251
     Eigenvalues ---    0.14029   0.19787   0.24169   0.26373   0.33975
     Eigenvalues ---    0.34212   0.34997
 Angle between quadratic step and forces=  21.69 degrees.
 Linear search not attempted -- first point.
 Iteration  1 RMS(Cart)=  0.00049077 RMS(Int)=  0.00000045
 Iteration  2 RMS(Cart)=  0.00000033 RMS(Int)=  0.00000027
 ClnCor:  largest displacement from symmetrization is 2.75D-13 for atom     6.
 Variable       Old X    -DE/DX   Delta X   Delta X   Delta X     New X
                                 (Linear)    (Quad)   (Total)
    R1        3.45187  -0.00017   0.00000  -0.00138  -0.00138   3.45049
    R2        2.05481   0.00007   0.00000   0.00029   0.00029   2.05511
    R3        2.05353   0.00009   0.00000   0.00034   0.00034   2.05387
    R4        2.05353   0.00009   0.00000   0.00034   0.00034   2.05387
    R5        2.53751   0.00008   0.00000   0.00030   0.00030   2.53782
    A1        1.85189  -0.00000   0.00000   0.00013   0.00013   1.85202
    A2        1.94248   0.00010   0.00000   0.00107   0.00107   1.94355
    A3        1.94248   0.00010   0.00000   0.00107   0.00107   1.94355
    A4        1.89914  -0.00006   0.00000  -0.00075  -0.00075   1.89839
    A5        1.89914  -0.00006   0.00000  -0.00075  -0.00075   1.89839
    A6        1.92634  -0.00009   0.00000  -0.00082  -0.00082   1.92552
    A7        1.69553  -0.00004   0.00000   0.00007   0.00007   1.69560
    D1        3.14159  -0.00000   0.00000  -0.00000   0.00000   3.14159
    D2       -1.07834  -0.00002   0.00000  -0.00024  -0.00024  -1.07858
    D3        1.07834   0.00002   0.00000   0.00024   0.00024   1.07858
         Item               Value     Threshold  Converged?
 Maximum Force            0.000171     0.000450     YES
 RMS     Force            0.000080     0.000300     YES
 Maximum Displacement     0.001129     0.001800     YES
 RMS     Displacement     0.000491     0.001200     YES
 Predicted change in Energy=-3.677726D-07
 Optimization completed.
    -- Stationary point found.
                           ----------------------------
                           !   Optimized Parameters   !
                           ! (Angstroms and Degrees)  !
 --------------------------                            --------------------------
 ! Name  Definition              Value          Derivative Info.                !
 --------------------------------------------------------------------------------
 ! R1    R(1,2)                  1.8267         -DE/DX =   -0.0002              !
 ! R2    R(1,4)                  1.0874         -DE/DX =    0.0001              !
 ! R3    R(1,5)                  1.0867         -DE/DX =    0.0001              !
 ! R4    R(1,6)                  1.0867         -DE/DX =    0.0001              !
 ! R5    R(2,3)                  1.3428         -DE/DX =    0.0001              !
 ! A1    A(2,1,4)              106.1054         -DE/DX =    0.0                 !
 ! A2    A(2,1,5)              111.2958         -DE/DX =    0.0001              !
 ! A3    A(2,1,6)              111.2958         -DE/DX =    0.0001              !
 ! A4    A(4,1,5)              108.8125         -DE/DX =   -0.0001              !
 ! A5    A(4,1,6)              108.8125         -DE/DX =   -0.0001              !
 ! A6    A(5,1,6)              110.3711         -DE/DX =   -0.0001              !
 ! A7    A(1,2,3)               97.1469         -DE/DX =    0.0                 !
 ! D1    D(4,1,2,3)            180.0            -DE/DX =    0.0                 !
 ! D2    D(5,1,2,3)            -61.7843         -DE/DX =    0.0                 !
 ! D3    D(6,1,2,3)             61.7843         -DE/DX =    0.0                 !
 --------------------------------------------------------------------------------
 GradGradGradGradGradGradGradGradGradGradGradGradGradGradGradGradGradGrad


 ----------------------------------------------------------------------

 Electric dipole moment (input orientation):
 (Debye = 10**-18 statcoulomb cm , SI units = C m)
                  (au)            (Debye)         (10**-30 SI)
   Tot        0.632959D+00      0.160882D+01      0.536645D+01
   x          0.303187D+00      0.770624D+00      0.257053D+01
   y          0.555621D+00      0.141225D+01      0.471075D+01
   z          0.000000D+00      0.000000D+00      0.000000D+00

 Dipole polarizability, Alpha (input orientation).
 (esu units = cm**3 , SI units = C**2 m**2 J**-1)
 Alpha(0;0):
               (au)            (10**-24 esu)      (10**-40 SI)
   iso        0.311239D+02      0.461209D+01      0.513164D+01
   aniso      0.117893D+02      0.174699D+01      0.194379D+01
   xx         0.294150D+02      0.435886D+01      0.484988D+01
   yx        -0.156166D+01     -0.231415D+00     -0.257483D+00
   yy         0.384360D+02      0.569562D+01      0.633723D+01
   zx         0.000000D+00      0.000000D+00      0.000000D+00
   zy         0.000000D+00      0.000000D+00      0.000000D+00
   zz         0.255208D+02      0.378180D+01      0.420782D+01

 ----------------------------------------------------------------------

 Dipole orientation:
     6         -0.99049861          0.54048751          1.87892802
    16          0.46091855         -0.25151042         -1.15117457
     1          2.53377547         -1.38261073         -0.22227880
     1         -2.75138764          1.50135563          1.43367144
     1         -1.41461733         -1.14871762          2.96691341
     1          0.20053266          1.81120982          2.96691341

 Electric dipole moment (dipole orientation):
 (Debye = 10**-18 statcoulomb cm , SI units = C m)
                  (au)            (Debye)         (10**-30 SI)
   Tot        0.632959D+00      0.160882D+01      0.536645D+01
   x          0.000000D+00      0.000000D+00      0.000000D+00
   y          0.000000D+00      0.000000D+00      0.000000D+00
   z          0.632959D+00      0.160882D+01      0.536645D+01

 Dipole polarizability, Alpha (dipole orientation).
 (esu units = cm**3 , SI units = C**2 m**2 J**-1)
 Alpha(0;0):
               (au)            (10**-24 esu)      (10**-40 SI)
   iso        0.311239D+02      0.461209D+01      0.513164D+01
   aniso      0.117893D+02      0.174699D+01      0.194379D+01
   xx         0.311284D+02      0.461275D+01      0.513238D+01
   yx        -0.305988D+01     -0.453428D+00     -0.504506D+00
   yy         0.271905D+02      0.402922D+01      0.448311D+01
   zx        -0.407140D+01     -0.603319D+00     -0.671283D+00
   zy         0.222165D+01      0.329214D+00      0.366300D+00
   zz         0.350529D+02      0.519431D+01      0.577945D+01

 ----------------------------------------------------------------------
 1\1\GINC-GAMBA\Freq\RB3LYP\Gen\C1H4S1\IRIKURA\29-Sep-2023\0\\#N Geom=A
 llCheck Guess=TCheck SCRF=Check GenChk RB3LYP/ChkBas Freq\\methanethio
 l, B3LYP/pcseg-2\\0,1\C,-0.047887,1.158813,0.\S,-0.047887,-0.667837,0.
 \H,1.284474,-0.834899,0.\H,-1.092571,1.460452,0.\H,0.430807,1.553478,0
 .892173\H,0.430807,1.553478,-0.892173\\Version=ES64L-G16RevB.01\State=
 1-A'\HF=-438.7611451\RMSD=2.118e-09\RMSF=1.274e-04\ZeroPoint=0.0458373
 \Thermal=0.0494616\Dipole=0.3031869,0.555621,0.\DipoleDeriv=0.0121827,
 -0.101273,0.,0.030525,0.2900663,0.,0.,0.,0.0632073,0.0242186,0.1211794
 ,0.,0.0451396,-0.0662418,0.,0.,0.,-0.2448791,-0.0860993,0.0202264,0.,-
 0.0655206,-0.0160683,0.,0.,0.,0.1333713,-0.057396,0.0484644,0.,0.03249
 06,0.0004782,0.,0.,0.,0.0881868,0.0535471,-0.0442986,-0.0526632,-0.021
 3173,-0.1041172,-0.0570242,-0.0580974,-0.0631543,-0.0199431,0.0535471,
 -0.0442986,0.0526632,-0.0213173,-0.1041172,0.0570242,0.0580974,0.06315
 43,-0.0199431\Polar=29.4150307,-1.5616631,38.4359585,0.,0.,25.5208321\
 Quadrupole=1.116974,0.2317142,-1.3486882,-0.9528676,0.,0.\PG=CS [SG(C1
 H2S1),X(H2)]\NImag=0\\0.55607078,0.01618993,0.34263717,0.,0.,0.5476287
 1,-0.05042558,0.00040515,0.,0.30756184,-0.02947865,-0.13292575,0.,-0.0
 0646594,0.21157055,0.,0.,-0.03058915,0.,0.,0.02151424,0.00007552,-0.00
 039631,0.,-0.26246778,0.02905139,0.,0.26004521,0.02912158,-0.00607876,
[...]
 Charge =  0 Multiplicity = 1
 Redundant internal coordinates found in file.  (old form).
 C,0,-0.047887,1.158813,0.
 S,0,-0.047887,-0.667837,0.
 H,0,1.284474,-0.834899,0.
 H,0,-1.092571,1.460452,0.
 H,0,0.430807,1.553478,0.892173
 H,0,0.430807,1.553478,-0.892173
 Recover connectivity data from disk.
                           ----------------------------
                           !    Current Parameters    !
                           ! (Angstroms and Degrees)  !
 --------------------------                            --------------------------
 ! Name  Definition              Value                                          !
 --------------------------------------------------------------------------------
 ! R1    R(1,2)                  1.8267                                         !
 ! R2    R(1,4)                  1.0874                                         !
 ! R3    R(1,5)                  1.0867                                         !
 ! R4    R(1,6)                  1.0867                                         !
 ! R5    R(2,3)                  1.3428                                         !
 ! A1    A(2,1,4)              106.1054                                         !
 ! A2    A(2,1,5)              111.2958                                         !
 ! A3    A(2,1,6)              111.2958                                         !
 ! A4    A(4,1,5)              108.8125                                         !
 ! A5    A(4,1,6)              108.8125                                         !
 ! A6    A(5,1,6)              110.3711                                         !
 ! A7    A(1,2,3)               97.1469                                         !
 ! D1    D(4,1,2,3)            180.0                                            !
 ! D2    D(5,1,2,3)            -61.7843                                         !
 ! D3    D(6,1,2,3)             61.7843                                         !
 --------------------------------------------------------------------------------
                          Input orientation:                          
 ---------------------------------------------------------------------
 Center     Atomic      Atomic             Coordinates (Angstroms)
 Number     Number       Type             X           Y           Z
 ---------------------------------------------------------------------
      1          6           0       -0.047887    1.158813    0.000000
      2         16           0       -0.047887   -0.667837    0.000000
      3          1           0        1.284474   -0.834899    0.000000
      4          1           0       -1.092571    1.460452    0.000000
      5          1           0        0.430807    1.553478    0.892173
      6          1           0        0.430807    1.553478   -0.892173
 ---------------------------------------------------------------------
                    Distance matrix (angstroms):
                    1          2          3          4          5
     1  C    0.000000
     2  S    1.826650   0.000000
     3  H    2.397931   1.342794   0.000000
     4  H    1.087360   2.370860   3.304388   0.000000
     5  H    1.086684   2.441180   2.688692   1.767854   0.000000
     6  H    1.086684   2.441180   2.688692   1.767854   1.784346
                    6
     6  H    0.000000
 Stoichiometry    CH4S
 Framework group  CS[SG(CH2S),X(H2)]
 Deg. of freedom     8
 Full point group                 CS      NOp   2
 Largest Abelian subgroup         CS      NOp   2
 Largest concise Abelian subgroup CS      NOp   2
                         Standard orientation:                         
 ---------------------------------------------------------------------
 Center     Atomic      Atomic             Coordinates (Angstroms)
 Number     Number       Type             X           Y           Z
 ---------------------------------------------------------------------
      1          6           0       -0.047887    1.158813    0.000000
      2         16           0       -0.047887   -0.667837    0.000000
      3          1           0        1.284474   -0.834899    0.000000
      4          1           0       -1.092571    1.460452    0.000000
      5          1           0        0.430807    1.553478    0.892173
      6          1           0        0.430807    1.553478   -0.892173
 ---------------------------------------------------------------------
 Rotational constants (GHZ):         103.3557800          12.8123333          12.2886642
 General basis read from cards:  (5D, 7F)
 There are   138 symmetry adapted cartesian basis functions of A'  symmetry.
 There are    72 symmetry adapted cartesian basis functions of A"  symmetry.
 There are   120 symmetry adapted basis functions of A'  symmetry.
 There are    67 symmetry adapted basis functions of A"  symmetry.
   187 basis functions,   294 primitive gaussians,   210 cartesian basis functions
    13 alpha electrons       13 beta electrons
       nuclear repulsion energy        56.1609479342 Hartrees.
 NAtoms=    6 NActive=    6 NUniq=    5 SFac= 1.44D+00 NAtFMM=   60 NAOKFM=F Big=F
 Integral buffers will be    131072 words long.
 Raffenetti 2 integral format.
 Two-electron integral symmetry is turned on.
 One-electron integrals computed using PRISM.
 NBasis=   187 RedAO= T EigKep=  9.68D-05  NBF=   120    67
 NBsUse=   187 1.00D-06 EigRej= -1.00D+00 NBFU=   120    67
 Initial guess from the checkpoint file:  "ch3sh.chk"
 B after Tr=     0.000000    0.000000    0.000000
         Rot=    1.000000    0.000000    0.000000    0.000000 Ang=   0.00 deg.
 Initial guess orbital symmetries:
       Occupied  (A') (A') (A') (A') (A') (A") (A') (A') (A') (A")
                 (A') (A') (A")
       Virtual   (A') (A') (A') (A') (A") (A') (A') (A") (A') (A')
                 (A") (A') (A") (A') (A') (A') (A") (A') (A") (A')
                 (A') (A') (A") (A') (A') (A") (A") (A") (A') (A')
                 (A") (A') (A') (A') (A") (A') (A') (A") (A') (A')
                 (A") (A') (A') (A") (A') (A') (A") (A') (A") (A')
                 (A') (A") (A') (A') (A') (A") (A') (A') (A") (A")
                 (A') (A") (A') (A") (A") (A') (A') (A') (A") (A")
                 (A") (A') (A') (A') (A") (A") (A') (A") (A') (A')
                 (A') (A') (A") (A') (A") (A') (A") (A") (A') (A")
                 (A') (A') (A') (A') (A") (A') (A') (A') (A") (A')
                 (A") (A') (A') (A") (A") (A') (A') (A') (A') (A')
                 (A') (A') (A') (A') (A') (A') (A') (A') (A') (A')
                 (A') (A') (A') (A') (A') (A') (A') (A') (A') (A')
                 (A') (A') (A') (A') (A') (A') (A') (A') (A') (A')
                 (A') (A') (A') (A') (A') (A') (A') (A') (A') (A')
                 (A") (A") (A") (A") (A") (A") (A") (A") (A") (A")
                 (A") (A") (A") (A") (A") (A") (A") (A") (A") (A")
                 (A") (A") (A") (A")
 Keep R1 and R2 ints in memory in symmetry-blocked form, NReq=233487906.
 Requested convergence on RMS density matrix=1.00D-08 within 128 cycles.
 Requested convergence on MAX density matrix=1.00D-06.
 Requested convergence on             energy=1.00D-06.
 No special actions if energy rises.
 SCF Done:  E(ROHF) =  -437.764756820     A.U. after   11 cycles
            NFock= 11  Conv=0.31D-08     -V/T= 2.0002
 <Sx>= 0.0000 <Sy>= 0.0000 <Sz>= 0.0000 <S**2>=-0.0000 S=-0.0000
 <L.S>=  0.00000000000    
 Annihilation of the first spin contaminant:
 S**2 before annihilation    -0.0000,   after     0.0000

 **********************************************************************

            Population analysis using the SCF Density.

 **********************************************************************

 Orbital symmetries:
       Occupied  (A') (A') (A') (A') (A') (A") (A') (A') (A') (A")
                 (A') (A') (A")
       Virtual   (A') (A') (A') (A") (A') (A') (A") (A') (A') (A")
                 (A') (A') (A') (A') (A") (A') (A') (A") (A') (A')
                 (A") (A") (A') (A') (A") (A') (A') (A") (A') (A')
                 (A") (A') (A") (A') (A') (A") (A') (A') (A") (A')
                 (A') (A") (A') (A') (A") (A') (A') (A") (A') (A")
                 (A') (A') (A") (A') (A') (A") (A') (A") (A') (A")
                 (A') (A') (A") (A") (A') (A") (A') (A") (A') (A")
                 (A') (A') (A") (A') (A') (A") (A') (A") (A') (A')
                 (A') (A") (A') (A") (A') (A') (A') (A") (A') (A")
                 (A") (A') (A') (A") (A') (A") (A') (A") (A') (A')
                 (A") (A') (A') (A") (A') (A') (A") (A') (A') (A")
                 (A') (A") (A') (A") (A') (A') (A') (A") (A') (A')
                 (A") (A') (A') (A") (A") (A') (A") (A') (A") (A')
                 (A') (A") (A') (A") (A') (A") (A') (A') (A") (A')
                 (A") (A') (A') (A") (A') (A") (A') (A') (A') (A')
                 (A") (A') (A') (A") (A') (A') (A") (A') (A') (A")
                 (A') (A') (A") (A") (A') (A') (A') (A') (A') (A")
                 (A') (A") (A') (A')
 The electronic state is 1-A'.
 Alpha  occ. eigenvalues --  -91.95173 -11.25746  -8.95340  -6.63493  -6.63408
 Alpha  occ. eigenvalues --   -6.63330  -1.03479  -0.86739  -0.60767  -0.59260
 Alpha  occ. eigenvalues --   -0.52814  -0.45935  -0.35759
 Alpha virt. eigenvalues --    0.05171   0.06190   0.07319   0.07807   0.09701
 Alpha virt. eigenvalues --    0.10131   0.10608   0.16843   0.18178   0.20324
 Alpha virt. eigenvalues --    0.20721   0.23507   0.25071   0.33862   0.34316
 Alpha virt. eigenvalues --    0.34659   0.37536   0.38046   0.38211   0.41498
 Alpha virt. eigenvalues --    0.42817   0.43610   0.45265   0.47326   0.48063
 Alpha virt. eigenvalues --    0.53010   0.55700   0.59255   0.60994   0.64517
 Alpha virt. eigenvalues --    0.66304   0.68636   0.70610   0.74826   0.79356
 Alpha virt. eigenvalues --    0.79814   0.81350   0.83573   0.86865   0.88492
 Alpha virt. eigenvalues --    0.94824   0.97674   0.99963   1.02884   1.03975
 Alpha virt. eigenvalues --    1.04377   1.08031   1.12729   1.17287   1.18186
 Alpha virt. eigenvalues --    1.22131   1.26823   1.32167   1.35285   1.43427
 Alpha virt. eigenvalues --    1.45938   1.49248   1.49595   1.51260   1.51588
 Alpha virt. eigenvalues --    1.53844   1.57069   1.57318   1.61120   1.61890
 Alpha virt. eigenvalues --    1.71109   1.71144   1.75627   1.76275   1.80053
 Alpha virt. eigenvalues --    1.81873   1.87174   1.88459   1.89284   1.90236
 Alpha virt. eigenvalues --    1.91363   1.92451   1.97018   1.98353   2.01940
 Alpha virt. eigenvalues --    2.02713   2.03169   2.06769   2.08446   2.11815
 Alpha virt. eigenvalues --    2.20638   2.27780   2.29361   2.33632   2.34775
 Alpha virt. eigenvalues --    2.36910   2.39006   2.41996   2.45096   2.50732
 Alpha virt. eigenvalues --    2.51580   2.53871   2.56816   2.58485   2.59260
 Alpha virt. eigenvalues --    2.72855   2.84971   2.88216   2.88785   2.97363
 Alpha virt. eigenvalues --    2.99730   3.09269   3.10950   3.14033   3.15140
 Alpha virt. eigenvalues --    3.20324   3.23049   3.32334   3.37020   3.41604
 Alpha virt. eigenvalues --    3.45396   3.53073   3.53182   3.60369   3.67734
 Alpha virt. eigenvalues --    3.78785   3.84112   4.65145   4.65395   4.74812
 Alpha virt. eigenvalues --    4.79796   4.91434   4.93199   4.94205   4.95741
 Alpha virt. eigenvalues --    5.06079   5.06832   5.15414   5.40430   5.42303
 Alpha virt. eigenvalues --    5.46520   5.59725   5.84003   5.95250   5.96166
 Alpha virt. eigenvalues --    6.00441   6.01942   6.07826   6.10767   6.13607
 Alpha virt. eigenvalues --    6.14067   6.17373   6.30723   6.46929   6.91126
 Alpha virt. eigenvalues --    7.14649   7.16934   8.16290   8.32357   8.33103
 Alpha virt. eigenvalues --    8.55536   8.65929   8.69237   9.31097   9.42196
 Alpha virt. eigenvalues --    9.45299  18.56413  19.36943  19.41809  19.45197
 Alpha virt. eigenvalues --   19.55541  19.73676  21.44662  21.58478  21.59398
 Alpha virt. eigenvalues --   22.78143  25.74463  26.05083  26.17942
          Condensed to atoms (all electrons):
               1          2          3          4          5          6
     1  C    4.897273   0.227825   0.004072   0.385792   0.391764   0.391764
     2  S    0.227825  15.571720   0.309644  -0.050959  -0.034770  -0.034770
     3  H    0.004072   0.309644   0.681809   0.006162  -0.007895  -0.007895
     4  H    0.385792  -0.050959   0.006162   0.625899  -0.027248  -0.027248
     5  H    0.391764  -0.034770  -0.007895  -0.027248   0.628550  -0.043140
     6  H    0.391764  -0.034770  -0.007895  -0.027248  -0.043140   0.628550
          Atomic-Atomic Spin Densities.
               1          2          3          4          5          6
     1  C    0.000000   0.000000   0.000000   0.000000   0.000000   0.000000
     2  S    0.000000   0.000000   0.000000   0.000000   0.000000   0.000000
     3  H    0.000000   0.000000   0.000000   0.000000   0.000000   0.000000
     4  H    0.000000   0.000000   0.000000   0.000000   0.000000   0.000000
     5  H    0.000000   0.000000   0.000000   0.000000   0.000000   0.000000
     6  H    0.000000   0.000000   0.000000   0.000000   0.000000   0.000000
 Mulliken charges and spin densities:
               1          2
     1  C   -0.298490   0.000000
     2  S    0.011308   0.000000
     3  H    0.014103   0.000000
     4  H    0.087601   0.000000
     5  H    0.092739   0.000000
     6  H    0.092739   0.000000
 Sum of Mulliken charges =  -0.00000   0.00000
 Mulliken charges and spin densities with hydrogens summed into heavy atoms:
               1          2
     1  C   -0.025411   0.000000
     2  S    0.025411   0.000000
 Electronic spatial extent (au):  <R**2>=            145.5700
 Charge=             -0.0000 electrons
 Dipole moment (field-independent basis, Debye):
    X=              0.7551    Y=              1.4932    Z=             -0.0000  Tot=              1.6732
 Quadrupole moment (field-independent basis, Debye-Ang):
   XX=            -19.3554   YY=            -20.5493   ZZ=            -22.8100
   XY=             -1.2987   XZ=             -0.0000   YZ=              0.0000
 Traceless Quadrupole moment (field-independent basis, Debye-Ang):
   XX=              1.5495   YY=              0.3556   ZZ=             -1.9051
   XY=             -1.2987   XZ=             -0.0000   YZ=              0.0000
 Octapole moment (field-independent basis, Debye-Ang**2):
  XXX=              0.9008  YYY=              0.1792  ZZZ=             -0.0000  XYY=              1.4310
  XXY=              0.0437  XXZ=              0.0000  XZZ=              0.9219  YZZ=              2.9470
  YYZ=             -0.0000  XYZ=              0.0000
 Hexadecapole moment (field-independent basis, Debye-Ang**3):
 XXXX=            -34.8503 YYYY=           -136.2102 ZZZZ=            -37.4481 XXXY=             -0.8428
 XXXZ=             -0.0000 YYYX=              0.5188 YYYZ=             -0.0000 ZZZX=              0.0000
 ZZZY=             -0.0000 XXYY=            -27.8403 XXZZ=            -12.8928 YYZZ=            -29.4778
 XXYZ=              0.0000 YYXZ=             -0.0000 ZZXY=              1.5788
 N-N= 5.616094793423D+01 E-N=-1.152516120517D+03  KE= 4.376895775855D+02
 Symmetry A'   KE= 3.970618076115D+02
 Symmetry A"   KE= 4.062776997394D+01
 Symmetry A'   SP= 0.000000000000D+00
 Symmetry A"   SP= 0.000000000000D+00
                          Isotropic Fermi Contact Couplings
        Atom                 a.u.       MegaHertz       Gauss      10(-4) cm-1
     1  C(13)              0.00000       0.00000       0.00000       0.00000
     2  S(33)              0.00000       0.00000       0.00000       0.00000
     3  H(1)               0.00000       0.00000       0.00000       0.00000
     4  H(1)               0.00000       0.00000       0.00000       0.00000
     5  H(1)               0.00000       0.00000       0.00000       0.00000
     6  H(1)               0.00000       0.00000       0.00000       0.00000
 --------------------------------------------------------
       Center         ----  Spin Dipole Couplings  ----
                      3XX-RR        3YY-RR        3ZZ-RR
 --------------------------------------------------------
     1   Atom        0.000000      0.000000      0.000000
     2   Atom        0.000000      0.000000      0.000000
     3   Atom        0.000000      0.000000      0.000000
     4   Atom        0.000000      0.000000      0.000000
     5   Atom        0.000000      0.000000      0.000000
     6   Atom        0.000000      0.000000      0.000000
 --------------------------------------------------------
                        XY            XZ            YZ
 --------------------------------------------------------
     1   Atom        0.000000      0.000000      0.000000
     2   Atom        0.000000      0.000000      0.000000
     3   Atom        0.000000      0.000000      0.000000
     4   Atom        0.000000      0.000000      0.000000
     5   Atom        0.000000      0.000000      0.000000
     6   Atom        0.000000      0.000000      0.000000
 --------------------------------------------------------


 ---------------------------------------------------------------------------------
              Anisotropic Spin Dipole Couplings in Principal Axis System
 ---------------------------------------------------------------------------------

       Atom             a.u.   MegaHertz   Gauss  10(-4) cm-1        Axes

              Baa     0.0000     0.000     0.000     0.000  1.0000  0.0000  0.0000
     1 C(13)  Bbb     0.0000     0.000     0.000     0.000 -0.0000  1.0000  0.0000
              Bcc     0.0000     0.000     0.000     0.000  0.0000  0.0000  1.0000
 
              Baa     0.0000     0.000     0.000     0.000  1.0000  0.0000  0.0000
     2 S(33)  Bbb     0.0000     0.000     0.000     0.000 -0.0000  1.0000  0.0000
              Bcc     0.0000     0.000     0.000     0.000  0.0000  0.0000  1.0000
 
              Baa     0.0000     0.000     0.000     0.000  1.0000  0.0000  0.0000
     3 H(1)   Bbb     0.0000     0.000     0.000     0.000 -0.0000  1.0000  0.0000
              Bcc     0.0000     0.000     0.000     0.000  0.0000  0.0000  1.0000
 
              Baa     0.0000     0.000     0.000     0.000  1.0000  0.0000  0.0000
     4 H(1)   Bbb     0.0000     0.000     0.000     0.000 -0.0000  1.0000  0.0000
              Bcc     0.0000     0.000     0.000     0.000  0.0000  0.0000  1.0000
 
              Baa     0.0000     0.000     0.000     0.000  1.0000  0.0000  0.0000
     5 H(1)   Bbb     0.0000     0.000     0.000     0.000 -0.0000  1.0000  0.0000
              Bcc     0.0000     0.000     0.000     0.000  0.0000  0.0000  1.0000
 
              Baa     0.0000     0.000     0.000     0.000  1.0000  0.0000  0.0000
     6 H(1)   Bbb     0.0000     0.000     0.000     0.000 -0.0000  1.0000  0.0000
              Bcc     0.0000     0.000     0.000     0.000  0.0000  0.0000  1.0000
 

 ---------------------------------------------------------------------------------

 1\1\GINC-GAMBA\SP\ROHF\Gen\C1H4S1\IRIKURA\29-Sep-2023\0\\# rohf/gen ge
 om=check guess=check\\methanethiol, ROHF/cc-pVTZ-F12\\0,1\C,0,-0.04788
 7,1.158813,0.\S,0,-0.047887,-0.667837,0.\H,0,1.284474,-0.834899,0.\H,0
 ,-1.092571,1.460452,0.\H,0,0.430807,1.553478,0.892173\H,0,0.430807,1.5
 53478,-0.892173\\Version=ES64L-G16RevB.01\State=1-A'\HF=-437.7647568\R
 MSD=3.106e-09\Dipole=0.2970689,0.5874521,0.\Quadrupole=1.151997,0.2643
 779,-1.4163749,-0.9655555,0.,0.\PG=CS [SG(C1H2S1),X(H2)]\\@


 I WANT TO KNOW HOW GOD CREATED THE WORLD.  I AM NOT INTERESTED IN
 THIS OR THAT PHENOMENON, IN THE SPECTRUM OF THIS OR THAT ELEMENT.
 I WANT TO KNOW HIS THOUGHTS, THE REST ARE DETAILS.
     -- ALBERT EINSTEIN
 Job cpu time:       0 days  0 hours  0 minutes 32.1 seconds.
 Elapsed time:       0 days  0 hours  0 minutes  8.6 seconds.
 File lengths (MBytes):  RWF=     20 Int=      0 D2E=      0 Chk=      4 Scr=      1
 Normal termination of Gaussian 16 at Fri Sep 29 22:30:37 2023.
