 Entering Gaussian System, Link 0=g16
 AtFile(1): pcseg2.gbs
            -H     0
            S   4   1.00
                  0.754732D+02           0.427821D-02
                  0.113575D+02           0.328672D-01
                  0.260081D+01           0.159578D+00
                  0.735503D+00           0.500000D+00
            S   1   1.00
                  0.231761D+00           1.0000000
            S   1   1.00
                  0.741675D-01           1.0000000
            P   1   1.00
                  0.160000D+01           1.0000000
            P   1   1.00
                  0.450000D+00           1.0000000
            D   1   1.00
                  0.125000D+01           1.0000000
            ****
            -C     0
            S   7   1.00
                  0.731999D+04           0.695369D-03
                  0.109818D+04           0.537138D-02
                  0.250014D+03           0.274734D-01
                  0.707586D+02           0.105078D+00
                  0.228595D+02           0.291262D+00
                  0.803936D+01           0.500000D+00
                  0.289309D+01           0.362224D+00
            S   2   1.00
                  0.521640D+01          -0.957844D-01
                  0.556124D+00           0.500000D+00
            S   1   1.00
                  0.228813D+00           1.0000000
            S   1   1.00
                  0.936338D-01           1.0000000
            P   4   1.00
                  0.339855D+02           0.818395D-02
                  0.772957D+01           0.586921D-01
                  0.224954D+01           0.222514D+00
                  0.767681D+00           0.500000D+00
            P   1   1.00
                  0.263283D+00           1.0000000
            P   1   1.00
                  0.848744D-01           1.0000000
            D   1   1.00
                  0.140000D+01           1.0000000
            D   1   1.00
                  0.450000D+00           1.0000000
            F   1   1.00
                  0.950000D+00           1.0000000
            ****
            -O     0
            S   7   1.00
                  0.135887D+05           0.665492D-03
                  0.203847D+04           0.514222D-02
                  0.464041D+03           0.263472D-01
                  0.131339D+03           0.101500D+00
                  0.425340D+02           0.285877D+00
                  0.150429D+02           0.500000D+00
                  0.546616D+01           0.368211D+00
            S   2   1.00
                  0.100915D+02          -0.100084D+00
                  0.110429D+01           0.500000D+00
            S   1   1.00
                  0.448082D+00           1.0000000
            S   1   1.00
                  0.175325D+00           1.0000000
            P   4   1.00
                  0.608220D+02           0.908253D-02
                  0.140332D+02           0.645878D-01
                  0.418244D+01           0.241502D+00
                  0.142490D+01           0.500000D+00
            P   1   1.00
                  0.478741D+00           1.0000000
            P   1   1.00
                  0.146257D+00           1.0000000
            D   1   1.00
                  0.220000D+01           1.0000000
            D   1   1.00
                  0.650000D+00           1.0000000
            F   1   1.00
                  0.110000D+01           1.0000000
            ****
            -N     0
            S   7   1.00
                  0.101643D+05           0.682757D-03
                  0.152481D+04           0.527488D-02
                  0.347119D+03           0.270037D-01
                  0.982389D+02           0.103673D+00
                  0.317799D+02           0.289575D+00
                  0.112240D+02           0.500000D+00
                  0.406611D+01           0.364621D+00
            S   2   1.00
                  0.747898D+01          -0.975681D-01
                  0.805040D+00           0.500000D+00
            S   1   1.00
                  0.324626D+00           1.0000000
            S   1   1.00
                  0.128132D+00           1.0000000
            P   4   1.00
                  0.482704D+02           0.829547D-02
                  0.110815D+02           0.596223D-01
                  0.326643D+01           0.227889D+00
                  0.111680D+01           0.500000D+00
            P   1   1.00
                  0.382049D+00           1.0000000
            P   1   1.00
                  0.121222D+00           1.0000000
            D   1   1.00
                  0.180000D+01           1.0000000
            D   1   1.00
                  0.550000D+00           1.0000000
            F   1   1.00
                  0.102000D+01           1.0000000
            ****
            -F     0
            S   7   1.00
                  0.174507D+05           0.655972D-03
                  0.261768D+04           0.506944D-02
                  0.595857D+03           0.259899D-01
                  0.168651D+03           0.100353D+00
                  0.546654D+02           0.284095D+00
                  0.193717D+02           0.500000D+00
                  0.706202D+01           0.370721D+00
            S   2   1.00
                  0.131197D+02          -0.101997D+00
                  0.145046D+01           0.500000D+00
            S   1   1.00
                  0.588255D+00           1.0000000
            S   1   1.00
                  0.227960D+00           1.0000000
            P   4   1.00
                  0.779407D+02           0.931135D-02
                  0.180425D+02           0.663964D-01
                  0.542342D+01           0.246386D+00
                  0.184876D+01           0.500000D+00
            P   1   1.00
                  0.617455D+00           1.0000000
            P   1   1.00
                  0.185496D+00           1.0000000
            D   1   1.00
                  0.280000D+01           1.0000000
            D   1   1.00
                  0.800000D+00           1.0000000
            F   1   1.00
                  0.120000D+01           1.0000000
            ****
            -Cl     0
            S   8   1.00
                  0.154272D+06           0.222473D-03
                  0.231232D+05           0.172590D-02
                  0.526257D+04           0.899286D-02
                  0.148995D+04           0.367724D-01
                  0.485417D+03           0.121446D+00
                  0.174634D+03           0.304148D+00
                  0.672393D+02           0.500000D+00
                  0.265780D+02           0.360252D+00
            S   3   1.00
                  0.131826D+03          -0.531330D-01
                  0.400703D+02          -0.233346D+00
                  0.789448D+01           0.500000D+00
            S   2   1.00
                  0.427711D+01           0.500000D+00
                  0.196233D+01           0.370517D+00
            S   1   1.00
                  0.520793D+00           1.0000000
            S   1   1.00
                  0.181633D+00           1.0000000
            P   7   1.00
                  0.124440D+04           0.988206D-03
                  0.295109D+03           0.829674D-02
                  0.947224D+02           0.430906D-01
                  0.352588D+02           0.148443D+00
                  0.144211D+02           0.344744D+00
                  0.610371D+01           0.500000D+00
                  0.258886D+01           0.348278D+00
            P   2   1.00
                  0.109447D+02          -0.196768D-01
                  0.104413D+01           0.500000D+00
            P   1   1.00
                  0.376184D+00           1.0000000
            P   1   1.00
                  0.120613D+00           1.0000000
            D   1   1.00
                  0.231000D+01           1.0000000
            D   1   1.00
                  0.520000D+00           1.0000000
            F   1   1.00
                  0.720000D+00           1.0000000
            ****
            -S     0
            S   8   1.00
                  0.134700D+06           0.226231D-03
                  0.201904D+05           0.175488D-02
                  0.459528D+04           0.914190D-02
                  0.130109D+04           0.373551D-01
                  0.423902D+03           0.123121D+00
                  0.152485D+03           0.306801D+00
                  0.586925D+02           0.500000D+00
                  0.231461D+02           0.354358D+00
            S   3   1.00
                  0.116327D+03          -0.491772D-01
                  0.352841D+02          -0.215962D+00
                  0.677831D+01           0.500000D+00
            S   2   1.00
                  0.360404D+01           0.500000D+00
                  0.164871D+01           0.366278D+00
            S   1   1.00
                  0.421821D+00           1.0000000
            S   1   1.00
                  0.147554D+00           1.0000000
            P   7   1.00
                  0.104863D+04           0.105273D-02
                  0.248717D+03           0.879338D-02
                  0.797887D+02           0.453358D-01
                  0.296023D+02           0.154476D+00
                  0.120627D+02           0.352366D+00
                  0.507628D+01           0.500000D+00
                  0.213375D+01           0.346429D+00
            P   2   1.00
                  0.928958D+01          -0.185932D-01
                  0.837819D+00           0.500000D+00
            P   1   1.00
                  0.301495D+00           1.0000000
            P   1   1.00
                  0.974740D-01           1.0000000
            D   1   1.00
                  0.210000D+01           1.0000000
            D   1   1.00
                  0.480000D+00           1.0000000
            F   1   1.00
                  0.660000D+00           1.0000000
            ****
            -Br     0
            S    10   1.00
                  0.233625D+07           0.532336D-04
                  0.349961D+06           0.413715D-03
                  0.796444D+05           0.217123D-02
                  0.225555D+05           0.910109D-02
                  0.735546D+04           0.323789D-01
                  0.265352D+04           0.988755D-01
                  0.103517D+04           0.248138D+00
                  0.422205D+03           0.474328D+00
                  0.180035D+03           0.500000D+00
                  0.793308D+02           0.187769D+00
            S    4   1.00
                  0.620834D+03          -0.226511D-01
                  0.190829D+03          -0.109497D+00
                  0.312505D+02           0.500000D+00
                  0.135270D+02           0.492812D+00
            S    2   1.00
                  0.216097D+02          -0.165418D+00
                  0.372566D+01           0.500000D+00
            S    1   1.00
                  0.169770D+01           1.0000000
            S    1   1.00
                  0.489332D+00           1.0000000
            S    1   1.00
                  0.175712D+00           1.0000000
            P    8   1.00
                  0.960829D+04           0.478974D-03
                  0.227618D+04           0.417853D-02
                  0.736723D+03           0.229315D-01
                  0.281579D+03           0.892653D-01
                  0.118395D+03           0.255288D+00
                  0.527481D+02           0.479074D+00
                  0.245098D+02           0.500000D+00
                  0.112009D+02           0.200944D+00
            P    4   1.00
                  0.587849D+02          -0.189674D-01
                  0.918962D+01           0.264104D+00
                  0.413895D+01           0.500000D+00
                  0.184225D+01           0.319316D+00
            P    1   1.00
                  0.713862D+00           1.0000000
            P    1   1.00
                  0.274232D+00           1.0000000
            P    1   1.00
                  0.944411D-01           1.0000000
            D    7   1.00
                  0.398470D+03           0.204066D-02
                  0.118967D+03           0.175171D-01
                  0.450197D+02           0.829708D-01
                  0.190320D+02           0.236284D+00
                  0.855686D+01           0.428468D+00
                  0.382950D+01           0.500000D+00
                  0.166291D+01           0.349360D+00
            D    1   1.00
                  0.672953D+00           1.0000000
            D    1   1.00
                  0.252000D+00           1.0000000
            F    1   1.00
                  0.530000D+00           1.0000000
            ****
            -Si     0
            S    8   1.00
                  0.996133D+05           0.235546D-03
                  0.149311D+05           0.182707D-02
                  0.339820D+04           0.951425D-02
                  0.962140D+03           0.388172D-01
                  0.313430D+03           0.127328D+00
                  0.112683D+03           0.313522D+00
                  0.433372D+02           0.500000D+00
                  0.170029D+02           0.340347D+00
            S    3   1.00
                  0.884208D+02          -0.404451D-01
                  0.266756D+02          -0.178059D+00
                  0.479640D+01           0.500000D+00
            S    2   1.00
                  0.239385D+01           0.500000D+00
                  0.108333D+01           0.338016D+00
            S    1   1.00
                  0.252420D+00           1.0000000
            S    1   1.00
                  0.891210D-01           1.0000000
            P    7   1.00
                  0.709901D+03           0.123028D-02
                  0.168426D+03           0.101366D-01
                  0.539946D+02           0.511840D-01
                  0.198646D+02           0.169967D+00
                  0.801369D+01           0.370717D+00
                  0.331870D+01           0.500000D+00
                  0.136112D+01           0.344128D+00
            P    2   1.00
                  0.622158D+01          -0.166609D-01
                  0.503049D+00           0.500000D+00
            P    1   1.00
                  0.179848D+00           1.0000000
            P    1   1.00
                  0.591912D-01           1.0000000
            D    1   1.00
                  0.168000D+01           1.0000000
            D    1   1.00
                  0.380000D+00           1.0000000
            F    1   1.00
                  0.540000D+00           1.0000000
            ****
            -P     0
            S    8   1.00
                  0.116416D+06           0.230715D-03
                  0.174500D+05           0.178960D-02
                  0.397149D+04           0.932116D-02
                  0.112447D+04           0.380591D-01
                  0.366347D+03           0.125148D+00
                  0.131757D+03           0.310022D+00
                  0.506988D+02           0.500000D+00
                  0.199436D+02           0.347528D+00
            S    3   1.00
                  0.101878D+03          -0.446755D-01
                  0.308249D+02          -0.196376D+00
                  0.573688D+01           0.500000D+00
            S    2   1.00
                  0.296868D+01           0.500000D+00
                  0.135315D+01           0.355098D+00
            S    1   1.00
                  0.332196D+00           1.0000000
            S    1   1.00
                  0.116229D+00           1.0000000
            P    7   1.00
                  0.873928D+03           0.112375D-02
                  0.207298D+03           0.933330D-02
                  0.664628D+02           0.477213D-01
                  0.245665D+02           0.160733D+00
                  0.996820D+01           0.359760D+00
                  0.416536D+01           0.500000D+00
                  0.173022D+01           0.346593D+00
            P    2   1.00
                  0.772530D+01          -0.175718D-01
                  0.657252D+00           0.500000D+00
            P    1   1.00
                  0.239903D+00           1.0000000
            P    1   1.00
                  0.800988D-01           1.0000000
            D    1   1.00
                  0.189000D+01           1.0000000
            D    1   1.00
                  0.430000D+00           1.0000000
            F    1   1.00
                  0.600000D+00           1.0000000
            ****
            
 Initial command:
 /usr/local/apps/g16_b01_avx/g16/l1.exe "/wrk/irikura/Gau-3067.inp" -scrdir="/wrk/irikura/"
 Entering Link 1 = /usr/local/apps/g16_b01_avx/g16/l1.exe PID=      3069.
  
 Copyright (c) 1988-2017, Gaussian, Inc.  All Rights Reserved.
  
 This is part of the Gaussian(R) 16 program.  It is based on
 the Gaussian(R) 09 system (copyright 2009, Gaussian, Inc.),
 the Gaussian(R) 03 system (copyright 2003, Gaussian, Inc.),
 the Gaussian(R) 98 system (copyright 1998, Gaussian, Inc.),
 the Gaussian(R) 94 system (copyright 1995, Gaussian, Inc.),
 the Gaussian 92(TM) system (copyright 1992, Gaussian, Inc.),
 the Gaussian 90(TM) system (copyright 1990, Gaussian, Inc.),
 the Gaussian 88(TM) system (copyright 1988, Gaussian, Inc.),
 the Gaussian 86(TM) system (copyright 1986, Carnegie Mellon
 University), and the Gaussian 82(TM) system (copyright 1983,
 Carnegie Mellon University). Gaussian is a federally registered
 trademark of Gaussian, Inc.
  
 This software contains proprietary and confidential information,
 including trade secrets, belonging to Gaussian, Inc.
  
 This software is provided under written license and may be
 used, copied, transmitted, or stored only in accord with that
 written license.
  
 The following legend is applicable only to US Government
 contracts under FAR:
  
                    RESTRICTED RIGHTS LEGEND
  
 Use, reproduction and disclosure by the US Government is
 subject to restrictions as set forth in subparagraphs (a)
 and (c) of the Commercial Computer Software - Restricted
 Rights clause in FAR 52.227-19.
  
 Gaussian, Inc.
 340 Quinnipiac St., Bldg. 40, Wallingford CT 06492
  
  
 ---------------------------------------------------------------
 Warning -- This program may not be used in any manner that
 competes with the business of Gaussian, Inc. or will provide
 assistance to any competitor of Gaussian, Inc.  The licensee
 of this program is prohibited from giving any competitor of
 Gaussian, Inc. access to this program.  By using this program,
 the user acknowledges that Gaussian, Inc. is engaged in the
 business of creating and licensing software in the field of
 computational chemistry and represents and warrants to the
 licensee that it is not a competitor of Gaussian, Inc. and that
 it will not use this program in any manner prohibited above.
 ---------------------------------------------------------------
  

 Cite this work as:
 Gaussian 16, Revision B.01,
 M. J. Frisch, G. W. Trucks, H. B. Schlegel, G. E. Scuseria, 
 M. A. Robb, J. R. Cheeseman, G. Scalmani, V. Barone, 
 G. A. Petersson, H. Nakatsuji, X. Li, M. Caricato, A. V. Marenich, 
 J. Bloino, B. G. Janesko, R. Gomperts, B. Mennucci, H. P. Hratchian, 
 J. V. Ortiz, A. F. Izmaylov, J. L. Sonnenberg, D. Williams-Young, 
 F. Ding, F. Lipparini, F. Egidi, J. Goings, B. Peng, A. Petrone, 
 T. Henderson, D. Ranasinghe, V. G. Zakrzewski, J. Gao, N. Rega, 
 G. Zheng, W. Liang, M. Hada, M. Ehara, K. Toyota, R. Fukuda, 
 J. Hasegawa, M. Ishida, T. Nakajima, Y. Honda, O. Kitao, H. Nakai, 
 T. Vreven, K. Throssell, J. A. Montgomery, Jr., J. E. Peralta, 
 F. Ogliaro, M. J. Bearpark, J. J. Heyd, E. N. Brothers, K. N. Kudin, 
 V. N. Staroverov, T. A. Keith, R. Kobayashi, J. Normand, 
 K. Raghavachari, A. P. Rendell, J. C. Burant, S. S. Iyengar, 
 J. Tomasi, M. Cossi, J. M. Millam, M. Klene, C. Adamo, R. Cammi, 
 J. W. Ochterski, R. L. Martin, K. Morokuma, O. Farkas, 
 J. B. Foresman, and D. J. Fox, Gaussian, Inc., Wallingford CT, 2016.
 
 ******************************************
 Gaussian 16:  ES64L-G16RevB.01 20-Dec-2017
                16-Jun-2022 
 ******************************************
 %mem=1000mw
 %nprocs=12
 Will use up to   12 processors via shared memory.
 --------------------
 # b3lyp/gen opt freq
 --------------------
 1/18=20,19=15,26=3,38=1/1,3;
 2/9=110,12=2,17=6,18=5,40=1/2;
 3/5=7,11=2,25=1,30=1,71=1,74=-5/1,2,3;
 4//1;
 5/5=2,38=5/2;
 6/7=2,8=2,9=2,10=2,28=1/1;
 7//1,2,3,16;
 1/18=20,19=15,26=3/3(2);
 2/9=110/2;
 99//99;
 2/9=110/2;
 3/5=7,6=1,11=2,25=1,30=1,71=1,74=-5,82=7/1,2,3;
 4/5=5,16=3,69=1/1;
 5/5=2,38=5/2;
 7//1,2,3,16;
 1/18=20,19=15,26=3/3(-5);
 2/9=110/2;
 6/7=2,8=2,9=2,10=2,19=2,28=1/1;
 99/9=1/99;
 ------------------------------
 formyl chloride, B3LYP/pcseg-2
 ------------------------------
 Symbolic Z-matrix:
 Charge =  0 Multiplicity = 1
 C                     0.        0.81425   0. 
 O                     1.11601   1.18518   0. 
 Cl                   -0.472    -0.92948   0. 
 H                    -0.90417   1.43419   0. 
 

 GradGradGradGradGradGradGradGradGradGradGradGradGradGradGradGradGradGrad
 Berny optimization.
 Initialization pass.
                           ----------------------------
                           !    Initial Parameters    !
                           ! (Angstroms and Degrees)  !
 --------------------------                            --------------------------
 ! Name  Definition              Value          Derivative Info.                !
 --------------------------------------------------------------------------------
 ! R1    R(1,2)                  1.176          estimate D2E/DX2                !
 ! R2    R(1,3)                  1.8065         estimate D2E/DX2                !
 ! R3    R(1,4)                  1.0963         estimate D2E/DX2                !
 ! A1    A(2,1,3)              123.5314         estimate D2E/DX2                !
 ! A2    A(2,1,4)              127.1785         estimate D2E/DX2                !
 ! A3    A(3,1,4)              109.2901         estimate D2E/DX2                !
 ! D1    D(2,1,4,3)            180.0            estimate D2E/DX2                !
 --------------------------------------------------------------------------------
 Trust Radius=3.00D-01 FncErr=1.00D-07 GrdErr=1.00D-06 EigMax=2.50D+02 EigMin=1.00D-04
 Number of steps in this run=     20 maximum allowed number of steps=    100.
 GradGradGradGradGradGradGradGradGradGradGradGradGradGradGradGradGradGrad

                          Input orientation:                          
 ---------------------------------------------------------------------
 Center     Atomic      Atomic             Coordinates (Angstroms)
 Number     Number       Type             X           Y           Z
 ---------------------------------------------------------------------
      1          6           0        0.000000    0.814250    0.000000
      2          8           0        1.116015    1.185182    0.000000
      3         17           0       -0.471997   -0.929479    0.000000
      4          1           0       -0.904170    1.434186    0.000000
 ---------------------------------------------------------------------
                    Distance matrix (angstroms):
                    1          2          3          4
     1  C    0.000000
     2  O    1.176044   0.000000
     3  Cl   1.806481   2.644536   0.000000
     4  H    1.096286   2.035473   2.402850   0.000000
 Stoichiometry    CHClO
 Framework group  CS[SG(CHClO)]
 Deg. of freedom     5
 Full point group                 CS      NOp   2
 Largest Abelian subgroup         CS      NOp   2
 Largest concise Abelian subgroup C1      NOp   1
                         Standard orientation:                         
 ---------------------------------------------------------------------
 Center     Atomic      Atomic             Coordinates (Angstroms)
 Number     Number       Type             X           Y           Z
 ---------------------------------------------------------------------
      1          6           0       -0.000000    0.814250    0.000000
      2          8           0        1.116015    1.185182    0.000000
      3         17           0       -0.471997   -0.929479    0.000000
      4          1           0       -0.904170    1.434186    0.000000
 ---------------------------------------------------------------------
 Rotational constants (GHZ):          78.2045774           5.9671988           5.5441655
 General basis read from cards:  (5D, 7F)
 There are    86 symmetry adapted cartesian basis functions of A'  symmetry.
 There are    38 symmetry adapted cartesian basis functions of A"  symmetry.
 There are    73 symmetry adapted basis functions of A'  symmetry.
 There are    35 symmetry adapted basis functions of A"  symmetry.
   108 basis functions,   190 primitive gaussians,   124 cartesian basis functions
    16 alpha electrons       16 beta electrons
       nuclear repulsion energy        87.4111848841 Hartrees.
 NAtoms=    4 NActive=    4 NUniq=    4 SFac= 1.00D+00 NAtFMM=   60 NAOKFM=F Big=F
 Integral buffers will be    131072 words long.
 Raffenetti 2 integral format.
 Two-electron integral symmetry is turned on.
 One-electron integrals computed using PRISM.
 NBasis=   108 RedAO= T EigKep=  2.03D-03  NBF=    73    35
 NBsUse=   108 1.00D-06 EigRej= -1.00D+00 NBFU=    73    35
 ExpMin= 7.42D-02 ExpMax= 1.54D+05 ExpMxC= 1.49D+03 IAcc=3 IRadAn=         5 AccDes= 0.00D+00
 Harris functional with IExCor=  402 and IRadAn=       5 diagonalized for initial guess.
 HarFok:  IExCor=  402 AccDes= 0.00D+00 IRadAn=         5 IDoV= 1 UseB2=F ITyADJ=14
 ICtDFT=  3500011 ScaDFX=  1.000000  1.000000  1.000000  1.000000
 FoFCou: FMM=F IPFlag=           0 FMFlag=      100000 FMFlg1=           0
         NFxFlg=           0 DoJE=T BraDBF=F KetDBF=T FulRan=T
         wScrn=  0.000000 ICntrl=       500 IOpCl=  0 I1Cent=   200000004 NGrid=           0
         NMat0=    1 NMatS0=      1 NMatT0=    0 NMatD0=    1 NMtDS0=    0 NMtDT0=    0
 Petite list used in FoFCou.
 Initial guess orbital symmetries:
       Occupied  (A') (A') (A') (A') (A') (A') (A") (A') (A') (A')
                 (A') (A') (A") (A') (A") (A')
       Virtual   (A") (A') (A') (A') (A') (A") (A') (A') (A') (A')
                 (A') (A") (A") (A') (A') (A") (A') (A") (A') (A')
                 (A') (A") (A') (A') (A') (A") (A') (A') (A") (A")
                 (A') (A') (A') (A") (A') (A') (A") (A') (A') (A')
                 (A") (A") (A') (A") (A') (A') (A") (A') (A") (A')
                 (A') (A') (A') (A") (A") (A') (A') (A") (A') (A")
                 (A') (A') (A") (A') (A') (A") (A') (A") (A") (A')
                 (A') (A") (A') (A") (A') (A') (A') (A") (A') (A')
                 (A") (A") (A') (A') (A") (A') (A') (A') (A") (A')
                 (A') (A')
 The electronic state of the initial guess is 1-A'.
 Keep R1 ints in memory in symmetry-blocked form, NReq=28755265.
 Requested convergence on RMS density matrix=1.00D-08 within 128 cycles.
 Requested convergence on MAX density matrix=1.00D-06.
 Requested convergence on             energy=1.00D-06.
 No special actions if energy rises.
 Integral accuracy reduced to 1.0D-05 until final iterations.
 Initial convergence to 1.0D-05 achieved.  Increase integral accuracy.
 SCF Done:  E(RB3LYP) =  -574.210912353     A.U. after   13 cycles
            NFock= 13  Conv=0.53D-08     -V/T= 2.0013

 **********************************************************************

            Population analysis using the SCF Density.

 **********************************************************************

 Orbital symmetries:
       Occupied  (A') (A') (A') (A') (A') (A") (A') (A') (A') (A')
                 (A') (A') (A") (A") (A') (A')
       Virtual   (A") (A') (A') (A') (A') (A") (A') (A') (A') (A')
                 (A') (A") (A") (A') (A') (A") (A') (A") (A') (A')
                 (A') (A") (A') (A') (A') (A") (A') (A") (A') (A")
                 (A') (A') (A') (A") (A') (A') (A") (A') (A') (A")
                 (A') (A") (A') (A") (A') (A') (A") (A') (A') (A")
                 (A') (A') (A') (A") (A") (A') (A') (A") (A') (A")
                 (A') (A') (A") (A') (A") (A') (A') (A") (A") (A')
                 (A') (A") (A') (A") (A') (A') (A') (A") (A') (A')
                 (A") (A') (A") (A') (A") (A') (A') (A') (A") (A')
                 (A') (A')
 The electronic state is 1-A'.
 Alpha  occ. eigenvalues -- -101.53205 -19.18271 -10.34259  -9.47742  -7.23801
 Alpha  occ. eigenvalues --   -7.23132  -7.22988  -1.12241  -0.86469  -0.64210
 Alpha  occ. eigenvalues --   -0.52354  -0.49387  -0.46408  -0.34607  -0.34130
 Alpha  occ. eigenvalues --   -0.32616
 Alpha virt. eigenvalues --   -0.07151  -0.01190   0.04228   0.09683   0.12140
 Alpha virt. eigenvalues --    0.15292   0.24605   0.28699   0.29708   0.31982
 Alpha virt. eigenvalues --    0.32473   0.32891   0.40342   0.44383   0.45735
 Alpha virt. eigenvalues --    0.49578   0.54324   0.54926   0.66578   0.68633
 Alpha virt. eigenvalues --    0.72534   0.76626   0.85409   0.96677   0.97791
 Alpha virt. eigenvalues --    1.04809   1.14898   1.16684   1.17367   1.22299
 Alpha virt. eigenvalues --    1.33775   1.50170   1.58442   1.61097   1.74230
 Alpha virt. eigenvalues --    1.86050   1.89914   1.96355   2.06665   2.09949
 Alpha virt. eigenvalues --    2.10876   2.11558   2.12042   2.16561   2.16902
 Alpha virt. eigenvalues --    2.21458   2.25129   2.37340   2.42377   2.43474
 Alpha virt. eigenvalues --    2.55863   2.76810   2.94508   3.17996   3.25151
 Alpha virt. eigenvalues --    3.27769   3.44849   3.47957   3.48125   3.51544
 Alpha virt. eigenvalues --    3.63005   3.72749   3.76931   3.83608   3.86344
 Alpha virt. eigenvalues --    3.88909   3.99997   4.01582   4.10724   4.16249
 Alpha virt. eigenvalues --    4.18791   4.25317   4.30940   4.31202   4.48483
 Alpha virt. eigenvalues --    4.59059   4.63948   4.67880   4.98292   5.06196
 Alpha virt. eigenvalues --    5.32424   5.56109   5.58390   5.61555   6.04658
 Alpha virt. eigenvalues --    6.06638   6.19252   6.23931   6.38559   6.60847
 Alpha virt. eigenvalues --    7.27411  32.56529
          Condensed to atoms (all electrons):
               1          2          3          4
     1  C    4.395739   0.591375   0.302550   0.408788
     2  O    0.591375   7.814758  -0.085967  -0.053458
     3  Cl   0.302550  -0.085967  16.985647  -0.087716
     4  H    0.408788  -0.053458  -0.087716   0.652715
 Mulliken charges:
               1
     1  C    0.301549
     2  O   -0.266707
     3  Cl  -0.114513
     4  H    0.079672
 Sum of Mulliken charges =   0.00000
 Mulliken charges with hydrogens summed into heavy atoms:
               1
     1  C    0.381221
     2  O   -0.266707
     3  Cl  -0.114513
 Electronic spatial extent (au):  <R**2>=            220.2101
 Charge=             -0.0000 electrons
 Dipole moment (field-independent basis, Debye):
    X=             -1.7404    Y=              0.8375    Z=              0.0000  Tot=              1.9314
 Quadrupole moment (field-independent basis, Debye-Ang):
   XX=            -25.7223   YY=            -23.4995   ZZ=            -23.4862
   XY=             -2.9076   XZ=              0.0000   YZ=              0.0000
 Traceless Quadrupole moment (field-independent basis, Debye-Ang):
   XX=             -1.4863   YY=              0.7365   ZZ=              0.7498
   XY=             -2.9076   XZ=              0.0000   YZ=              0.0000
 Octapole moment (field-independent basis, Debye-Ang**2):
  XXX=             -0.6135  YYY=             -1.2055  ZZZ=              0.0000  XYY=             -4.2571
  XXY=             -0.7808  XXZ=              0.0000  XZZ=              0.9900  YZZ=              1.1065
  YYZ=              0.0000  XYZ=              0.0000
 Hexadecapole moment (field-independent basis, Debye-Ang**3):
 XXXX=            -89.6482 YYYY=           -159.6441 ZZZZ=            -24.4054 XXXY=            -39.4932
 XXXZ=              0.0000 YYYX=            -39.2872 YYYZ=              0.0000 ZZZX=              0.0000
 ZZZY=              0.0000 XXYY=            -42.7822 XXZZ=            -18.4783 YYZZ=            -31.1974
 XXYZ=              0.0000 YYXZ=              0.0000 ZZXY=            -11.7302
 N-N= 8.741118488409D+01 E-N=-1.537458345589D+03  KE= 5.734388541342D+02
 Symmetry A'   KE= 5.236624023535D+02
 Symmetry A"   KE= 4.977645178076D+01
 Calling FoFJK, ICntrl=      2127 FMM=F ISym2X=1 I1Cent= 0 IOpClX= 0 NMat=1 NMatS=1 NMatT=0.
 ***** Axes restored to original set *****
 -------------------------------------------------------------------
 Center     Atomic                   Forces (Hartrees/Bohr)
 Number     Number              X              Y              Z
 -------------------------------------------------------------------
      1        6          -0.001450166   -0.003882329   -0.000000000
      2        8          -0.001011090   -0.000346001   -0.000000000
      3       17           0.001336147    0.005099122   -0.000000000
      4        1           0.001125109   -0.000870791   -0.000000000
 -------------------------------------------------------------------
 Cartesian Forces:  Max     0.005099122 RMS     0.002002664

 GradGradGradGradGradGradGradGradGradGradGradGradGradGradGradGradGradGrad
 Berny optimization.
 FormGI is forming the generalized inverse of G from B-inverse, IUseBI=4.
 Internal  Forces:  Max     0.005271098 RMS     0.002103086
 Search for a local minimum.
 Step number   1 out of a maximum of   20
 All quantities printed in internal units (Hartrees-Bohrs-Radians)
 Mixed Optimization -- RFO/linear search
 Second derivative matrix not updated -- first step.
 The second derivative matrix:
                          R1        R2        R3        A1        A2
           R1           1.17844
           R2           0.00000   0.25613
           R3           0.00000   0.00000   0.34096
           A1           0.00000   0.00000   0.00000   0.25000
           A2           0.00000   0.00000   0.00000   0.00000   0.16000
           A3           0.00000   0.00000   0.00000   0.00000   0.00000
           D1           0.00000   0.00000   0.00000   0.00000   0.00000
                          A3        D1
           A3           0.16000
           D1           0.00000   0.00230
 ITU=  0
     Eigenvalues ---    0.00230   0.16000   0.22000   0.25613   0.34096
     Eigenvalues ---    1.17844
 RFO step:  Lambda=-1.15415682D-04 EMin= 2.30000000D-03
 Linear search not attempted -- first point.
 Iteration  1 RMS(Cart)=  0.00718769 RMS(Int)=  0.00000087
 Iteration  2 RMS(Cart)=  0.00000105 RMS(Int)=  0.00000000
 Iteration  3 RMS(Cart)=  0.00000000 RMS(Int)=  0.00000000
 ClnCor:  largest displacement from symmetrization is 6.88D-10 for atom     1.
 Variable       Old X    -DE/DX   Delta X   Delta X   Delta X     New X
                                 (Linear)    (Quad)   (Total)
    R1        2.22240  -0.00107   0.00000  -0.00091  -0.00091   2.22149
    R2        3.41375  -0.00527   0.00000  -0.02057  -0.02057   3.39318
    R3        2.07168  -0.00142   0.00000  -0.00416  -0.00416   2.06752
    A1        2.15603   0.00004   0.00000   0.00019   0.00019   2.15622
    A2        2.21968   0.00006   0.00000   0.00043   0.00043   2.22012
    A3        1.90747  -0.00011   0.00000  -0.00062  -0.00062   1.90685
    D1        3.14159  -0.00000   0.00000  -0.00000   0.00000   3.14159
         Item               Value     Threshold  Converged?
 Maximum Force            0.005271     0.000450     NO 
 RMS     Force            0.002103     0.000300     NO 
 Maximum Displacement     0.015836     0.001800     NO 
 RMS     Displacement     0.007187     0.001200     NO 
 Predicted change in Energy=-5.773336D-05
 GradGradGradGradGradGradGradGradGradGradGradGradGradGradGradGradGradGrad

                          Input orientation:                          
 ---------------------------------------------------------------------
 Center     Atomic      Atomic             Coordinates (Angstroms)
 Number     Number       Type             X           Y           Z
 ---------------------------------------------------------------------
      1          6           0       -0.000909    0.812050    0.000000
      2          8           0        1.114637    1.182871    0.000000
      3         17           0       -0.470329   -0.921099    0.000000
      4          1           0       -0.903551    1.430317    0.000000
 ---------------------------------------------------------------------
                    Distance matrix (angstroms):
                    1          2          3          4
     1  C    0.000000
     2  O    1.175564   0.000000
     3  Cl   1.795595   2.634161   0.000000
     4  H    1.094083   2.033302   2.390991   0.000000
 Stoichiometry    CHClO
 Framework group  CS[SG(CHClO)]
 Deg. of freedom     5
 Full point group                 CS      NOp   2
 Largest Abelian subgroup         CS      NOp   2
 Largest concise Abelian subgroup C1      NOp   1
                         Standard orientation:                         
 ---------------------------------------------------------------------
 Center     Atomic      Atomic             Coordinates (Angstroms)
 Number     Number       Type             X           Y           Z
 ---------------------------------------------------------------------
      1          6           0        0.000000    0.808711    0.000000
      2          8           0        1.116141    1.177738    0.000000
      3         17           0       -0.472205   -0.923682    0.000000
      4          1           0       -0.901647    1.428428    0.000000
 ---------------------------------------------------------------------
 Rotational constants (GHZ):          78.5270760           6.0203237           5.5916375
 Basis read from rwf:  (5D, 7F)
 There are    86 symmetry adapted cartesian basis functions of A'  symmetry.
 There are    38 symmetry adapted cartesian basis functions of A"  symmetry.
 There are    73 symmetry adapted basis functions of A'  symmetry.
 There are    35 symmetry adapted basis functions of A"  symmetry.
   108 basis functions,   190 primitive gaussians,   124 cartesian basis functions
    16 alpha electrons       16 beta electrons
       nuclear repulsion energy        87.7349474556 Hartrees.
 NAtoms=    4 NActive=    4 NUniq=    4 SFac= 1.00D+00 NAtFMM=   60 NAOKFM=F Big=F
 Integral buffers will be    131072 words long.
 Raffenetti 2 integral format.
 Two-electron integral symmetry is turned on.
 One-electron integrals computed using PRISM.
 NBasis=   108 RedAO= T EigKep=  2.02D-03  NBF=    73    35
 NBsUse=   108 1.00D-06 EigRej= -1.00D+00 NBFU=    73    35
 Initial guess from the checkpoint file:  "/wrk/irikura/Gau-3069.chk"
 B after Tr=    -0.000000   -0.000000    0.000000
         Rot=    0.999999    0.000000    0.000000    0.001250 Ang=   0.14 deg.
 Initial guess orbital symmetries:
       Occupied  (A') (A') (A') (A') (A') (A") (A') (A') (A') (A')
                 (A') (A') (A") (A") (A') (A')
       Virtual   (A") (A') (A') (A') (A') (A") (A') (A') (A') (A')
                 (A') (A") (A") (A') (A') (A") (A') (A") (A') (A')
                 (A') (A") (A') (A') (A') (A") (A') (A") (A') (A")
                 (A') (A') (A') (A") (A') (A') (A") (A') (A') (A")
                 (A') (A") (A') (A") (A') (A') (A") (A') (A') (A")
                 (A') (A') (A') (A") (A") (A') (A') (A") (A') (A")
                 (A') (A') (A") (A') (A") (A') (A') (A") (A") (A')
                 (A') (A") (A') (A") (A') (A') (A') (A") (A') (A')
                 (A") (A') (A") (A') (A") (A') (A') (A') (A") (A')
                 (A') (A')
 Keep R1 ints in memory in symmetry-blocked form, NReq=28755265.
 Requested convergence on RMS density matrix=1.00D-08 within 128 cycles.
 Requested convergence on MAX density matrix=1.00D-06.
 Requested convergence on             energy=1.00D-06.
 No special actions if energy rises.
 SCF Done:  E(RB3LYP) =  -574.210989042     A.U. after    8 cycles
            NFock=  8  Conv=0.97D-08     -V/T= 2.0013
 Calling FoFJK, ICntrl=      2127 FMM=F ISym2X=1 I1Cent= 0 IOpClX= 0 NMat=1 NMatS=1 NMatT=0.
 ***** Axes restored to original set *****
 -------------------------------------------------------------------
 Center     Atomic                   Forces (Hartrees/Bohr)
 Number     Number              X              Y              Z
 -------------------------------------------------------------------
      1        6          -0.001938602   -0.003137962   -0.000000000
      2        8           0.001294993    0.000853943   -0.000000000
      3       17           0.000504019    0.001856592   -0.000000000
      4        1           0.000139589    0.000427427   -0.000000000
 -------------------------------------------------------------------
 Cartesian Forces:  Max     0.003137962 RMS     0.001288227

 GradGradGradGradGradGradGradGradGradGradGradGradGradGradGradGradGradGrad
 Berny optimization.
 Using GEDIIS/GDIIS optimizer.
 FormGI is forming the generalized inverse of G from B-inverse, IUseBI=4.
 Internal  Forces:  Max     0.001923785 RMS     0.000963081
 Search for a local minimum.
 Step number   2 out of a maximum of   20
 All quantities printed in internal units (Hartrees-Bohrs-Radians)
 Mixed Optimization -- En-DIIS/RFO-DIIS
 Update second derivatives using D2CorX and points    1    2
 DE= -7.67D-05 DEPred=-5.77D-05 R= 1.33D+00
 TightC=F SS=  1.41D+00  RLast= 2.10D-02 DXNew= 5.0454D-01 6.3067D-02
 Trust test= 1.33D+00 RLast= 2.10D-02 DXMaxT set to 3.00D-01
 The second derivative matrix:
                          R1        R2        R3        A1        A2
           R1           1.25289
           R2           0.06120   0.15894
           R3           0.03768   0.00143   0.35411
           A1           0.00882   0.01309   0.00563   0.25081
           A2          -0.02100  -0.02506  -0.01219  -0.00218   0.16551
           A3           0.01234   0.01275   0.00677   0.00136  -0.00334
           D1           0.00000   0.00000   0.00000   0.00000  -0.00000
                          A3        D1
           A3           0.16200
           D1           0.00000   0.00230
 ITU=  1  0
 Use linear search instead of GDIIS.
     Eigenvalues ---    0.00230   0.13353   0.18322   0.22522   0.35369
     Eigenvalues ---    1.25862
 RFO step:  Lambda=-1.57954496D-05 EMin= 2.30000000D-03
 Quartic linear search produced a step of  0.46040.
 Iteration  1 RMS(Cart)=  0.00377501 RMS(Int)=  0.00000390
 Iteration  2 RMS(Cart)=  0.00000404 RMS(Int)=  0.00000000
 Iteration  3 RMS(Cart)=  0.00000000 RMS(Int)=  0.00000000
 ClnCor:  largest displacement from symmetrization is 1.35D-09 for atom     1.
 Variable       Old X    -DE/DX   Delta X   Delta X   Delta X     New X
                                 (Linear)    (Quad)   (Total)
    R1        2.22149   0.00150  -0.00042   0.00215   0.00173   2.22323
    R2        3.39318  -0.00192  -0.00947  -0.00410  -0.01357   3.37961
    R3        2.06752   0.00013  -0.00192   0.00192   0.00000   2.06752
    A1        2.15622   0.00030   0.00009   0.00191   0.00199   2.15821
    A2        2.22012  -0.00059   0.00020  -0.00521  -0.00501   2.21511
    A3        1.90685   0.00030  -0.00029   0.00330   0.00302   1.90987
    D1        3.14159  -0.00000   0.00000   0.00000   0.00000   3.14159
         Item               Value     Threshold  Converged?
 Maximum Force            0.001924     0.000450     NO 
 RMS     Force            0.000963     0.000300     NO 
 Maximum Displacement     0.007246     0.001800     NO 
 RMS     Displacement     0.003776     0.001200     NO 
 Predicted change in Energy=-1.700654D-05
 GradGradGradGradGradGradGradGradGradGradGradGradGradGradGradGradGradGrad

                          Input orientation:                          
 ---------------------------------------------------------------------
 Center     Atomic      Atomic             Coordinates (Angstroms)
 Number     Number       Type             X           Y           Z
 ---------------------------------------------------------------------
      1          6           0       -0.001904    0.809018    0.000000
      2          8           0        1.113719    1.182509    0.000000
      3         17           0       -0.469202   -0.917264    0.000000
      4          1           0       -0.902765    1.429877    0.000000
 ---------------------------------------------------------------------
                    Distance matrix (angstroms):
                    1          2          3          4
     1  C    0.000000
     2  O    1.176482   0.000000
     3  Cl   1.788412   2.629579   0.000000
     4  H    1.094083   2.031600   2.386850   0.000000
 Stoichiometry    CHClO
 Framework group  CS[SG(CHClO)]
 Deg. of freedom     5
 Full point group                 CS      NOp   2
 Largest Abelian subgroup         CS      NOp   2
 Largest concise Abelian subgroup C1      NOp   1
                         Standard orientation:                         
 ---------------------------------------------------------------------
 Center     Atomic      Atomic             Coordinates (Angstroms)
 Number     Number       Type             X           Y           Z
 ---------------------------------------------------------------------
      1          6           0        0.000000    0.804317    0.000000
      2          8           0        1.116779    1.174336    0.000000
      3         17           0       -0.472665   -0.920504    0.000000
      4          1           0       -0.898926    1.427975    0.000000
 ---------------------------------------------------------------------
 Rotational constants (GHZ):          78.7960382           6.0465407           5.6156172
 Basis read from rwf:  (5D, 7F)
 There are    86 symmetry adapted cartesian basis functions of A'  symmetry.
 There are    38 symmetry adapted cartesian basis functions of A"  symmetry.
 There are    73 symmetry adapted basis functions of A'  symmetry.
 There are    35 symmetry adapted basis functions of A"  symmetry.
   108 basis functions,   190 primitive gaussians,   124 cartesian basis functions
    16 alpha electrons       16 beta electrons
       nuclear repulsion energy        87.8947211307 Hartrees.
 NAtoms=    4 NActive=    4 NUniq=    4 SFac= 1.00D+00 NAtFMM=   60 NAOKFM=F Big=F
 Integral buffers will be    131072 words long.
 Raffenetti 2 integral format.
 Two-electron integral symmetry is turned on.
 One-electron integrals computed using PRISM.
 NBasis=   108 RedAO= T EigKep=  2.02D-03  NBF=    73    35
 NBsUse=   108 1.00D-06 EigRej= -1.00D+00 NBFU=    73    35
 Initial guess from the checkpoint file:  "/wrk/irikura/Gau-3069.chk"
 B after Tr=    -0.000000    0.000000    0.000000
         Rot=    1.000000    0.000000    0.000000    0.000788 Ang=   0.09 deg.
 Initial guess orbital symmetries:
       Occupied  (A') (A') (A') (A') (A') (A") (A') (A') (A') (A')
                 (A') (A') (A") (A") (A') (A')
       Virtual   (A") (A') (A') (A') (A') (A") (A') (A') (A') (A')
                 (A') (A") (A") (A') (A') (A") (A') (A") (A') (A')
                 (A') (A") (A') (A') (A') (A") (A') (A") (A') (A")
                 (A') (A') (A') (A") (A') (A') (A") (A') (A') (A")
                 (A') (A") (A') (A") (A') (A') (A") (A') (A') (A")
                 (A') (A') (A') (A") (A") (A') (A') (A") (A') (A")
                 (A') (A') (A") (A') (A") (A') (A') (A") (A") (A')
                 (A') (A") (A') (A") (A') (A') (A') (A") (A') (A')
                 (A") (A') (A") (A') (A") (A') (A') (A') (A") (A')
                 (A') (A')
 Keep R1 ints in memory in symmetry-blocked form, NReq=28755265.
 Requested convergence on RMS density matrix=1.00D-08 within 128 cycles.
 Requested convergence on MAX density matrix=1.00D-06.
 Requested convergence on             energy=1.00D-06.
 No special actions if energy rises.
 SCF Done:  E(RB3LYP) =  -574.211008465     A.U. after    9 cycles
            NFock=  9  Conv=0.20D-08     -V/T= 2.0013
 Calling FoFJK, ICntrl=      2127 FMM=F ISym2X=1 I1Cent= 0 IOpClX= 0 NMat=1 NMatS=1 NMatT=0.
 ***** Axes restored to original set *****
 -------------------------------------------------------------------
 Center     Atomic                   Forces (Hartrees/Bohr)
 Number     Number              X              Y              Z
 -------------------------------------------------------------------
      1        6          -0.001043333   -0.000936690   -0.000000000
      2        8           0.000996515    0.000499960   -0.000000000
      3       17           0.000090763    0.000060819   -0.000000000
      4        1          -0.000043945    0.000375910   -0.000000000
 -------------------------------------------------------------------
 Cartesian Forces:  Max     0.001043333 RMS     0.000529474

 GradGradGradGradGradGradGradGradGradGradGradGradGradGradGradGradGradGrad
 Berny optimization.
 Using GEDIIS/GDIIS optimizer.
 FormGI is forming the generalized inverse of G from B-inverse, IUseBI=4.
 Internal  Forces:  Max     0.001103753 RMS     0.000457162
 Search for a local minimum.
 Step number   3 out of a maximum of   20
 All quantities printed in internal units (Hartrees-Bohrs-Radians)
 Mixed Optimization -- En-DIIS/RFO-DIIS
 Swapping is turned off.
 Update second derivatives using D2CorX and points    1    2    3
 DE= -1.94D-05 DEPred=-1.70D-05 R= 1.14D+00
 TightC=F SS=  1.41D+00  RLast= 1.50D-02 DXNew= 5.0454D-01 4.5042D-02
 Trust test= 1.14D+00 RLast= 1.50D-02 DXMaxT set to 3.00D-01
 The second derivative matrix:
                          R1        R2        R3        A1        A2
           R1           1.23490
           R2           0.13470   0.17824
           R3           0.04499   0.02210   0.35912
           A1           0.00077   0.01737   0.00437   0.24976
           A2          -0.01147  -0.04068  -0.01236   0.00001   0.16216
           A3           0.00777   0.03523   0.00924  -0.00101  -0.00066
           D1           0.00000   0.00000   0.00000   0.00000  -0.00000
                          A3        D1
           A3           0.16087
           D1           0.00000   0.00230
 ITU=  1  1  0
     Eigenvalues ---    0.00230   0.10881   0.20404   0.22758   0.36007
     Eigenvalues ---    1.25473
 En-DIIS/RFO-DIIS/Sim-DIIS IScMMF=       -3 using points:     3    2
 RFO step:  Lambda=-2.89460858D-06.
 DidBck=F Rises=F RFO-DIIS coefs:    1.23496   -0.23496
 Iteration  1 RMS(Cart)=  0.00104887 RMS(Int)=  0.00000125
 Iteration  2 RMS(Cart)=  0.00000124 RMS(Int)=  0.00000000
 Iteration  3 RMS(Cart)=  0.00000000 RMS(Int)=  0.00000000
 ClnCor:  largest displacement from symmetrization is 2.09D-15 for atom     4.
 Variable       Old X    -DE/DX   Delta X   Delta X   Delta X     New X
                                 (Linear)    (Quad)   (Total)
    R1        2.22323   0.00110   0.00041   0.00069   0.00109   2.22432
    R2        3.37961  -0.00008  -0.00319   0.00083  -0.00236   3.37725
    R3        2.06752   0.00025   0.00000   0.00056   0.00056   2.06808
    A1        2.15821   0.00004   0.00047  -0.00018   0.00029   2.15850
    A2        2.21511  -0.00031  -0.00118  -0.00124  -0.00241   2.21269
    A3        1.90987   0.00028   0.00071   0.00141   0.00212   1.91199
    D1        3.14159   0.00000   0.00000  -0.00000   0.00000   3.14159
         Item               Value     Threshold  Converged?
 Maximum Force            0.001104     0.000450     NO 
 RMS     Force            0.000457     0.000300     NO 
 Maximum Displacement     0.001745     0.001800     YES
 RMS     Displacement     0.001049     0.001200     YES
 Predicted change in Energy=-1.447324D-06
 GradGradGradGradGradGradGradGradGradGradGradGradGradGradGradGradGradGrad

                          Input orientation:                          
 ---------------------------------------------------------------------
 Center     Atomic      Atomic             Coordinates (Angstroms)
 Number     Number       Type             X           Y           Z
 ---------------------------------------------------------------------
      1          6           0       -0.002436    0.808094    0.000000
      2          8           0        1.113478    1.182538    0.000000
      3         17           0       -0.468724   -0.917169    0.000000
      4          1           0       -0.902470    1.430676    0.000000
 ---------------------------------------------------------------------
                    Distance matrix (angstroms):
                    1          2          3          4
     1  C    0.000000
     2  O    1.177061   0.000000
     3  Cl   1.787164   2.629093   0.000000
     4  H    1.094380   2.031162   2.387574   0.000000
 Stoichiometry    CHClO
 Framework group  CS[SG(CHClO)]
 Deg. of freedom     5
 Full point group                 CS      NOp   2
 Largest Abelian subgroup         CS      NOp   2
 Largest concise Abelian subgroup C1      NOp   1
                         Standard orientation:                         
 ---------------------------------------------------------------------
 Center     Atomic      Atomic             Coordinates (Angstroms)
 Number     Number       Type             X           Y           Z
 ---------------------------------------------------------------------
      1          6           0        0.000000    0.803485    0.000000
      2          8           0        1.117368    1.173569    0.000000
      3         17           0       -0.473020   -0.919944    0.000000
      4          1           0       -0.897596    1.429576    0.000000
 ---------------------------------------------------------------------
 Rotational constants (GHZ):          78.7987991           6.0498484           5.6184843
 Basis read from rwf:  (5D, 7F)
 There are    86 symmetry adapted cartesian basis functions of A'  symmetry.
 There are    38 symmetry adapted cartesian basis functions of A"  symmetry.
 There are    73 symmetry adapted basis functions of A'  symmetry.
 There are    35 symmetry adapted basis functions of A"  symmetry.
   108 basis functions,   190 primitive gaussians,   124 cartesian basis functions
    16 alpha electrons       16 beta electrons
       nuclear repulsion energy        87.9087402864 Hartrees.
 NAtoms=    4 NActive=    4 NUniq=    4 SFac= 1.00D+00 NAtFMM=   60 NAOKFM=F Big=F
 Integral buffers will be    131072 words long.
 Raffenetti 2 integral format.
 Two-electron integral symmetry is turned on.
 One-electron integrals computed using PRISM.
 NBasis=   108 RedAO= T EigKep=  2.03D-03  NBF=    73    35
 NBsUse=   108 1.00D-06 EigRej= -1.00D+00 NBFU=    73    35
 Initial guess from the checkpoint file:  "/wrk/irikura/Gau-3069.chk"
 B after Tr=     0.000000   -0.000000   -0.000000
         Rot=    1.000000   -0.000000   -0.000000    0.000281 Ang=   0.03 deg.
 Initial guess orbital symmetries:
       Occupied  (A') (A') (A') (A') (A') (A") (A') (A') (A') (A')
                 (A') (A') (A") (A") (A') (A')
       Virtual   (A") (A') (A') (A') (A') (A") (A') (A') (A') (A')
                 (A') (A") (A") (A') (A') (A") (A') (A") (A') (A')
                 (A') (A") (A') (A') (A') (A") (A') (A") (A') (A")
                 (A') (A') (A') (A") (A') (A') (A") (A') (A') (A")
                 (A') (A") (A') (A") (A') (A') (A") (A') (A') (A")
                 (A') (A') (A') (A") (A") (A') (A') (A") (A') (A")
                 (A') (A') (A") (A') (A") (A') (A') (A") (A") (A')
                 (A') (A") (A') (A") (A') (A') (A') (A") (A') (A')
                 (A") (A') (A") (A') (A") (A') (A') (A') (A") (A')
                 (A') (A')
 Keep R1 ints in memory in symmetry-blocked form, NReq=28755265.
 Requested convergence on RMS density matrix=1.00D-08 within 128 cycles.
 Requested convergence on MAX density matrix=1.00D-06.
 Requested convergence on             energy=1.00D-06.
 No special actions if energy rises.
 SCF Done:  E(RB3LYP) =  -574.211010195     A.U. after    8 cycles
            NFock=  8  Conv=0.24D-08     -V/T= 2.0013
 Calling FoFJK, ICntrl=      2127 FMM=F ISym2X=1 I1Cent= 0 IOpClX= 0 NMat=1 NMatS=1 NMatT=0.
 ***** Axes restored to original set *****
 -------------------------------------------------------------------
 Center     Atomic                   Forces (Hartrees/Bohr)
 Number     Number              X              Y              Z
 -------------------------------------------------------------------
      1        6          -0.000307934   -0.000148082   -0.000000000
      2        8           0.000322535    0.000140744   -0.000000000
      3       17           0.000003837   -0.000104442   -0.000000000
      4        1          -0.000018438    0.000111780   -0.000000000
 -------------------------------------------------------------------
 Cartesian Forces:  Max     0.000322535 RMS     0.000148421

 GradGradGradGradGradGradGradGradGradGradGradGradGradGradGradGradGradGrad
 Berny optimization.
 Using GEDIIS/GDIIS optimizer.
 FormGI is forming the generalized inverse of G from B-inverse, IUseBI=4.
 Internal  Forces:  Max     0.000350620 RMS     0.000148156
 Search for a local minimum.
 Step number   4 out of a maximum of   20
 All quantities printed in internal units (Hartrees-Bohrs-Radians)
 Mixed Optimization -- En-DIIS/RFO-DIIS
 Swapping is turned off.
 Update second derivatives using D2CorX and points    1    2    3    4
 DE= -1.73D-06 DEPred=-1.45D-06 R= 1.20D+00
 TightC=F SS=  1.41D+00  RLast= 4.18D-03 DXNew= 5.0454D-01 1.2542D-02
 Trust test= 1.20D+00 RLast= 4.18D-03 DXMaxT set to 3.00D-01
 The second derivative matrix:
                          R1        R2        R3        A1        A2
           R1           1.06073
           R2           0.10833   0.19025
           R3           0.00379   0.01385   0.34867
           A1           0.00041   0.01124   0.00374   0.25035
           A2           0.03268  -0.03169  -0.00223  -0.00072   0.15141
           A3          -0.03578   0.02836  -0.00137  -0.00133   0.01053
           D1           0.00000   0.00000   0.00000  -0.00000  -0.00000
                          A3        D1
           A3           0.15019
           D1           0.00000   0.00230
 ITU=  1  1  1  0
     Eigenvalues ---    0.00230   0.10545   0.20462   0.22588   0.34998
     Eigenvalues ---    1.07603
 En-DIIS/RFO-DIIS/Sim-DIIS IScMMF=       -3 using points:     4    3    2
 RFO step:  Lambda=-2.68951824D-07.
 DidBck=F Rises=F RFO-DIIS coefs:    1.48080   -0.58184    0.10104
 Iteration  1 RMS(Cart)=  0.00043211 RMS(Int)=  0.00000012
 Iteration  2 RMS(Cart)=  0.00000011 RMS(Int)=  0.00000000
 ClnCor:  largest displacement from symmetrization is 9.13D-16 for atom     1.
 Variable       Old X    -DE/DX   Delta X   Delta X   Delta X     New X
                                 (Linear)    (Quad)   (Total)
    R1        2.22432   0.00035   0.00035   0.00003   0.00038   2.22470
    R2        3.37725   0.00010   0.00024  -0.00000   0.00024   3.37749
    R3        2.06808   0.00008   0.00027  -0.00005   0.00022   2.06830
    A1        2.15850  -0.00001  -0.00006  -0.00004  -0.00010   2.15841
    A2        2.21269  -0.00008  -0.00065   0.00002  -0.00064   2.21206
    A3        1.91199   0.00009   0.00071   0.00002   0.00073   1.91272
    D1        3.14159   0.00000   0.00000   0.00000   0.00000   3.14159
         Item               Value     Threshold  Converged?
 Maximum Force            0.000351     0.000450     YES
 RMS     Force            0.000148     0.000300     YES
 Maximum Displacement     0.000807     0.001800     YES
 RMS     Displacement     0.000432     0.001200     YES
 Predicted change in Energy=-1.319255D-07
 Optimization completed.
    -- Stationary point found.
                           ----------------------------
                           !   Optimized Parameters   !
                           ! (Angstroms and Degrees)  !
 --------------------------                            --------------------------
 ! Name  Definition              Value          Derivative Info.                !
 --------------------------------------------------------------------------------
 ! R1    R(1,2)                  1.1771         -DE/DX =    0.0004              !
 ! R2    R(1,3)                  1.7872         -DE/DX =    0.0001              !
 ! R3    R(1,4)                  1.0944         -DE/DX =    0.0001              !
 ! A1    A(2,1,3)              123.6731         -DE/DX =    0.0                 !
 ! A2    A(2,1,4)              126.7781         -DE/DX =   -0.0001              !
 ! A3    A(3,1,4)              109.5488         -DE/DX =    0.0001              !
 ! D1    D(2,1,4,3)            180.0            -DE/DX =    0.0                 !
 --------------------------------------------------------------------------------
 GradGradGradGradGradGradGradGradGradGradGradGradGradGradGradGradGradGrad

                          Input orientation:                          
 ---------------------------------------------------------------------
 Center     Atomic      Atomic             Coordinates (Angstroms)
 Number     Number       Type             X           Y           Z
 ---------------------------------------------------------------------
      1          6           0       -0.002436    0.808094    0.000000
      2          8           0        1.113478    1.182538    0.000000
      3         17           0       -0.468724   -0.917169    0.000000
      4          1           0       -0.902470    1.430676    0.000000
 ---------------------------------------------------------------------
                    Distance matrix (angstroms):
                    1          2          3          4
     1  C    0.000000
     2  O    1.177061   0.000000
     3  Cl   1.787164   2.629093   0.000000
     4  H    1.094380   2.031162   2.387574   0.000000
 Stoichiometry    CHClO
 Framework group  CS[SG(CHClO)]
 Deg. of freedom     5
 Full point group                 CS      NOp   2
 Largest Abelian subgroup         CS      NOp   2
 Largest concise Abelian subgroup C1      NOp   1
                         Standard orientation:                         
 ---------------------------------------------------------------------
 Center     Atomic      Atomic             Coordinates (Angstroms)
 Number     Number       Type             X           Y           Z
 ---------------------------------------------------------------------
      1          6           0        0.000000    0.803485    0.000000
      2          8           0        1.117368    1.173569    0.000000
      3         17           0       -0.473020   -0.919944    0.000000
      4          1           0       -0.897596    1.429576    0.000000
 ---------------------------------------------------------------------
 Rotational constants (GHZ):          78.7987991           6.0498484           5.6184843

 **********************************************************************

            Population analysis using the SCF Density.

 **********************************************************************

 Orbital symmetries:
       Occupied  (A') (A') (A') (A') (A') (A") (A') (A') (A') (A')
                 (A') (A') (A") (A") (A') (A')
       Virtual   (A") (A') (A') (A') (A') (A") (A') (A') (A') (A')
                 (A') (A") (A") (A') (A') (A") (A') (A") (A') (A')
                 (A') (A") (A') (A') (A') (A") (A') (A") (A') (A")
                 (A') (A') (A') (A") (A') (A') (A") (A') (A') (A")
                 (A') (A") (A') (A") (A') (A') (A") (A') (A') (A")
                 (A') (A') (A') (A") (A") (A') (A') (A") (A') (A")
                 (A') (A') (A") (A') (A") (A') (A') (A") (A") (A')
                 (A') (A") (A') (A") (A') (A') (A') (A") (A') (A')
                 (A") (A') (A") (A') (A") (A') (A') (A') (A") (A')
                 (A') (A')
 The electronic state is 1-A'.
 Alpha  occ. eigenvalues -- -101.53386 -19.17974 -10.34055  -9.47950  -7.24007
 Alpha  occ. eigenvalues --   -7.23341  -7.23192  -1.12005  -0.86960  -0.64136
 Alpha  occ. eigenvalues --   -0.52356  -0.49353  -0.46329  -0.34755  -0.34288
 Alpha  occ. eigenvalues --   -0.32487
 Alpha virt. eigenvalues --   -0.07026  -0.00810   0.04427   0.09808   0.12045
 Alpha virt. eigenvalues --    0.15297   0.24654   0.28741   0.29719   0.31978
 Alpha virt. eigenvalues --    0.32550   0.32779   0.40419   0.44393   0.45812
 Alpha virt. eigenvalues --    0.49526   0.54104   0.54701   0.66875   0.69014
 Alpha virt. eigenvalues --    0.72637   0.76829   0.85711   0.96741   0.98029
 Alpha virt. eigenvalues --    1.05461   1.15081   1.16747   1.17854   1.22537
 Alpha virt. eigenvalues --    1.33901   1.50242   1.58968   1.61336   1.74599
 Alpha virt. eigenvalues --    1.86271   1.89818   1.96692   2.06472   2.09720
 Alpha virt. eigenvalues --    2.10733   2.11713   2.12090   2.16388   2.17690
 Alpha virt. eigenvalues --    2.22291   2.25630   2.38146   2.42658   2.43835
 Alpha virt. eigenvalues --    2.56115   2.77578   2.94642   3.18416   3.25680
 Alpha virt. eigenvalues --    3.28498   3.45593   3.47899   3.48463   3.51849
 Alpha virt. eigenvalues --    3.63261   3.73451   3.77984   3.84603   3.86975
 Alpha virt. eigenvalues --    3.89214   4.01453   4.02203   4.11430   4.17009
 Alpha virt. eigenvalues --    4.19322   4.25085   4.31627   4.31845   4.49805
 Alpha virt. eigenvalues --    4.59640   4.64385   4.68859   4.99406   5.05832
 Alpha virt. eigenvalues --    5.32215   5.56702   5.58815   5.62151   6.04965
 Alpha virt. eigenvalues --    6.07242   6.19565   6.23490   6.38859   6.61606
 Alpha virt. eigenvalues --    7.26702  32.64758
          Condensed to atoms (all electrons):
               1          2          3          4
     1  C    4.389779   0.591087   0.306379   0.410508
     2  O    0.591087   7.823831  -0.088096  -0.054482
     3  Cl   0.306379  -0.088096  16.977133  -0.089710
     4  H    0.410508  -0.054482  -0.089710   0.657888
 Mulliken charges:
               1
     1  C    0.302248
     2  O   -0.272339
     3  Cl  -0.105705
     4  H    0.075796
 Sum of Mulliken charges =   0.00000
 Mulliken charges with hydrogens summed into heavy atoms:
               1
     1  C    0.378044
     2  O   -0.272339
     3  Cl  -0.105705
 Electronic spatial extent (au):  <R**2>=            218.0465
 Charge=             -0.0000 electrons
 Dipole moment (field-independent basis, Debye):
    X=             -1.7780    Y=              0.7313    Z=              0.0000  Tot=              1.9225
 Quadrupole moment (field-independent basis, Debye-Ang):
   XX=            -25.7570   YY=            -23.5117   ZZ=            -23.4487
   XY=             -2.8798   XZ=              0.0000   YZ=              0.0000
 Traceless Quadrupole moment (field-independent basis, Debye-Ang):
   XX=             -1.5179   YY=              0.7274   ZZ=              0.7904
   XY=             -2.8798   XZ=              0.0000   YZ=              0.0000
 Octapole moment (field-independent basis, Debye-Ang**2):
  XXX=             -0.7301  YYY=             -1.4440  ZZZ=              0.0000  XYY=             -4.2640
  XXY=             -0.9166  XXZ=              0.0000  XZZ=              0.9585  YZZ=              1.0360
  YYZ=              0.0000  XYZ=              0.0000
 Hexadecapole moment (field-independent basis, Debye-Ang**3):
 XXXX=            -89.8997 YYYY=           -156.9329 ZZZZ=            -24.3103 XXXY=            -39.1604
 XXXZ=              0.0000 YYYX=            -38.8975 YYYZ=              0.0000 ZZZX=              0.0000
 ZZZY=              0.0000 XXYY=            -42.3864 XXZZ=            -18.4835 YYZZ=            -30.7128
 XXYZ=              0.0000 YYXZ=              0.0000 ZZXY=            -11.6296
 N-N= 8.790874028643D+01 E-N=-1.538460714351D+03  KE= 5.734646635337D+02
 Symmetry A'   KE= 5.236897276332D+02
 Symmetry A"   KE= 4.977493590042D+01
 1\1\GINC-GAMBA\FOpt\RB3LYP\Gen\C1H1Cl1O1\IRIKURA\16-Jun-2022\0\\# b3ly
 p/gen opt freq\\formyl chloride, B3LYP/pcseg-2\\0,1\C,-0.0024361113,0.
 808094241,0.\O,1.1134780758,1.1825377448,0.\Cl,-0.4687242512,-0.917168
 5628,0.\H,-0.9024697134,1.430675577,0.\\Version=ES64L-G16RevB.01\State
 =1-A'\HF=-574.2110102\RMSD=2.415e-09\RMSF=1.484e-04\Dipole=-0.7006398,
 0.2849994,0.\Quadrupole=-1.111762,0.5240835,0.5876784,-2.1475348,0.,0.
 \PG=CS [SG(C1H1Cl1O1)]\\@


 THE POLHOLDE ROLLS WITHOUT SLIPPING ON THE HERPOLHOLDE LYING IN
 THE INVARIABLE PLANE.
 H.GOLDSTEIN, "CLASSICAL MECHANICS", PG 161
 Job cpu time:       0 days  0 hours  2 minutes 30.9 seconds.
 Elapsed time:       0 days  0 hours  0 minutes 13.0 seconds.
 File lengths (MBytes):  RWF=     10 Int=      0 D2E=      0 Chk=      2 Scr=      1
 Normal termination of Gaussian 16 at Thu Jun 16 16:21:00 2022.
 Link1:  Proceeding to internal job step number  2.
 ------------------------------------------------------------------
 #N Geom=AllCheck Guess=TCheck SCRF=Check GenChk RB3LYP/ChkBas Freq
 ------------------------------------------------------------------
 1/10=4,29=7,30=1,38=1,40=1/1,3;
 2/12=2,40=1/2;
 3/5=7,6=2,11=2,14=-4,25=1,30=1,67=1,70=2,71=2,74=-5,82=7,116=1,140=1/1,2,3;
 4/5=101/1;
 5/5=2,38=6,98=1/2;
 8/6=4,10=90,11=11/1;
 11/6=1,8=1,9=11,15=111,16=1/1,2,10;
 10/6=1/2;
 6/7=2,8=2,9=2,10=2,28=1/1;
 7/8=1,10=1,25=1/1,2,3,16;
 1/10=4,30=1/3;
 99//99;
 Structure from the checkpoint file:  "/wrk/irikura/Gau-3069.chk"
 ------------------------------
 formyl chloride, B3LYP/pcseg-2
 ------------------------------
 Charge =  0 Multiplicity = 1
 Redundant internal coordinates found in file.  (old form).
 C,0,-0.0024361113,0.808094241,0.
 O,0,1.1134780758,1.1825377448,0.
 Cl,0,-0.4687242512,-0.9171685628,0.
 H,0,-0.9024697134,1.430675577,0.
 Recover connectivity data from disk.

 GradGradGradGradGradGradGradGradGradGradGradGradGradGradGradGradGradGrad
 Berny optimization.
 Initialization pass.
                           ----------------------------
                           !    Initial Parameters    !
                           ! (Angstroms and Degrees)  !
 --------------------------                            --------------------------
 ! Name  Definition              Value          Derivative Info.                !
 --------------------------------------------------------------------------------
 ! R1    R(1,2)                  1.1771         calculate D2E/DX2 analytically  !
 ! R2    R(1,3)                  1.7872         calculate D2E/DX2 analytically  !
 ! R3    R(1,4)                  1.0944         calculate D2E/DX2 analytically  !
 ! A1    A(2,1,3)              123.6731         calculate D2E/DX2 analytically  !
 ! A2    A(2,1,4)              126.7781         calculate D2E/DX2 analytically  !
 ! A3    A(3,1,4)              109.5488         calculate D2E/DX2 analytically  !
 ! D1    D(2,1,4,3)            180.0            calculate D2E/DX2 analytically  !
 --------------------------------------------------------------------------------
 Trust Radius=3.00D-01 FncErr=1.00D-07 GrdErr=1.00D-07 EigMax=2.50D+02 EigMin=1.00D-04
 Number of steps in this run=      2 maximum allowed number of steps=      2.
 GradGradGradGradGradGradGradGradGradGradGradGradGradGradGradGradGradGrad

                          Input orientation:                          
 ---------------------------------------------------------------------
 Center     Atomic      Atomic             Coordinates (Angstroms)
 Number     Number       Type             X           Y           Z
 ---------------------------------------------------------------------
      1          6           0       -0.002436    0.808094    0.000000
      2          8           0        1.113478    1.182538    0.000000
      3         17           0       -0.468724   -0.917169    0.000000
      4          1           0       -0.902470    1.430676    0.000000
 ---------------------------------------------------------------------
                    Distance matrix (angstroms):
                    1          2          3          4
     1  C    0.000000
     2  O    1.177061   0.000000
     3  Cl   1.787164   2.629093   0.000000
     4  H    1.094380   2.031162   2.387574   0.000000
 Stoichiometry    CHClO
 Framework group  CS[SG(CHClO)]
 Deg. of freedom     5
 Full point group                 CS      NOp   2
 Largest Abelian subgroup         CS      NOp   2
 Largest concise Abelian subgroup C1      NOp   1
                         Standard orientation:                         
 ---------------------------------------------------------------------
 Center     Atomic      Atomic             Coordinates (Angstroms)
 Number     Number       Type             X           Y           Z
 ---------------------------------------------------------------------
      1          6           0        0.000000    0.803485    0.000000
      2          8           0        1.117368    1.173569    0.000000
      3         17           0       -0.473020   -0.919944    0.000000
      4          1           0       -0.897596    1.429576    0.000000
 ---------------------------------------------------------------------
 Rotational constants (GHZ):          78.7987991           6.0498484           5.6184843
 Basis read from chk: "/wrk/irikura/Gau-3069.chk" (5D, 7F)
 There are    86 symmetry adapted cartesian basis functions of A'  symmetry.
 There are    38 symmetry adapted cartesian basis functions of A"  symmetry.
 There are    73 symmetry adapted basis functions of A'  symmetry.
 There are    35 symmetry adapted basis functions of A"  symmetry.
   108 basis functions,   190 primitive gaussians,   124 cartesian basis functions
    16 alpha electrons       16 beta electrons
       nuclear repulsion energy        87.9087402864 Hartrees.
 NAtoms=    4 NActive=    4 NUniq=    4 SFac= 1.00D+00 NAtFMM=   60 NAOKFM=F Big=F
 Integral buffers will be    131072 words long.
 Raffenetti 2 integral format.
 Two-electron integral symmetry is turned on.
 One-electron integrals computed using PRISM.
 NBasis=   108 RedAO= T EigKep=  2.03D-03  NBF=    73    35
 NBsUse=   108 1.00D-06 EigRej= -1.00D+00 NBFU=    73    35
 Initial guess from the checkpoint file:  "/wrk/irikura/Gau-3069.chk"
 B after Tr=    -0.000000    0.000000    0.000000
         Rot=    1.000000   -0.000000    0.000000    0.000000 Ang=   0.00 deg.
 Initial guess orbital symmetries:
       Occupied  (A') (A') (A') (A') (A') (A") (A') (A') (A') (A')
                 (A') (A') (A") (A") (A') (A')
       Virtual   (A") (A') (A') (A') (A') (A") (A') (A') (A') (A')
                 (A') (A") (A") (A') (A') (A") (A') (A") (A') (A')
                 (A') (A") (A') (A') (A') (A") (A') (A") (A') (A")
                 (A') (A') (A') (A") (A') (A') (A") (A') (A') (A")
                 (A') (A") (A') (A") (A') (A') (A") (A') (A') (A")
                 (A') (A') (A') (A") (A") (A') (A') (A") (A') (A")
                 (A') (A') (A") (A') (A") (A') (A') (A") (A") (A')
                 (A') (A") (A') (A") (A') (A') (A') (A") (A') (A')
                 (A") (A') (A") (A') (A") (A') (A') (A') (A") (A')
                 (A') (A')
 Keep R1 ints in memory in symmetry-blocked form, NReq=28755265.
 Requested convergence on RMS density matrix=1.00D-08 within 128 cycles.
 Requested convergence on MAX density matrix=1.00D-06.
 Requested convergence on             energy=1.00D-06.
 No special actions if energy rises.
 SCF Done:  E(RB3LYP) =  -574.211010195     A.U. after    1 cycles
            NFock=  1  Conv=0.11D-08     -V/T= 2.0013
 DoSCS=F DFT=T ScalE2(SS,OS)=  1.000000  1.000000
 Range of M.O.s used for correlation:     1   108
 NBasis=   108 NAE=    16 NBE=    16 NFC=     0 NFV=     0
 NROrb=    108 NOA=    16 NOB=    16 NVA=    92 NVB=    92
 Symmetrizing basis deriv contribution to polar:
 IMax=3 JMax=2 DiffMx= 0.00D+00
 G2DrvN: will do     5 centers at a time, making    1 passes.
 Calling FoFCou, ICntrl=  3107 FMM=F I1Cent=   0 AccDes= 0.00D+00.
 End of G2Drv F.D. properties file   721 does not exist.
 End of G2Drv F.D. properties file   722 does not exist.
 End of G2Drv F.D. properties file   788 does not exist.
          IDoAtm=1111
          Differentiating once with respect to electric field.
                with respect to dipole field.
          Differentiating once with respect to nuclear coordinates.
 Keep R1 ints in memory in symmetry-blocked form, NReq=28717118.
          There are    15 degrees of freedom in the 1st order CPHF.  IDoFFX=6 NUNeed=     3.
     12 vectors produced by pass  0 Test12= 9.81D-15 6.67D-09 XBig12= 2.97D+01 3.04D+00.
 AX will form    12 AO Fock derivatives at one time.
     12 vectors produced by pass  1 Test12= 9.81D-15 6.67D-09 XBig12= 9.70D+00 7.94D-01.
     12 vectors produced by pass  2 Test12= 9.81D-15 6.67D-09 XBig12= 1.31D-01 7.49D-02.
     12 vectors produced by pass  3 Test12= 9.81D-15 6.67D-09 XBig12= 7.48D-04 6.36D-03.
     12 vectors produced by pass  4 Test12= 9.81D-15 6.67D-09 XBig12= 4.82D-06 5.65D-04.
     12 vectors produced by pass  5 Test12= 9.81D-15 6.67D-09 XBig12= 1.53D-08 2.68D-05.
      7 vectors produced by pass  6 Test12= 9.81D-15 6.67D-09 XBig12= 4.31D-11 1.62D-06.
      3 vectors produced by pass  7 Test12= 9.81D-15 6.67D-09 XBig12= 5.94D-14 5.18D-08.
 InvSVY:  IOpt=1 It=  1 EMax= 6.66D-16
 Solved reduced A of dimension    82 with    12 vectors.
 Isotropic polarizability for W=    0.000000       26.79 Bohr**3.
 End of Minotr F.D. properties file   721 does not exist.
 End of Minotr F.D. properties file   722 does not exist.
 End of Minotr F.D. properties file   788 does not exist.

 **********************************************************************

            Population analysis using the SCF Density.

 **********************************************************************

 Orbital symmetries:
       Occupied  (A') (A') (A') (A') (A') (A") (A') (A') (A') (A')
                 (A') (A') (A") (A") (A') (A')
       Virtual   (A") (A') (A') (A') (A') (A") (A') (A') (A') (A')
                 (A') (A") (A") (A') (A') (A") (A') (A") (A') (A')
                 (A') (A") (A') (A') (A') (A") (A') (A") (A') (A")
                 (A') (A') (A') (A") (A') (A') (A") (A') (A') (A")
                 (A') (A") (A') (A") (A') (A') (A") (A') (A') (A")
                 (A') (A') (A') (A") (A") (A') (A') (A") (A') (A")
                 (A') (A') (A") (A') (A") (A') (A') (A") (A") (A')
                 (A') (A") (A') (A") (A') (A') (A') (A") (A') (A')
                 (A") (A') (A") (A') (A") (A') (A') (A') (A") (A')
                 (A') (A')
 The electronic state is 1-A'.
 Alpha  occ. eigenvalues -- -101.53386 -19.17974 -10.34055  -9.47950  -7.24007
 Alpha  occ. eigenvalues --   -7.23341  -7.23192  -1.12005  -0.86960  -0.64136
 Alpha  occ. eigenvalues --   -0.52356  -0.49353  -0.46329  -0.34755  -0.34288
 Alpha  occ. eigenvalues --   -0.32487
 Alpha virt. eigenvalues --   -0.07026  -0.00810   0.04427   0.09808   0.12045
 Alpha virt. eigenvalues --    0.15297   0.24654   0.28741   0.29719   0.31978
 Alpha virt. eigenvalues --    0.32550   0.32779   0.40419   0.44393   0.45812
 Alpha virt. eigenvalues --    0.49526   0.54104   0.54701   0.66875   0.69014
 Alpha virt. eigenvalues --    0.72637   0.76829   0.85711   0.96741   0.98029
 Alpha virt. eigenvalues --    1.05461   1.15081   1.16747   1.17854   1.22537
 Alpha virt. eigenvalues --    1.33901   1.50242   1.58968   1.61336   1.74599
 Alpha virt. eigenvalues --    1.86271   1.89818   1.96692   2.06472   2.09720
 Alpha virt. eigenvalues --    2.10733   2.11713   2.12090   2.16388   2.17690
 Alpha virt. eigenvalues --    2.22291   2.25630   2.38146   2.42658   2.43835
 Alpha virt. eigenvalues --    2.56115   2.77578   2.94642   3.18416   3.25680
 Alpha virt. eigenvalues --    3.28498   3.45593   3.47899   3.48463   3.51849
 Alpha virt. eigenvalues --    3.63261   3.73451   3.77984   3.84603   3.86975
 Alpha virt. eigenvalues --    3.89214   4.01453   4.02203   4.11430   4.17009
 Alpha virt. eigenvalues --    4.19322   4.25085   4.31627   4.31845   4.49805
 Alpha virt. eigenvalues --    4.59640   4.64385   4.68859   4.99406   5.05832
 Alpha virt. eigenvalues --    5.32215   5.56702   5.58815   5.62151   6.04965
 Alpha virt. eigenvalues --    6.07242   6.19565   6.23490   6.38859   6.61606
 Alpha virt. eigenvalues --    7.26702  32.64758
          Condensed to atoms (all electrons):
               1          2          3          4
     1  C    4.389779   0.591087   0.306379   0.410508
     2  O    0.591087   7.823831  -0.088096  -0.054482
     3  Cl   0.306379  -0.088096  16.977133  -0.089710
     4  H    0.410508  -0.054482  -0.089710   0.657888
 Mulliken charges:
               1
     1  C    0.302248
     2  O   -0.272339
     3  Cl  -0.105705
     4  H    0.075796
 Sum of Mulliken charges =  -0.00000
 Mulliken charges with hydrogens summed into heavy atoms:
               1
     1  C    0.378044
     2  O   -0.272339
     3  Cl  -0.105705
 APT charges:
               1
     1  C    1.127162
     2  O   -0.671281
     3  Cl  -0.459221
     4  H    0.003340
 Sum of APT charges =   0.00000
 APT charges with hydrogens summed into heavy atoms:
               1
     1  C    1.130501
     2  O   -0.671281
     3  Cl  -0.459221
 Electronic spatial extent (au):  <R**2>=            218.0465
 Charge=             -0.0000 electrons
 Dipole moment (field-independent basis, Debye):
    X=             -1.7780    Y=              0.7313    Z=              0.0000  Tot=              1.9225
 Quadrupole moment (field-independent basis, Debye-Ang):
   XX=            -25.7570   YY=            -23.5117   ZZ=            -23.4487
   XY=             -2.8798   XZ=              0.0000   YZ=              0.0000
 Traceless Quadrupole moment (field-independent basis, Debye-Ang):
   XX=             -1.5179   YY=              0.7274   ZZ=              0.7904
   XY=             -2.8798   XZ=              0.0000   YZ=              0.0000
 Octapole moment (field-independent basis, Debye-Ang**2):
  XXX=             -0.7301  YYY=             -1.4440  ZZZ=              0.0000  XYY=             -4.2640
  XXY=             -0.9166  XXZ=              0.0000  XZZ=              0.9585  YZZ=              1.0360
  YYZ=              0.0000  XYZ=              0.0000
 Hexadecapole moment (field-independent basis, Debye-Ang**3):
 XXXX=            -89.8997 YYYY=           -156.9329 ZZZZ=            -24.3103 XXXY=            -39.1604
 XXXZ=              0.0000 YYYX=            -38.8975 YYYZ=              0.0000 ZZZX=              0.0000
 ZZZY=              0.0000 XXYY=            -42.3864 XXZZ=            -18.4835 YYZZ=            -30.7128
 XXYZ=              0.0000 YYXZ=              0.0000 ZZXY=            -11.6296
 N-N= 8.790874028643D+01 E-N=-1.538460717703D+03  KE= 5.734646649571D+02
 Symmetry A'   KE= 5.236897286903D+02
 Symmetry A"   KE= 4.977493626687D+01
  Exact polarizability:  27.168   7.065  36.506  -0.000  -0.000  16.695
 Approx polarizability:  43.838  15.370  57.867  -0.000  -0.000  24.045
 Calling FoFJK, ICntrl=    100127 FMM=F ISym2X=1 I1Cent= 0 IOpClX= 0 NMat=1 NMatS=1 NMatT=0.
 Full mass-weighted force constant matrix:
 Low frequencies ---  -24.8408  -10.6814   -9.8838   -0.0032    0.0032    0.0039
 Low frequencies ---  449.1835  722.2038  950.7447
 Diagonal vibrational polarizability:
        2.9310330      14.0585721       0.0600976
 Harmonic frequencies (cm**-1), IR intensities (KM/Mole), Raman scattering
 activities (A**4/AMU), depolarization ratios for plane and unpolarized
 incident light, reduced masses (AMU), force constants (mDyne/A),
 and normal coordinates:
                      1                      2                      3
                     A'                     A'                     A"
 Frequencies --    449.1835               722.2037               950.7447
 Red. masses --     17.2263                 6.3793                 1.5933
 Frc consts  --      2.0478                 1.9604                 0.8485
 IR Inten    --     14.7695               218.7442                 2.0186
  Atom  AN      X      Y      Z        X      Y      Z        X      Y      Z
     1   6     0.44   0.11  -0.00    -0.14   0.60  -0.00     0.00  -0.00  -0.22
     2   8     0.24   0.67   0.00     0.06  -0.16   0.00    -0.00  -0.00   0.06
     3  17    -0.27  -0.34   0.00     0.02  -0.15   0.00     0.00   0.00   0.02
     4   1     0.23  -0.21   0.00    -0.03   0.76   0.00     0.00  -0.00   0.97
                      4                      5                      6
                     A'                     A'                     A'
 Frequencies --   1326.9983              1848.4516              3050.3833
 Red. masses --      1.1117                 9.9100                 1.0977
 Frc consts  --      1.1533                19.9498                 6.0179
 IR Inten    --     32.9013               402.2743                21.5075
  Atom  AN      X      Y      Z        X      Y      Z        X      Y      Z
     1   6    -0.01  -0.08   0.00     0.63   0.20   0.00    -0.08   0.04  -0.00
     2   8    -0.04   0.03  -0.00    -0.50  -0.16  -0.00     0.01   0.00   0.00
     3  17     0.00  -0.01  -0.00     0.00   0.01  -0.00     0.00   0.00   0.00
     4   1     0.59   0.80  -0.00     0.42  -0.34  -0.00     0.82  -0.56   0.00

 -------------------
 - Thermochemistry -
 -------------------
 Temperature   298.150 Kelvin.  Pressure   1.00000 Atm.
 Atom     1 has atomic number  6 and mass  12.00000
 Atom     2 has atomic number  8 and mass  15.99491
 Atom     3 has atomic number 17 and mass  34.96885
 Atom     4 has atomic number  1 and mass   1.00783
 Molecular mass:    63.97159 amu.
 Principal axes and moments of inertia in atomic units:
                           1         2         3
     Eigenvalues --    22.90316 298.31181 321.21496
           X            0.53640   0.84397   0.00000
           Y            0.84397  -0.53640   0.00000
           Z            0.00000  -0.00000   1.00000
 This molecule is an asymmetric top.
 Rotational symmetry number  1.
 Rotational temperatures (Kelvin)      3.78175     0.29035     0.26964
 Rotational constants (GHZ):          78.79880     6.04985     5.61848
 Zero-point vibrational energy      49931.9 (Joules/Mol)
                                   11.93402 (Kcal/Mol)
 Warning -- explicit consideration of   1 degrees of freedom as
           vibrations may cause significant error
 Vibrational temperatures:    646.27  1039.09  1367.91  1909.25  2659.51
          (Kelvin)           4388.82
 
 Zero-point correction=                           0.019018 (Hartree/Particle)
 Thermal correction to Energy=                    0.022275
 Thermal correction to Enthalpy=                  0.023219
 Thermal correction to Gibbs Free Energy=        -0.006200
 Sum of electronic and zero-point Energies=           -574.191992
 Sum of electronic and thermal Energies=              -574.188735
 Sum of electronic and thermal Enthalpies=            -574.187791
 Sum of electronic and thermal Free Energies=         -574.217210
 
                     E (Thermal)             CV                S
                      KCal/Mol        Cal/Mol-Kelvin    Cal/Mol-Kelvin
 Total                   13.978              8.703             61.918
 Electronic               0.000              0.000              0.000
 Translational            0.889              2.981             38.386
 Rotational               0.889              2.981             22.311
 Vibrational             12.200              2.741              1.220
 Vibration     1          0.808              1.363              0.798
                       Q            Log10(Q)             Ln(Q)
 Total Bot       0.710872D+03          2.851792          6.566493
 Total V=0       0.397636D+12         11.599486         26.708803
 Vib (Bot)       0.210781D-08         -8.676169        -19.977618
 Vib (Bot)    1  0.382028D+00         -0.417905         -0.962262
 Vib (V=0)       0.117903D+01          0.071525          0.164692
 Vib (V=0)    1  0.112924D+01          0.052787          0.121546
 Electronic      0.100000D+01          0.000000          0.000000
 Translational   0.201110D+08          7.303435         16.816780
 Rotational      0.167697D+05          4.224526          9.727331
 ***** Axes restored to original set *****
 -------------------------------------------------------------------
 Center     Atomic                   Forces (Hartrees/Bohr)
 Number     Number              X              Y              Z
 -------------------------------------------------------------------
      1        6          -0.000307963   -0.000148062   -0.000000000
      2        8           0.000322567    0.000140746   -0.000000000
      3       17           0.000003836   -0.000104466   -0.000000000
      4        1          -0.000018439    0.000111781   -0.000000000
 -------------------------------------------------------------------
 Cartesian Forces:  Max     0.000322567 RMS     0.000148432
 FormGI is forming the generalized inverse of G from B-inverse, IUseBI=4.

 GradGradGradGradGradGradGradGradGradGradGradGradGradGradGradGradGradGrad
 Berny optimization.
 Internal  Forces:  Max     0.000350651 RMS     0.000148169
 Search for a local minimum.
 Step number   1 out of a maximum of    2
 All quantities printed in internal units (Hartrees-Bohrs-Radians)
 Second derivative matrix not updated -- analytic derivatives used.
 The second derivative matrix:
                          R1        R2        R3        A1        A2
           R1           0.95239
           R2           0.08044   0.16771
           R3           0.02438   0.00861   0.32771
           A1           0.01131   0.01534  -0.00655   0.14276
           A2           0.02091  -0.03243   0.00697  -0.07429   0.10441
           A3          -0.03222   0.01709  -0.00042  -0.06848  -0.03013
           D1           0.00000  -0.00000  -0.00000  -0.00000   0.00000
                          A3        D1
           A3           0.09860
           D1          -0.00000   0.07291
 ITU=  0
     Eigenvalues ---    0.07291   0.10312   0.17756   0.22210   0.32756
     Eigenvalues ---    0.96325
 Angle between quadratic step and forces=  47.40 degrees.
 Linear search not attempted -- first point.
 Iteration  1 RMS(Cart)=  0.00043027 RMS(Int)=  0.00000013
 Iteration  2 RMS(Cart)=  0.00000011 RMS(Int)=  0.00000000
 ClnCor:  largest displacement from symmetrization is 2.09D-15 for atom     4.
 Variable       Old X    -DE/DX   Delta X   Delta X   Delta X     New X
                                 (Linear)    (Quad)   (Total)
    R1        2.22432   0.00035   0.00000   0.00039   0.00039   2.22471
    R2        3.37725   0.00010   0.00000   0.00021   0.00021   3.37746
    R3        2.06808   0.00008   0.00000   0.00022   0.00022   2.06830
    A1        2.15850  -0.00001   0.00000  -0.00010  -0.00010   2.15840
    A2        2.21269  -0.00008   0.00000  -0.00064  -0.00064   2.21205
    A3        1.91199   0.00009   0.00000   0.00074   0.00074   1.91273
    D1        3.14159  -0.00000   0.00000  -0.00000   0.00000   3.14159
         Item               Value     Threshold  Converged?
 Maximum Force            0.000351     0.000450     YES
 RMS     Force            0.000148     0.000300     YES
 Maximum Displacement     0.000805     0.001800     YES
 RMS     Displacement     0.000430     0.001200     YES
 Predicted change in Energy=-1.460826D-07
 Optimization completed.
    -- Stationary point found.
                           ----------------------------
                           !   Optimized Parameters   !
                           ! (Angstroms and Degrees)  !
 --------------------------                            --------------------------
 ! Name  Definition              Value          Derivative Info.                !
 --------------------------------------------------------------------------------
 ! R1    R(1,2)                  1.1771         -DE/DX =    0.0004              !
 ! R2    R(1,3)                  1.7872         -DE/DX =    0.0001              !
 ! R3    R(1,4)                  1.0944         -DE/DX =    0.0001              !
 ! A1    A(2,1,3)              123.6731         -DE/DX =    0.0                 !
 ! A2    A(2,1,4)              126.7781         -DE/DX =   -0.0001              !
 ! A3    A(3,1,4)              109.5488         -DE/DX =    0.0001              !
 ! D1    D(2,1,4,3)            180.0            -DE/DX =    0.0                 !
 --------------------------------------------------------------------------------
 GradGradGradGradGradGradGradGradGradGradGradGradGradGradGradGradGradGrad


 ----------------------------------------------------------------------

 Electric dipole moment (input orientation):
 (Debye = 10**-18 statcoulomb cm , SI units = C m)
                  (au)            (Debye)         (10**-30 SI)
   Tot        0.756387D+00      0.192254D+01      0.641291D+01
   x         -0.700640D+00     -0.178085D+01     -0.594027D+01
   y          0.284999D+00      0.724396D+00      0.241632D+01
   z          0.000000D+00      0.000000D+00      0.000000D+00

 Dipole polarizability, Alpha (input orientation).
 (esu units = cm**3 , SI units = C**2 m**2 J**-1)
 Alpha(0;0):
               (au)            (10**-24 esu)      (10**-40 SI)
   iso        0.267899D+02      0.396986D+01      0.441706D+01
   aniso      0.210813D+02      0.312393D+01      0.347584D+01
   xx         0.271133D+02      0.401778D+01      0.447039D+01
   yx         0.702845D+01      0.104151D+01      0.115884D+01
   yy         0.365611D+02      0.541780D+01      0.602811D+01
   zx         0.000000D+00      0.000000D+00      0.000000D+00
   zy         0.000000D+00      0.000000D+00      0.000000D+00
   zz         0.166953D+02      0.247399D+01      0.275268D+01

 ----------------------------------------------------------------------

 Dipole orientation:
     6          0.53232740          1.30866940          0.57965220
     8          1.07867728          2.65181154         -1.10708512
    17         -0.73067359         -1.79628207          0.16742644
     1          0.70148606          1.72452768          2.59841354

 Electric dipole moment (dipole orientation):
 (Debye = 10**-18 statcoulomb cm , SI units = C m)
                  (au)            (Debye)         (10**-30 SI)
   Tot        0.756387D+00      0.192254D+01      0.641291D+01
   x          0.000000D+00      0.000000D+00      0.000000D+00
   y          0.000000D+00      0.000000D+00      0.000000D+00
   z          0.756387D+00      0.192254D+01      0.641291D+01

 Dipole polarizability, Alpha (dipole orientation).
 (esu units = cm**3 , SI units = C**2 m**2 J**-1)
 Alpha(0;0):
               (au)            (10**-24 esu)      (10**-40 SI)
   iso        0.267899D+02      0.396986D+01      0.441706D+01
   aniso      0.210813D+02      0.312393D+01      0.347584D+01
   xx         0.200218D+02      0.296692D+01      0.330114D+01
   yx         0.817778D+01      0.121182D+01      0.134833D+01
   yy         0.367995D+02      0.545312D+01      0.606741D+01
   zx        -0.653851D+00     -0.968907D-01     -0.107805D+00
   zy        -0.160742D+01     -0.238195D+00     -0.265028D+00
   zz         0.235485D+02      0.348953D+01      0.388262D+01

 ----------------------------------------------------------------------
 1\1\GINC-GAMBA\Freq\RB3LYP\Gen\C1H1Cl1O1\IRIKURA\16-Jun-2022\0\\#N Geo
 m=AllCheck Guess=TCheck SCRF=Check GenChk RB3LYP/ChkBas Freq\\formyl c
 hloride, B3LYP/pcseg-2\\0,1\C,-0.0024361113,0.808094241,0.\O,1.1134780
 758,1.1825377448,0.\Cl,-0.4687242512,-0.9171685628,0.\H,-0.9024697134,
 1.430675577,0.\\Version=ES64L-G16RevB.01\State=1-A'\HF=-574.2110102\RM
 SD=1.068e-09\RMSF=1.484e-04\ZeroPoint=0.0190181\Thermal=0.0222749\Dipo
 le=-0.70064,0.2849993,0.\DipoleDeriv=1.2196815,0.8603009,0.,0.578387,1
 .9261569,0.,0.,0.,0.2356467,-0.9945309,-0.7056409,0.,-0.2607471,-0.751
 3625,0.,0.,0.,-0.267949,-0.2161861,-0.2083154,0.,-0.3474725,-1.0630749
 ,0.,0.,0.,-0.0984006,-0.0089646,0.0536554,0.,0.0298325,-0.1117195,0.,0
 .,0.,0.1307029\Polar=27.1133407,7.0284531,36.5611064,0.,0.,16.695287\Q
 uadrupole=-1.1117621,0.5240841,0.587678,-2.1475347,0.,0.\PG=CS [SG(C1H
 1Cl1O1)]\NImag=0\\1.04772844,0.05257516,0.37977762,0.,0.,0.14440606,-0
 .80724092,-0.17931201,0.,0.86668238,-0.22282912,-0.14885963,0.,0.25972
 914,0.16553715,0.,0.,-0.05746223,0.,0.,0.02280015,-0.02907935,0.005077
 11,0.,-0.01946833,-0.04706781,0.,0.04203147,0.04174842,-0.09614322,0.,
 -0.06665221,-0.03488116,0.,0.03343776,0.15881322,0.,0.,-0.03223751,0.,
 0.,0.01286256,0.,0.,0.00714534,-0.21140817,0.12165974,0.,-0.03997313,0
 .01016779,0.,0.00651620,-0.00853397,0.,0.24486510,0.12850554,-0.134774
 77,0.,-0.01376492,0.01820364,0.,0.00855294,-0.02778884,0.,-0.12329357,
 0.14435996,0.,0.,-0.05470633,0.,0.,0.02179952,0.,0.,0.01222961,0.,0.,0
 .02067720\\0.00030796,0.00014806,0.,-0.00032257,-0.00014075,0.,-0.0000
 0384,0.00010447,0.,0.00001844,-0.00011178,0.\\\@


 GARBAGE IN, GARBAGE OUT
 Job cpu time:       0 days  0 hours  2 minutes 10.5 seconds.
 Elapsed time:       0 days  0 hours  0 minutes 10.9 seconds.
 File lengths (MBytes):  RWF=     10 Int=      0 D2E=      0 Chk=      2 Scr=      1
 Normal termination of Gaussian 16 at Thu Jun 16 16:21:12 2022.
