 Entering Gaussian System, Link 0=g16
 AtFile(1): pcseg2.gbs
            -H     0
            S   4   1.00
                  0.754732D+02           0.427821D-02
                  0.113575D+02           0.328672D-01
                  0.260081D+01           0.159578D+00
                  0.735503D+00           0.500000D+00
            S   1   1.00
                  0.231761D+00           1.0000000
            S   1   1.00
                  0.741675D-01           1.0000000
            P   1   1.00
                  0.160000D+01           1.0000000
            P   1   1.00
                  0.450000D+00           1.0000000
            D   1   1.00
                  0.125000D+01           1.0000000
            ****
            -C     0
            S   7   1.00
                  0.731999D+04           0.695369D-03
                  0.109818D+04           0.537138D-02
                  0.250014D+03           0.274734D-01
                  0.707586D+02           0.105078D+00
                  0.228595D+02           0.291262D+00
                  0.803936D+01           0.500000D+00
                  0.289309D+01           0.362224D+00
            S   2   1.00
                  0.521640D+01          -0.957844D-01
                  0.556124D+00           0.500000D+00
            S   1   1.00
                  0.228813D+00           1.0000000
            S   1   1.00
                  0.936338D-01           1.0000000
            P   4   1.00
                  0.339855D+02           0.818395D-02
                  0.772957D+01           0.586921D-01
                  0.224954D+01           0.222514D+00
                  0.767681D+00           0.500000D+00
            P   1   1.00
                  0.263283D+00           1.0000000
            P   1   1.00
                  0.848744D-01           1.0000000
            D   1   1.00
                  0.140000D+01           1.0000000
            D   1   1.00
                  0.450000D+00           1.0000000
            F   1   1.00
                  0.950000D+00           1.0000000
            ****
            -O     0
            S   7   1.00
                  0.135887D+05           0.665492D-03
                  0.203847D+04           0.514222D-02
                  0.464041D+03           0.263472D-01
                  0.131339D+03           0.101500D+00
                  0.425340D+02           0.285877D+00
                  0.150429D+02           0.500000D+00
                  0.546616D+01           0.368211D+00
            S   2   1.00
                  0.100915D+02          -0.100084D+00
                  0.110429D+01           0.500000D+00
            S   1   1.00
                  0.448082D+00           1.0000000
            S   1   1.00
                  0.175325D+00           1.0000000
            P   4   1.00
                  0.608220D+02           0.908253D-02
                  0.140332D+02           0.645878D-01
                  0.418244D+01           0.241502D+00
                  0.142490D+01           0.500000D+00
            P   1   1.00
                  0.478741D+00           1.0000000
            P   1   1.00
                  0.146257D+00           1.0000000
            D   1   1.00
                  0.220000D+01           1.0000000
            D   1   1.00
                  0.650000D+00           1.0000000
            F   1   1.00
                  0.110000D+01           1.0000000
            ****
            -N     0
            S   7   1.00
                  0.101643D+05           0.682757D-03
                  0.152481D+04           0.527488D-02
                  0.347119D+03           0.270037D-01
                  0.982389D+02           0.103673D+00
                  0.317799D+02           0.289575D+00
                  0.112240D+02           0.500000D+00
                  0.406611D+01           0.364621D+00
            S   2   1.00
                  0.747898D+01          -0.975681D-01
                  0.805040D+00           0.500000D+00
            S   1   1.00
                  0.324626D+00           1.0000000
            S   1   1.00
                  0.128132D+00           1.0000000
            P   4   1.00
                  0.482704D+02           0.829547D-02
                  0.110815D+02           0.596223D-01
                  0.326643D+01           0.227889D+00
                  0.111680D+01           0.500000D+00
            P   1   1.00
                  0.382049D+00           1.0000000
            P   1   1.00
                  0.121222D+00           1.0000000
            D   1   1.00
                  0.180000D+01           1.0000000
            D   1   1.00
                  0.550000D+00           1.0000000
            F   1   1.00
                  0.102000D+01           1.0000000
            ****
            -F     0
            S   7   1.00
                  0.174507D+05           0.655972D-03
                  0.261768D+04           0.506944D-02
                  0.595857D+03           0.259899D-01
                  0.168651D+03           0.100353D+00
                  0.546654D+02           0.284095D+00
                  0.193717D+02           0.500000D+00
                  0.706202D+01           0.370721D+00
            S   2   1.00
                  0.131197D+02          -0.101997D+00
                  0.145046D+01           0.500000D+00
            S   1   1.00
                  0.588255D+00           1.0000000
            S   1   1.00
                  0.227960D+00           1.0000000
            P   4   1.00
                  0.779407D+02           0.931135D-02
                  0.180425D+02           0.663964D-01
                  0.542342D+01           0.246386D+00
                  0.184876D+01           0.500000D+00
            P   1   1.00
                  0.617455D+00           1.0000000
            P   1   1.00
                  0.185496D+00           1.0000000
            D   1   1.00
                  0.280000D+01           1.0000000
            D   1   1.00
                  0.800000D+00           1.0000000
            F   1   1.00
                  0.120000D+01           1.0000000
            ****
            -Cl     0
            S   8   1.00
                  0.154272D+06           0.222473D-03
                  0.231232D+05           0.172590D-02
                  0.526257D+04           0.899286D-02
                  0.148995D+04           0.367724D-01
                  0.485417D+03           0.121446D+00
                  0.174634D+03           0.304148D+00
                  0.672393D+02           0.500000D+00
                  0.265780D+02           0.360252D+00
            S   3   1.00
                  0.131826D+03          -0.531330D-01
                  0.400703D+02          -0.233346D+00
                  0.789448D+01           0.500000D+00
            S   2   1.00
                  0.427711D+01           0.500000D+00
                  0.196233D+01           0.370517D+00
            S   1   1.00
                  0.520793D+00           1.0000000
            S   1   1.00
                  0.181633D+00           1.0000000
            P   7   1.00
                  0.124440D+04           0.988206D-03
                  0.295109D+03           0.829674D-02
                  0.947224D+02           0.430906D-01
                  0.352588D+02           0.148443D+00
                  0.144211D+02           0.344744D+00
                  0.610371D+01           0.500000D+00
                  0.258886D+01           0.348278D+00
            P   2   1.00
                  0.109447D+02          -0.196768D-01
                  0.104413D+01           0.500000D+00
            P   1   1.00
                  0.376184D+00           1.0000000
            P   1   1.00
                  0.120613D+00           1.0000000
            D   1   1.00
                  0.231000D+01           1.0000000
            D   1   1.00
                  0.520000D+00           1.0000000
            F   1   1.00
                  0.720000D+00           1.0000000
            ****
            -S     0
            S   8   1.00
                  0.134700D+06           0.226231D-03
                  0.201904D+05           0.175488D-02
                  0.459528D+04           0.914190D-02
                  0.130109D+04           0.373551D-01
                  0.423902D+03           0.123121D+00
                  0.152485D+03           0.306801D+00
                  0.586925D+02           0.500000D+00
                  0.231461D+02           0.354358D+00
            S   3   1.00
                  0.116327D+03          -0.491772D-01
                  0.352841D+02          -0.215962D+00
                  0.677831D+01           0.500000D+00
            S   2   1.00
                  0.360404D+01           0.500000D+00
                  0.164871D+01           0.366278D+00
            S   1   1.00
                  0.421821D+00           1.0000000
            S   1   1.00
                  0.147554D+00           1.0000000
            P   7   1.00
                  0.104863D+04           0.105273D-02
                  0.248717D+03           0.879338D-02
                  0.797887D+02           0.453358D-01
                  0.296023D+02           0.154476D+00
                  0.120627D+02           0.352366D+00
                  0.507628D+01           0.500000D+00
                  0.213375D+01           0.346429D+00
            P   2   1.00
                  0.928958D+01          -0.185932D-01
                  0.837819D+00           0.500000D+00
            P   1   1.00
                  0.301495D+00           1.0000000
            P   1   1.00
                  0.974740D-01           1.0000000
            D   1   1.00
                  0.210000D+01           1.0000000
            D   1   1.00
                  0.480000D+00           1.0000000
            F   1   1.00
                  0.660000D+00           1.0000000
            ****
            -Br     0
            S    10   1.00
                  0.233625D+07           0.532336D-04
                  0.349961D+06           0.413715D-03
                  0.796444D+05           0.217123D-02
                  0.225555D+05           0.910109D-02
                  0.735546D+04           0.323789D-01
                  0.265352D+04           0.988755D-01
                  0.103517D+04           0.248138D+00
                  0.422205D+03           0.474328D+00
                  0.180035D+03           0.500000D+00
                  0.793308D+02           0.187769D+00
            S    4   1.00
                  0.620834D+03          -0.226511D-01
                  0.190829D+03          -0.109497D+00
                  0.312505D+02           0.500000D+00
                  0.135270D+02           0.492812D+00
            S    2   1.00
                  0.216097D+02          -0.165418D+00
                  0.372566D+01           0.500000D+00
            S    1   1.00
                  0.169770D+01           1.0000000
            S    1   1.00
                  0.489332D+00           1.0000000
            S    1   1.00
                  0.175712D+00           1.0000000
            P    8   1.00
                  0.960829D+04           0.478974D-03
                  0.227618D+04           0.417853D-02
                  0.736723D+03           0.229315D-01
                  0.281579D+03           0.892653D-01
                  0.118395D+03           0.255288D+00
                  0.527481D+02           0.479074D+00
                  0.245098D+02           0.500000D+00
                  0.112009D+02           0.200944D+00
            P    4   1.00
                  0.587849D+02          -0.189674D-01
                  0.918962D+01           0.264104D+00
                  0.413895D+01           0.500000D+00
                  0.184225D+01           0.319316D+00
            P    1   1.00
                  0.713862D+00           1.0000000
            P    1   1.00
                  0.274232D+00           1.0000000
            P    1   1.00
                  0.944411D-01           1.0000000
            D    7   1.00
                  0.398470D+03           0.204066D-02
                  0.118967D+03           0.175171D-01
                  0.450197D+02           0.829708D-01
                  0.190320D+02           0.236284D+00
                  0.855686D+01           0.428468D+00
                  0.382950D+01           0.500000D+00
                  0.166291D+01           0.349360D+00
            D    1   1.00
                  0.672953D+00           1.0000000
            D    1   1.00
                  0.252000D+00           1.0000000
            F    1   1.00
                  0.530000D+00           1.0000000
            ****
            -Si     0
            S    8   1.00
                  0.996133D+05           0.235546D-03
                  0.149311D+05           0.182707D-02
                  0.339820D+04           0.951425D-02
                  0.962140D+03           0.388172D-01
                  0.313430D+03           0.127328D+00
                  0.112683D+03           0.313522D+00
                  0.433372D+02           0.500000D+00
                  0.170029D+02           0.340347D+00
            S    3   1.00
                  0.884208D+02          -0.404451D-01
                  0.266756D+02          -0.178059D+00
                  0.479640D+01           0.500000D+00
            S    2   1.00
                  0.239385D+01           0.500000D+00
                  0.108333D+01           0.338016D+00
            S    1   1.00
                  0.252420D+00           1.0000000
            S    1   1.00
                  0.891210D-01           1.0000000
            P    7   1.00
                  0.709901D+03           0.123028D-02
                  0.168426D+03           0.101366D-01
                  0.539946D+02           0.511840D-01
                  0.198646D+02           0.169967D+00
                  0.801369D+01           0.370717D+00
                  0.331870D+01           0.500000D+00
                  0.136112D+01           0.344128D+00
            P    2   1.00
                  0.622158D+01          -0.166609D-01
                  0.503049D+00           0.500000D+00
            P    1   1.00
                  0.179848D+00           1.0000000
            P    1   1.00
                  0.591912D-01           1.0000000
            D    1   1.00
                  0.168000D+01           1.0000000
            D    1   1.00
                  0.380000D+00           1.0000000
            F    1   1.00
                  0.540000D+00           1.0000000
            ****
            -P     0
            S    8   1.00
                  0.116416D+06           0.230715D-03
                  0.174500D+05           0.178960D-02
                  0.397149D+04           0.932116D-02
                  0.112447D+04           0.380591D-01
                  0.366347D+03           0.125148D+00
                  0.131757D+03           0.310022D+00
                  0.506988D+02           0.500000D+00
                  0.199436D+02           0.347528D+00
            S    3   1.00
                  0.101878D+03          -0.446755D-01
                  0.308249D+02          -0.196376D+00
                  0.573688D+01           0.500000D+00
            S    2   1.00
                  0.296868D+01           0.500000D+00
                  0.135315D+01           0.355098D+00
            S    1   1.00
                  0.332196D+00           1.0000000
            S    1   1.00
                  0.116229D+00           1.0000000
            P    7   1.00
                  0.873928D+03           0.112375D-02
                  0.207298D+03           0.933330D-02
                  0.664628D+02           0.477213D-01
                  0.245665D+02           0.160733D+00
                  0.996820D+01           0.359760D+00
                  0.416536D+01           0.500000D+00
                  0.173022D+01           0.346593D+00
            P    2   1.00
                  0.772530D+01          -0.175718D-01
                  0.657252D+00           0.500000D+00
            P    1   1.00
                  0.239903D+00           1.0000000
            P    1   1.00
                  0.800988D-01           1.0000000
            D    1   1.00
                  0.189000D+01           1.0000000
            D    1   1.00
                  0.430000D+00           1.0000000
            F    1   1.00
                  0.600000D+00           1.0000000
            ****
            
 Initial command:
 /usr/local/apps/g16_b01_avx/g16/l1.exe "/wrk/irikura/Gau-421183.inp" -scrdir="/wrk/irikura/"
 Entering Link 1 = /usr/local/apps/g16_b01_avx/g16/l1.exe PID=    421185.
  
 Copyright (c) 1988-2017, Gaussian, Inc.  All Rights Reserved.
  
 This is part of the Gaussian(R) 16 program.  It is based on
 the Gaussian(R) 09 system (copyright 2009, Gaussian, Inc.),
 the Gaussian(R) 03 system (copyright 2003, Gaussian, Inc.),
 the Gaussian(R) 98 system (copyright 1998, Gaussian, Inc.),
 the Gaussian(R) 94 system (copyright 1995, Gaussian, Inc.),
 the Gaussian 92(TM) system (copyright 1992, Gaussian, Inc.),
 the Gaussian 90(TM) system (copyright 1990, Gaussian, Inc.),
 the Gaussian 88(TM) system (copyright 1988, Gaussian, Inc.),
 the Gaussian 86(TM) system (copyright 1986, Carnegie Mellon
 University), and the Gaussian 82(TM) system (copyright 1983,
 Carnegie Mellon University). Gaussian is a federally registered
 trademark of Gaussian, Inc.
  
 This software contains proprietary and confidential information,
 including trade secrets, belonging to Gaussian, Inc.
  
 This software is provided under written license and may be
 used, copied, transmitted, or stored only in accord with that
 written license.
  
 The following legend is applicable only to US Government
 contracts under FAR:
  
                    RESTRICTED RIGHTS LEGEND
  
 Use, reproduction and disclosure by the US Government is
 subject to restrictions as set forth in subparagraphs (a)
 and (c) of the Commercial Computer Software - Restricted
 Rights clause in FAR 52.227-19.
  
 Gaussian, Inc.
 340 Quinnipiac St., Bldg. 40, Wallingford CT 06492
  
  
 ---------------------------------------------------------------
 Warning -- This program may not be used in any manner that
 competes with the business of Gaussian, Inc. or will provide
 assistance to any competitor of Gaussian, Inc.  The licensee
 of this program is prohibited from giving any competitor of
 Gaussian, Inc. access to this program.  By using this program,
 the user acknowledges that Gaussian, Inc. is engaged in the
 business of creating and licensing software in the field of
 computational chemistry and represents and warrants to the
 licensee that it is not a competitor of Gaussian, Inc. and that
 it will not use this program in any manner prohibited above.
 ---------------------------------------------------------------
  

 Cite this work as:
 Gaussian 16, Revision B.01,
 M. J. Frisch, G. W. Trucks, H. B. Schlegel, G. E. Scuseria, 
 M. A. Robb, J. R. Cheeseman, G. Scalmani, V. Barone, 
 G. A. Petersson, H. Nakatsuji, X. Li, M. Caricato, A. V. Marenich, 
 J. Bloino, B. G. Janesko, R. Gomperts, B. Mennucci, H. P. Hratchian, 
 J. V. Ortiz, A. F. Izmaylov, J. L. Sonnenberg, D. Williams-Young, 
 F. Ding, F. Lipparini, F. Egidi, J. Goings, B. Peng, A. Petrone, 
 T. Henderson, D. Ranasinghe, V. G. Zakrzewski, J. Gao, N. Rega, 
 G. Zheng, W. Liang, M. Hada, M. Ehara, K. Toyota, R. Fukuda, 
 J. Hasegawa, M. Ishida, T. Nakajima, Y. Honda, O. Kitao, H. Nakai, 
 T. Vreven, K. Throssell, J. A. Montgomery, Jr., J. E. Peralta, 
 F. Ogliaro, M. J. Bearpark, J. J. Heyd, E. N. Brothers, K. N. Kudin, 
 V. N. Staroverov, T. A. Keith, R. Kobayashi, J. Normand, 
 K. Raghavachari, A. P. Rendell, J. C. Burant, S. S. Iyengar, 
 J. Tomasi, M. Cossi, J. M. Millam, M. Klene, C. Adamo, R. Cammi, 
 J. W. Ochterski, R. L. Martin, K. Morokuma, O. Farkas, 
 J. B. Foresman, and D. J. Fox, Gaussian, Inc., Wallingford CT, 2016.
 
 ******************************************
 Gaussian 16:  ES64L-G16RevB.01 20-Dec-2017
                29-Sep-2023 
 ******************************************
 %chk=chcl2chcl2.chk
 %mem=500mw
 %nprocs=4
 Will use up to    4 processors via shared memory.
 ---------------------------------------
 # b3lyp/gen opt freq CPHF(Grid=OneStep)
 ---------------------------------------
 1/18=20,19=15,26=3,38=1/1,3;
 2/9=110,12=2,17=6,18=5,40=1/2;
 3/5=7,11=2,25=1,30=1,71=1,74=-5/1,2,3;
 4//1;
 5/5=2,38=5/2;
 6/7=2,8=2,9=2,10=2,28=1/1;
 7//1,2,3,16;
 1/18=20,19=15,26=3/3(2);
 2/9=110/2;
 99//99;
 2/9=110/2;
 3/5=7,6=1,11=2,25=1,30=1,71=1,74=-5,82=7/1,2,3;
 4/5=5,16=3,69=1/1;
 5/5=2,38=5/2;
 7//1,2,3,16;
 1/18=20,19=15,26=3/3(-5);
 2/9=110/2;
 6/7=2,8=2,9=2,10=2,19=2,28=1/1;
 99/9=1/99;
 ----------------------------------------
 1,1,2,2-tetrachloroethane, B3LYP/pcseg-2
 ----------------------------------------
 Symbolic Z-matrix:
 Charge =  0 Multiplicity = 1
 C                     0.23107   0.72951  -0.4868 
 C                    -0.23107  -0.72951  -0.4868 
 H                     0.86418   0.88872  -1.35212 
 Cl                   -1.18674   1.80789  -0.69245 
 Cl                    1.18674   1.17635   0.9438 
 H                    -0.86418  -0.88872  -1.35212 
 Cl                    1.18674  -1.80789  -0.69245 
 Cl                   -1.18674  -1.17635   0.9438 
 

 GradGradGradGradGradGradGradGradGradGradGradGradGradGradGradGradGradGrad
 Berny optimization.
 Initialization pass.
                           ----------------------------
                           !    Initial Parameters    !
                           ! (Angstroms and Degrees)  !
 --------------------------                            --------------------------
 ! Name  Definition              Value          Derivative Info.                !
 --------------------------------------------------------------------------------
 ! R1    R(1,2)                  1.5305         estimate D2E/DX2                !
 ! R2    R(1,3)                  1.084          estimate D2E/DX2                !
 ! R3    R(1,4)                  1.7931         estimate D2E/DX2                !
 ! R4    R(1,5)                  1.7775         estimate D2E/DX2                !
 ! R5    R(2,6)                  1.084          estimate D2E/DX2                !
 ! R6    R(2,7)                  1.7931         estimate D2E/DX2                !
 ! R7    R(2,8)                  1.7775         estimate D2E/DX2                !
 ! A1    A(2,1,3)              108.445          estimate D2E/DX2                !
 ! A2    A(2,1,4)              109.5457         estimate D2E/DX2                !
 ! A3    A(2,1,5)              113.7032         estimate D2E/DX2                !
 ! A4    A(3,1,4)              106.3757         estimate D2E/DX2                !
 ! A5    A(3,1,5)              106.9505         estimate D2E/DX2                !
 ! A6    A(4,1,5)              111.4829         estimate D2E/DX2                !
 ! A7    A(1,2,6)              108.445          estimate D2E/DX2                !
 ! A8    A(1,2,7)              109.5457         estimate D2E/DX2                !
 ! A9    A(1,2,8)              113.7032         estimate D2E/DX2                !
 ! A10   A(6,2,7)              106.3757         estimate D2E/DX2                !
 ! A11   A(6,2,8)              106.9505         estimate D2E/DX2                !
 ! A12   A(7,2,8)              111.4829         estimate D2E/DX2                !
 ! D1    D(3,1,2,6)            -65.396          estimate D2E/DX2                !
 ! D2    D(3,1,2,7)             50.3119         estimate D2E/DX2                !
 ! D3    D(3,1,2,8)            175.7826         estimate D2E/DX2                !
 ! D4    D(4,1,2,6)             50.3119         estimate D2E/DX2                !
 ! D5    D(4,1,2,7)            166.0198         estimate D2E/DX2                !
 ! D6    D(4,1,2,8)            -68.5095         estimate D2E/DX2                !
 ! D7    D(5,1,2,6)            175.7826         estimate D2E/DX2                !
 ! D8    D(5,1,2,7)            -68.5095         estimate D2E/DX2                !
 ! D9    D(5,1,2,8)             56.9612         estimate D2E/DX2                !
 --------------------------------------------------------------------------------
 Trust Radius=3.00D-01 FncErr=1.00D-07 GrdErr=1.00D-06 EigMax=2.50D+02 EigMin=1.00D-04
 Number of steps in this run=     38 maximum allowed number of steps=    100.
 GradGradGradGradGradGradGradGradGradGradGradGradGradGradGradGradGradGrad

                          Input orientation:                          
 ---------------------------------------------------------------------
 Center     Atomic      Atomic             Coordinates (Angstroms)
 Number     Number       Type             X           Y           Z
 ---------------------------------------------------------------------
      1          6           0        0.231072    0.729506   -0.486800
      2          6           0       -0.231072   -0.729506   -0.486800
      3          1           0        0.864183    0.888717   -1.352116
      4         17           0       -1.186737    1.807887   -0.692447
      5         17           0        1.186737    1.176348    0.943795
      6          1           0       -0.864183   -0.888717   -1.352116
      7         17           0        1.186737   -1.807887   -0.692447
      8         17           0       -1.186737   -1.176348    0.943795
 ---------------------------------------------------------------------
                    Distance matrix (angstroms):
                    1          2          3          4          5
     1  C    0.000000
     2  C    1.530455   0.000000
     3  H    1.083951   2.137054   0.000000
     4  Cl   1.793148   2.719182   2.342287   0.000000
     5  Cl   1.777517   2.772916   2.336232   2.951188   0.000000
     6  H    2.137054   1.083951   2.479218   2.794795   3.707017
     7  Cl   2.719182   1.793148   2.794795   4.325182   3.403373
     8  Cl   2.772916   1.777517   3.707017   3.403373   3.341939
                    6          7          8
     6  H    0.000000
     7  Cl   2.342287   0.000000
     8  Cl   2.336232   2.951188   0.000000
 Stoichiometry    C2H2Cl4
 Framework group  C2[X(C2H2Cl4)]
 Deg. of freedom    10
 Full point group                 C2      NOp   2
 Largest Abelian subgroup         C2      NOp   2
 Largest concise Abelian subgroup C2      NOp   2
                         Standard orientation:                         
 ---------------------------------------------------------------------
 Center     Atomic      Atomic             Coordinates (Angstroms)
 Number     Number       Type             X           Y           Z
 ---------------------------------------------------------------------
      1          6           0        0.231072    0.729506   -0.486800
      2          6           0       -0.231072   -0.729506   -0.486800
      3          1           0        0.864183    0.888717   -1.352116
      4         17           0       -1.186737    1.807887   -0.692447
      5         17           0        1.186737    1.176348    0.943795
      6          1           0       -0.864183   -0.888717   -1.352116
      7         17           0        1.186737   -1.807887   -0.692447
      8         17           0       -1.186737   -1.176348    0.943795
 ---------------------------------------------------------------------
 Rotational constants (GHZ):           1.7384769           1.1008162           0.9367344
 General basis read from cards:  (5D, 7F)
 There are   128 symmetry adapted cartesian basis functions of A   symmetry.
 There are   128 symmetry adapted cartesian basis functions of B   symmetry.
 There are   112 symmetry adapted basis functions of A   symmetry.
 There are   112 symmetry adapted basis functions of B   symmetry.
   224 basis functions,   418 primitive gaussians,   256 cartesian basis functions
    41 alpha electrons       41 beta electrons
       nuclear repulsion energy       522.3625503861 Hartrees.
 NAtoms=    8 NActive=    8 NUniq=    4 SFac= 4.00D+00 NAtFMM=   60 NAOKFM=F Big=F
 Integral buffers will be    131072 words long.
 Raffenetti 2 integral format.
 Two-electron integral symmetry is turned on.
 One-electron integrals computed using PRISM.
 NBasis=   224 RedAO= T EigKep=  6.52D-04  NBF=   112   112
 NBsUse=   224 1.00D-06 EigRej= -1.00D+00 NBFU=   112   112
 ExpMin= 7.42D-02 ExpMax= 1.54D+05 ExpMxC= 1.49D+03 IAcc=3 IRadAn=         5 AccDes= 0.00D+00
 Harris functional with IExCor=  402 and IRadAn=       5 diagonalized for initial guess.
 HarFok:  IExCor=  402 AccDes= 0.00D+00 IRadAn=         5 IDoV= 1 UseB2=F ITyADJ=14
 ICtDFT=  3500011 ScaDFX=  1.000000  1.000000  1.000000  1.000000
 FoFCou: FMM=F IPFlag=           0 FMFlag=      100000 FMFlg1=           0
         NFxFlg=           0 DoJE=T BraDBF=F KetDBF=T FulRan=T
         wScrn=  0.000000 ICntrl=       500 IOpCl=  0 I1Cent=   200000004 NGrid=           0
         NMat0=    1 NMatS0=      1 NMatT0=    0 NMatD0=    1 NMtDS0=    0 NMtDT0=    0
 Petite list used in FoFCou.
 Initial guess orbital symmetries:
       Occupied  (A) (B) (B) (A) (A) (B) (A) (B) (B) (A) (A) (B)
                 (B) (A) (B) (A) (B) (A) (B) (A) (A) (B) (A) (B)
                 (B) (A) (A) (B) (A) (B) (A) (B) (A) (B) (A) (A)
                 (B) (A) (B) (B) (A)
       Virtual   (A) (B) (A) (B) (A) (B) (B) (A) (B) (A) (B) (A)
                 (B) (A) (B) (A) (B) (A) (B) (A) (B) (A) (B) (A)
                 (B) (A) (B) (A) (B) (B) (A) (A) (B) (A) (B) (A)
                 (B) (A) (A) (B) (A) (B) (A) (B) (A) (B) (B) (B)
                 (A) (A) (B) (A) (B) (A) (A) (B) (B) (B) (B) (A)
                 (A) (B) (A) (A) (B) (A) (B) (B) (A) (A) (B) (A)
                 (B) (A) (B) (A) (B) (A) (B) (A) (B) (B) (A) (A)
                 (B) (A) (A) (B) (B) (A) (B) (A) (A) (B) (B) (A)
                 (B) (B) (A) (B) (A) (A) (B) (A) (B) (B) (A) (A)
                 (B) (A) (B) (B) (A) (A) (A) (B) (B) (A) (B) (A)
                 (A) (B) (A) (B) (A) (B) (B) (A) (B) (A) (B) (A)
                 (B) (A) (B) (A) (B) (A) (B) (A) (A) (A) (B) (B)
                 (A) (B) (B) (A) (B) (A) (A) (A) (B) (B) (B) (A)
                 (B) (B) (A) (B) (A) (B) (A) (A) (B) (B) (A) (A)
                 (B) (A) (B) (A) (B) (A) (B) (A) (B) (A) (B) (A)
                 (B) (B) (A)
 The electronic state of the initial guess is 1-A.
 Keep R1 ints in memory in symmetry-blocked form, NReq=476362235.
 Requested convergence on RMS density matrix=1.00D-08 within 128 cycles.
 Requested convergence on MAX density matrix=1.00D-06.
 Requested convergence on             energy=1.00D-06.
 No special actions if energy rises.
 Integral accuracy reduced to 1.0D-05 until final iterations.
 Initial convergence to 1.0D-05 achieved.  Increase integral accuracy.
 SCF Done:  E(RB3LYP) =  -1918.38235124     A.U. after   12 cycles
            NFock= 12  Conv=0.48D-08     -V/T= 2.0010

 **********************************************************************

            Population analysis using the SCF Density.

 **********************************************************************

 Orbital symmetries:
       Occupied  (B) (A) (A) (B) (A) (B) (A) (B) (B) (A) (B) (A)
                 (B) (A) (A) (B) (B) (A) (A) (B) (A) (B) (A) (B)
                 (B) (A) (A) (B) (A) (B) (A) (B) (A) (B) (A) (B)
                 (A) (B) (A) (B) (A)
       Virtual   (A) (B) (A) (B) (A) (B) (B) (A) (B) (A) (B) (A)
                 (B) (A) (B) (A) (B) (A) (B) (B) (A) (A) (B) (A)
                 (B) (A) (B) (A) (B) (A) (B) (A) (B) (A) (B) (A)
                 (B) (A) (A) (B) (A) (B) (A) (B) (A) (B) (B) (B)
                 (A) (A) (B) (A) (B) (A) (A) (B) (B) (B) (B) (A)
                 (A) (B) (A) (A) (B) (A) (B) (B) (A) (A) (B) (B)
                 (A) (A) (B) (A) (B) (A) (A) (B) (B) (B) (A) (A)
                 (B) (A) (A) (B) (B) (A) (B) (A) (A) (B) (B) (A)
                 (B) (B) (A) (B) (A) (A) (B) (A) (B) (A) (B) (A)
                 (B) (A) (B) (B) (A) (A) (A) (B) (B) (A) (B) (A)
                 (A) (B) (A) (B) (A) (B) (B) (A) (B) (B) (A) (A)
                 (B) (A) (B) (A) (B) (A) (B) (A) (A) (B) (A) (B)
                 (B) (A) (B) (A) (A) (B) (A) (A) (B) (B) (B) (A)
                 (B) (B) (A) (B) (A) (B) (A) (A) (B) (B) (A) (A)
                 (B) (A) (B) (A) (B) (A) (B) (A) (B) (A) (B) (A)
                 (B) (B) (A)
 The electronic state is 1-A.
 Alpha  occ. eigenvalues -- -101.53678-101.53678-101.53400-101.53400 -10.32849
 Alpha  occ. eigenvalues --  -10.32826  -9.48197  -9.48197  -9.47921  -9.47920
 Alpha  occ. eigenvalues --   -7.24393  -7.24393  -7.24130  -7.24130  -7.23463
 Alpha  occ. eigenvalues --   -7.23463  -7.23432  -7.23432  -7.23177  -7.23177
 Alpha  occ. eigenvalues --   -7.23150  -7.23150  -0.95524  -0.89797  -0.84917
 Alpha  occ. eigenvalues --   -0.84288  -0.73386  -0.62896  -0.53716  -0.50815
 Alpha  occ. eigenvalues --   -0.49304  -0.45057  -0.44404  -0.36452  -0.35202
 Alpha  occ. eigenvalues --   -0.34435  -0.34343  -0.32932  -0.32829  -0.32572
 Alpha  occ. eigenvalues --   -0.32198
 Alpha virt. eigenvalues --   -0.03795  -0.03477  -0.00073   0.00529   0.03187
 Alpha virt. eigenvalues --    0.04846   0.08883   0.12049   0.15459   0.17943
 Alpha virt. eigenvalues --    0.19162   0.20939   0.22414   0.23053   0.24854
 Alpha virt. eigenvalues --    0.26852   0.27273   0.28465   0.29446   0.30015
 Alpha virt. eigenvalues --    0.30138   0.31232   0.34123   0.34541   0.35213
 Alpha virt. eigenvalues --    0.35747   0.37672   0.39520   0.40768   0.44124
 Alpha virt. eigenvalues --    0.44211   0.51194   0.52847   0.54531   0.54783
 Alpha virt. eigenvalues --    0.55074   0.58294   0.58953   0.62349   0.63536
 Alpha virt. eigenvalues --    0.64274   0.65236   0.66681   0.67093   0.69444
 Alpha virt. eigenvalues --    0.69650   0.74496   0.78126   0.79475   0.84557
 Alpha virt. eigenvalues --    0.87057   0.89188   0.92914   0.99066   1.03644
 Alpha virt. eigenvalues --    1.04780   1.05288   1.09231   1.10897   1.13814
 Alpha virt. eigenvalues --    1.14703   1.20267   1.22712   1.30105   1.31520
 Alpha virt. eigenvalues --    1.32869   1.41987   1.50809   1.57429   1.70541
 Alpha virt. eigenvalues --    1.73911   1.81174   1.81359   1.83103   1.86405
 Alpha virt. eigenvalues --    1.89705   2.03055   2.04181   2.06314   2.06538
 Alpha virt. eigenvalues --    2.08274   2.09061   2.09117   2.09504   2.09508
 Alpha virt. eigenvalues --    2.09881   2.10008   2.10200   2.11112   2.11195
 Alpha virt. eigenvalues --    2.12223   2.12762   2.13319   2.14164   2.15492
 Alpha virt. eigenvalues --    2.16676   2.16812   2.18432   2.18866   2.20474
 Alpha virt. eigenvalues --    2.21129   2.22575   2.24079   2.26398   2.28241
 Alpha virt. eigenvalues --    2.29935   2.30768   2.34681   2.38412   2.43973
 Alpha virt. eigenvalues --    2.47357   2.50758   2.51811   2.55395   2.57309
 Alpha virt. eigenvalues --    2.58874   2.69697   2.76174   3.13329   3.13864
 Alpha virt. eigenvalues --    3.17309   3.17792   3.20927   3.26807   3.30505
 Alpha virt. eigenvalues --    3.36334   3.41280   3.45029   3.48839   3.49666
 Alpha virt. eigenvalues --    3.49851   3.50174   3.50519   3.52272   3.54775
 Alpha virt. eigenvalues --    3.59321   3.61283   3.62363   3.68682   3.73861
 Alpha virt. eigenvalues --    3.80403   3.83399   3.83642   3.84083   3.87439
 Alpha virt. eigenvalues --    3.87950   4.02163   4.04303   4.11223   4.11523
 Alpha virt. eigenvalues --    4.23338   4.24582   4.25815   4.31196   4.37834
 Alpha virt. eigenvalues --    4.40303   4.42242   4.48083   4.53686   4.59979
 Alpha virt. eigenvalues --    4.63730   4.64966   4.69597   4.82322   4.89455
 Alpha virt. eigenvalues --    4.96820   5.02694   5.16519   5.24337   5.28070
 Alpha virt. eigenvalues --    5.40801   5.43499   5.54207   5.56708   5.58237
 Alpha virt. eigenvalues --    5.68072   5.71229   5.83190   6.16280  32.69348
 Alpha virt. eigenvalues --   32.88442  33.10272  33.18811
          Condensed to atoms (all electrons):
               1          2          3          4          5          6
     1  C    4.802310   0.244333   0.439323   0.285227   0.313348  -0.047948
     2  C    0.244333   4.802310  -0.047948  -0.034060  -0.042864   0.439323
     3  H    0.439323  -0.047948   0.580835  -0.050536  -0.048837  -0.005248
     4  Cl   0.285227  -0.034060  -0.050536  16.963170  -0.070281   0.000736
     5  Cl   0.313348  -0.042864  -0.048837  -0.070281  16.934989   0.006119
     6  H   -0.047948   0.439323  -0.005248   0.000736   0.006119   0.580835
     7  Cl  -0.034060   0.285227   0.000736   0.005823  -0.008633  -0.050536
     8  Cl  -0.042864   0.313348   0.006119  -0.008633  -0.009401  -0.048837
               7          8
     1  C   -0.034060  -0.042864
     2  C    0.285227   0.313348
     3  H    0.000736   0.006119
     4  Cl   0.005823  -0.008633
     5  Cl  -0.008633  -0.009401
     6  H   -0.050536  -0.048837
     7  Cl  16.963170  -0.070281
     8  Cl  -0.070281  16.934989
 Mulliken charges:
               1
     1  C    0.040330
     2  C    0.040330
     3  H    0.125557
     4  Cl  -0.091447
     5  Cl  -0.074441
     6  H    0.125557
     7  Cl  -0.091447
     8  Cl  -0.074441
 Sum of Mulliken charges =  -0.00000
 Mulliken charges with hydrogens summed into heavy atoms:
               1
     1  C    0.165888
     2  C    0.165888
     4  Cl  -0.091447
     5  Cl  -0.074441
     7  Cl  -0.091447
     8  Cl  -0.074441
 Electronic spatial extent (au):  <R**2>=           1273.2388
 Charge=             -0.0000 electrons
 Dipole moment (field-independent basis, Debye):
    X=             -0.0000    Y=             -0.0000    Z=             -1.7355  Tot=              1.7355
 Quadrupole moment (field-independent basis, Debye-Ang):
   XX=            -63.1428   YY=            -65.4699   ZZ=            -60.6869
   XY=              1.1337   XZ=             -0.0000   YZ=             -0.0000
 Traceless Quadrupole moment (field-independent basis, Debye-Ang):
   XX=             -0.0429   YY=             -2.3700   ZZ=              2.4129
   XY=              1.1337   XZ=             -0.0000   YZ=             -0.0000
 Octapole moment (field-independent basis, Debye-Ang**2):
  XXX=              0.0000  YYY=             -0.0000  ZZZ=              2.8726  XYY=             -0.0000
  XXY=             -0.0000  XXZ=              0.7143  XZZ=              0.0000  YZZ=             -0.0000
  YYZ=              0.7781  XYZ=             -0.8004
 Hexadecapole moment (field-independent basis, Debye-Ang**3):
 XXXX=           -499.7449 YYYY=           -825.7997 ZZZZ=           -297.8044 XXXY=             38.4631
 XXXZ=             -0.0000 YYYX=             37.5176 YYYZ=              0.0000 ZZZX=             -0.0000
 ZZZY=             -0.0000 XXYY=           -208.2543 XXZZ=           -126.4391 YYZZ=           -185.8915
 XXYZ=              0.0000 YYXZ=             -0.0000 ZZXY=             26.1083
 N-N= 5.223625503861D+02 E-N=-5.603273956803D+03  KE= 1.916430193091D+03
 Symmetry A    KE= 9.595687626605D+02
 Symmetry B    KE= 9.568614304306D+02
 Calling FoFJK, ICntrl=      2127 FMM=F ISym2X=1 I1Cent= 0 IOpClX= 0 NMat=1 NMatS=1 NMatT=0.
 ***** Axes restored to original set *****
 -------------------------------------------------------------------
 Center     Atomic                   Forces (Hartrees/Bohr)
 Number     Number              X              Y              Z
 -------------------------------------------------------------------
      1        6           0.000010949   -0.000065449    0.000019532
      2        6          -0.000010949    0.000065449    0.000019532
      3        1           0.000007236    0.000015988   -0.000013851
      4       17          -0.000037899    0.000029779   -0.000010341
      5       17           0.000010491    0.000015500    0.000004659
      6        1          -0.000007236   -0.000015988   -0.000013851
      7       17           0.000037899   -0.000029779   -0.000010341
      8       17          -0.000010491   -0.000015500    0.000004659
 -------------------------------------------------------------------
 Cartesian Forces:  Max     0.000065449 RMS     0.000025960

 GradGradGradGradGradGradGradGradGradGradGradGradGradGradGradGradGradGrad
 Berny optimization.
 FormGI is forming the generalized inverse of G from B-inverse, IUseBI=4.
 Internal  Forces:  Max     0.000047307 RMS     0.000017219
 Search for a local minimum.
 Step number   1 out of a maximum of   38
 All quantities printed in internal units (Hartrees-Bohrs-Radians)
 Mixed Optimization -- En-DIIS/RFO-DIIS
 Second derivative matrix not updated -- first step.
 ITU=  0
     Eigenvalues ---    0.00363   0.06151   0.06151   0.06793   0.06793
     Eigenvalues ---    0.16000   0.16000   0.23592   0.23592   0.24325
     Eigenvalues ---    0.24325   0.26664   0.26664   0.27971   0.27971
     Eigenvalues ---    0.29381   0.35521   0.35521
 RFO step:  Lambda=-3.93712020D-08 EMin= 3.63083730D-03
 Linear search not attempted -- first point.
 Iteration  1 RMS(Cart)=  0.00019588 RMS(Int)=  0.00000002
 Iteration  2 RMS(Cart)=  0.00000002 RMS(Int)=  0.00000000
 ClnCor:  largest displacement from symmetrization is 6.10D-12 for atom     7.
 Variable       Old X    -DE/DX   Delta X   Delta X   Delta X     New X
                                 (Linear)    (Quad)   (Total)
    R1        2.89214  -0.00001   0.00000  -0.00002  -0.00002   2.89212
    R2        2.04837   0.00002   0.00000   0.00005   0.00005   2.04842
    R3        3.38856   0.00005   0.00000   0.00018   0.00018   3.38874
    R4        3.35902   0.00001   0.00000   0.00005   0.00005   3.35907
    R5        2.04837   0.00002   0.00000   0.00005   0.00005   2.04842
    R6        3.38856   0.00005   0.00000   0.00018   0.00018   3.38874
    R7        3.35902   0.00001   0.00000   0.00005   0.00005   3.35907
    A1        1.89272   0.00001   0.00000   0.00003   0.00003   1.89275
    A2        1.91193   0.00001   0.00000   0.00004   0.00004   1.91198
    A3        1.98450   0.00002   0.00000   0.00013   0.00013   1.98462
    A4        1.85661  -0.00001   0.00000  -0.00012  -0.00012   1.85648
    A5        1.86664  -0.00002   0.00000  -0.00010  -0.00010   1.86654
    A6        1.94574  -0.00001   0.00000   0.00001   0.00001   1.94575
    A7        1.89272   0.00001   0.00000   0.00003   0.00003   1.89275
    A8        1.91193   0.00001   0.00000   0.00004   0.00004   1.91198
    A9        1.98450   0.00002   0.00000   0.00013   0.00013   1.98462
   A10        1.85661  -0.00001   0.00000  -0.00012  -0.00012   1.85648
   A11        1.86664  -0.00002   0.00000  -0.00010  -0.00010   1.86654
   A12        1.94574  -0.00001   0.00000   0.00001   0.00001   1.94575
    D1       -1.14138   0.00001   0.00000   0.00028   0.00028  -1.14109
    D2        0.87811  -0.00000   0.00000   0.00017   0.00017   0.87828
    D3        3.06799   0.00001   0.00000   0.00031   0.00031   3.06830
    D4        0.87811  -0.00000   0.00000   0.00017   0.00017   0.87828
    D5        2.89759  -0.00001   0.00000   0.00006   0.00006   2.89766
    D6       -1.19572  -0.00000   0.00000   0.00020   0.00020  -1.19551
    D7        3.06799   0.00001   0.00000   0.00031   0.00031   3.06830
    D8       -1.19572  -0.00000   0.00000   0.00020   0.00020  -1.19551
    D9        0.99416   0.00001   0.00000   0.00034   0.00034   0.99450
         Item               Value     Threshold  Converged?
 Maximum Force            0.000047     0.000450     YES
 RMS     Force            0.000017     0.000300     YES
 Maximum Displacement     0.000485     0.001800     YES
 RMS     Displacement     0.000196     0.001200     YES
 Predicted change in Energy=-1.968614D-08
 Optimization completed.
    -- Stationary point found.
                           ----------------------------
                           !   Optimized Parameters   !
                           ! (Angstroms and Degrees)  !
 --------------------------                            --------------------------
 ! Name  Definition              Value          Derivative Info.                !
 --------------------------------------------------------------------------------
 ! R1    R(1,2)                  1.5305         -DE/DX =    0.0                 !
 ! R2    R(1,3)                  1.084          -DE/DX =    0.0                 !
 ! R3    R(1,4)                  1.7931         -DE/DX =    0.0                 !
 ! R4    R(1,5)                  1.7775         -DE/DX =    0.0                 !
 ! R5    R(2,6)                  1.084          -DE/DX =    0.0                 !
 ! R6    R(2,7)                  1.7931         -DE/DX =    0.0                 !
 ! R7    R(2,8)                  1.7775         -DE/DX =    0.0                 !
 ! A1    A(2,1,3)              108.445          -DE/DX =    0.0                 !
 ! A2    A(2,1,4)              109.5457         -DE/DX =    0.0                 !
 ! A3    A(2,1,5)              113.7032         -DE/DX =    0.0                 !
 ! A4    A(3,1,4)              106.3757         -DE/DX =    0.0                 !
 ! A5    A(3,1,5)              106.9505         -DE/DX =    0.0                 !
 ! A6    A(4,1,5)              111.4829         -DE/DX =    0.0                 !
 ! A7    A(1,2,6)              108.445          -DE/DX =    0.0                 !
 ! A8    A(1,2,7)              109.5457         -DE/DX =    0.0                 !
 ! A9    A(1,2,8)              113.7032         -DE/DX =    0.0                 !
 ! A10   A(6,2,7)              106.3757         -DE/DX =    0.0                 !
 ! A11   A(6,2,8)              106.9505         -DE/DX =    0.0                 !
 ! A12   A(7,2,8)              111.4829         -DE/DX =    0.0                 !
 ! D1    D(3,1,2,6)            -65.396          -DE/DX =    0.0                 !
 ! D2    D(3,1,2,7)             50.3119         -DE/DX =    0.0                 !
 ! D3    D(3,1,2,8)            175.7826         -DE/DX =    0.0                 !
 ! D4    D(4,1,2,6)             50.3119         -DE/DX =    0.0                 !
 ! D5    D(4,1,2,7)            166.0198         -DE/DX =    0.0                 !
 ! D6    D(4,1,2,8)            -68.5095         -DE/DX =    0.0                 !
 ! D7    D(5,1,2,6)            175.7826         -DE/DX =    0.0                 !
 ! D8    D(5,1,2,7)            -68.5095         -DE/DX =    0.0                 !
 ! D9    D(5,1,2,8)             56.9612         -DE/DX =    0.0                 !
 --------------------------------------------------------------------------------
 GradGradGradGradGradGradGradGradGradGradGradGradGradGradGradGradGradGrad

                          Input orientation:                          
 ---------------------------------------------------------------------
 Center     Atomic      Atomic             Coordinates (Angstroms)
 Number     Number       Type             X           Y           Z
 ---------------------------------------------------------------------
      1          6           0        0.231072    0.729506   -0.486800
      2          6           0       -0.231072   -0.729506   -0.486800
      3          1           0        0.864183    0.888717   -1.352116
      4         17           0       -1.186737    1.807887   -0.692447
      5         17           0        1.186737    1.176348    0.943795
      6          1           0       -0.864183   -0.888717   -1.352116
      7         17           0        1.186737   -1.807887   -0.692447
      8         17           0       -1.186737   -1.176348    0.943795
 ---------------------------------------------------------------------
                    Distance matrix (angstroms):
                    1          2          3          4          5
     1  C    0.000000
     2  C    1.530455   0.000000
     3  H    1.083951   2.137054   0.000000
     4  Cl   1.793148   2.719182   2.342287   0.000000
     5  Cl   1.777517   2.772916   2.336232   2.951188   0.000000
     6  H    2.137054   1.083951   2.479218   2.794795   3.707017
     7  Cl   2.719182   1.793148   2.794795   4.325182   3.403373
     8  Cl   2.772916   1.777517   3.707017   3.403373   3.341939
                    6          7          8
     6  H    0.000000
     7  Cl   2.342287   0.000000
     8  Cl   2.336232   2.951188   0.000000
 Stoichiometry    C2H2Cl4
 Framework group  C2[X(C2H2Cl4)]
 Deg. of freedom    10
 Full point group                 C2      NOp   2
 Largest Abelian subgroup         C2      NOp   2
 Largest concise Abelian subgroup C2      NOp   2
                         Standard orientation:                         
 ---------------------------------------------------------------------
 Center     Atomic      Atomic             Coordinates (Angstroms)
 Number     Number       Type             X           Y           Z
 ---------------------------------------------------------------------
      1          6           0        0.231072    0.729506   -0.486800
      2          6           0       -0.231072   -0.729506   -0.486800
      3          1           0        0.864183    0.888717   -1.352116
      4         17           0       -1.186737    1.807887   -0.692447
      5         17           0        1.186737    1.176348    0.943795
      6          1           0       -0.864183   -0.888717   -1.352116
      7         17           0        1.186737   -1.807887   -0.692447
      8         17           0       -1.186737   -1.176348    0.943795
 ---------------------------------------------------------------------
 Rotational constants (GHZ):           1.7384769           1.1008162           0.9367344
 1\1\GINC-GAMBA\FOpt\RB3LYP\Gen\C2H2Cl4\IRIKURA\29-Sep-2023\0\\# b3lyp/
 gen opt freq CPHF(Grid=OneStep)\\1,1,2,2-tetrachloroethane, B3LYP/pcse
 g-2\\0,1\C,0.231072,0.729506,-0.4868\C,-0.231072,-0.729506,-0.4868\H,0
 .864183,0.888717,-1.352116\Cl,-1.186737,1.807887,-0.692447\Cl,1.186737
 ,1.176348,0.943795\H,-0.864183,-0.888717,-1.352116\Cl,1.186737,-1.8078
 87,-0.692447\Cl,-1.186737,-1.176348,0.943795\\Version=ES64L-G16RevB.01
 \State=1-A\HF=-1918.3823512\RMSD=4.758e-09\RMSF=2.596e-05\Dipole=0.,0.
 ,-0.6828049\Quadrupole=-0.0319106,-1.7620457,1.7939563,0.8429132,0.,0.
 \PG=C02 [X(C2H2Cl4)]\\@


 IF YOU GIVE A BOY AND A PIG EVERYTHING THEY WANT,
 YOU'LL GET A BAD BOY AND A GOOD PIG.
 Job cpu time:       0 days  0 hours  1 minutes 44.7 seconds.
 Elapsed time:       0 days  0 hours  0 minutes 27.3 seconds.
 File lengths (MBytes):  RWF=     26 Int=      0 D2E=      0 Chk=      5 Scr=      1
 Normal termination of Gaussian 16 at Fri Sep 29 22:58:23 2023.
 Link1:  Proceeding to internal job step number  2.
 ------------------------------------------------------------------
 #N Geom=AllCheck Guess=TCheck SCRF=Check GenChk RB3LYP/ChkBas Freq
 ------------------------------------------------------------------
 1/10=4,29=7,30=1,38=1,40=1/1,3;
 2/12=2,40=1/2;
 3/5=7,6=2,11=2,14=-4,25=1,30=1,67=1,70=2,71=2,74=-5,82=7,116=1,140=1/1,2,3;
 4/5=101/1;
 5/5=2,38=6,98=1/2;
 8/6=4,10=90,11=11/1;
 11/6=1,8=1,9=11,15=111,16=1/1,2,10;
 10/6=1,60=-420/2;
 6/7=2,8=2,9=2,10=2,28=1/1;
 7/8=1,10=1,25=1/1,2,3,16;
 1/10=4,30=1/3;
 99//99;
 Structure from the checkpoint file:  "chcl2chcl2.chk"
 ----------------------------------------
 1,1,2,2-tetrachloroethane, B3LYP/pcseg-2
 ----------------------------------------
 Charge =  0 Multiplicity = 1
 Redundant internal coordinates found in file.  (old form).
 C,0,0.231072,0.729506,-0.4868
 C,0,-0.231072,-0.729506,-0.4868
 H,0,0.864183,0.888717,-1.352116
 Cl,0,-1.186737,1.807887,-0.692447
 Cl,0,1.186737,1.176348,0.943795
 H,0,-0.864183,-0.888717,-1.352116
 Cl,0,1.186737,-1.807887,-0.692447
 Cl,0,-1.186737,-1.176348,0.943795
 Recover connectivity data from disk.

 GradGradGradGradGradGradGradGradGradGradGradGradGradGradGradGradGradGrad
 Berny optimization.
 Initialization pass.
                           ----------------------------
                           !    Initial Parameters    !
                           ! (Angstroms and Degrees)  !
 --------------------------                            --------------------------
 ! Name  Definition              Value          Derivative Info.                !
 --------------------------------------------------------------------------------
 ! R1    R(1,2)                  1.5305         calculate D2E/DX2 analytically  !
 ! R2    R(1,3)                  1.084          calculate D2E/DX2 analytically  !
 ! R3    R(1,4)                  1.7931         calculate D2E/DX2 analytically  !
 ! R4    R(1,5)                  1.7775         calculate D2E/DX2 analytically  !
 ! R5    R(2,6)                  1.084          calculate D2E/DX2 analytically  !
 ! R6    R(2,7)                  1.7931         calculate D2E/DX2 analytically  !
 ! R7    R(2,8)                  1.7775         calculate D2E/DX2 analytically  !
 ! A1    A(2,1,3)              108.445          calculate D2E/DX2 analytically  !
 ! A2    A(2,1,4)              109.5457         calculate D2E/DX2 analytically  !
 ! A3    A(2,1,5)              113.7032         calculate D2E/DX2 analytically  !
 ! A4    A(3,1,4)              106.3757         calculate D2E/DX2 analytically  !
 ! A5    A(3,1,5)              106.9505         calculate D2E/DX2 analytically  !
 ! A6    A(4,1,5)              111.4829         calculate D2E/DX2 analytically  !
 ! A7    A(1,2,6)              108.445          calculate D2E/DX2 analytically  !
 ! A8    A(1,2,7)              109.5457         calculate D2E/DX2 analytically  !
 ! A9    A(1,2,8)              113.7032         calculate D2E/DX2 analytically  !
 ! A10   A(6,2,7)              106.3757         calculate D2E/DX2 analytically  !
 ! A11   A(6,2,8)              106.9505         calculate D2E/DX2 analytically  !
 ! A12   A(7,2,8)              111.4829         calculate D2E/DX2 analytically  !
 ! D1    D(3,1,2,6)            -65.396          calculate D2E/DX2 analytically  !
 ! D2    D(3,1,2,7)             50.3119         calculate D2E/DX2 analytically  !
 ! D3    D(3,1,2,8)            175.7826         calculate D2E/DX2 analytically  !
 ! D4    D(4,1,2,6)             50.3119         calculate D2E/DX2 analytically  !
 ! D5    D(4,1,2,7)            166.0198         calculate D2E/DX2 analytically  !
 ! D6    D(4,1,2,8)            -68.5095         calculate D2E/DX2 analytically  !
 ! D7    D(5,1,2,6)            175.7826         calculate D2E/DX2 analytically  !
 ! D8    D(5,1,2,7)            -68.5095         calculate D2E/DX2 analytically  !
 ! D9    D(5,1,2,8)             56.9612         calculate D2E/DX2 analytically  !
 --------------------------------------------------------------------------------
 Trust Radius=3.00D-01 FncErr=1.00D-07 GrdErr=1.00D-07 EigMax=2.50D+02 EigMin=1.00D-04
 Number of steps in this run=      2 maximum allowed number of steps=      2.
 GradGradGradGradGradGradGradGradGradGradGradGradGradGradGradGradGradGrad

                          Input orientation:                          
 ---------------------------------------------------------------------
 Center     Atomic      Atomic             Coordinates (Angstroms)
 Number     Number       Type             X           Y           Z
 ---------------------------------------------------------------------
      1          6           0        0.231072    0.729506   -0.486800
      2          6           0       -0.231072   -0.729506   -0.486800
      3          1           0        0.864183    0.888717   -1.352116
      4         17           0       -1.186737    1.807887   -0.692447
      5         17           0        1.186737    1.176348    0.943795
      6          1           0       -0.864183   -0.888717   -1.352116
      7         17           0        1.186737   -1.807887   -0.692447
      8         17           0       -1.186737   -1.176348    0.943795
 ---------------------------------------------------------------------
                    Distance matrix (angstroms):
                    1          2          3          4          5
     1  C    0.000000
     2  C    1.530455   0.000000
     3  H    1.083951   2.137054   0.000000
     4  Cl   1.793148   2.719182   2.342287   0.000000
     5  Cl   1.777517   2.772916   2.336232   2.951188   0.000000
     6  H    2.137054   1.083951   2.479218   2.794795   3.707017
     7  Cl   2.719182   1.793148   2.794795   4.325182   3.403373
     8  Cl   2.772916   1.777517   3.707017   3.403373   3.341939
                    6          7          8
     6  H    0.000000
     7  Cl   2.342287   0.000000
     8  Cl   2.336232   2.951188   0.000000
 Stoichiometry    C2H2Cl4
 Framework group  C2[X(C2H2Cl4)]
 Deg. of freedom    10
 Full point group                 C2      NOp   2
 Largest Abelian subgroup         C2      NOp   2
 Largest concise Abelian subgroup C2      NOp   2
                         Standard orientation:                         
 ---------------------------------------------------------------------
 Center     Atomic      Atomic             Coordinates (Angstroms)
 Number     Number       Type             X           Y           Z
 ---------------------------------------------------------------------
      1          6           0        0.231072    0.729506   -0.486800
      2          6           0       -0.231072   -0.729506   -0.486800
      3          1           0        0.864183    0.888717   -1.352116
      4         17           0       -1.186737    1.807887   -0.692447
      5         17           0        1.186737    1.176348    0.943795
      6          1           0       -0.864183   -0.888717   -1.352116
      7         17           0        1.186737   -1.807887   -0.692447
      8         17           0       -1.186737   -1.176348    0.943795
 ---------------------------------------------------------------------
 Rotational constants (GHZ):           1.7384769           1.1008162           0.9367344
 Basis read from chk: "chcl2chcl2.chk" (5D, 7F)
 There are   128 symmetry adapted cartesian basis functions of A   symmetry.
 There are   128 symmetry adapted cartesian basis functions of B   symmetry.
 There are   112 symmetry adapted basis functions of A   symmetry.
 There are   112 symmetry adapted basis functions of B   symmetry.
   224 basis functions,   418 primitive gaussians,   256 cartesian basis functions
    41 alpha electrons       41 beta electrons
       nuclear repulsion energy       522.3625503861 Hartrees.
 NAtoms=    8 NActive=    8 NUniq=    4 SFac= 4.00D+00 NAtFMM=   60 NAOKFM=F Big=F
 Integral buffers will be    131072 words long.
 Raffenetti 2 integral format.
 Two-electron integral symmetry is turned on.
 One-electron integrals computed using PRISM.
 NBasis=   224 RedAO= T EigKep=  6.52D-04  NBF=   112   112
 NBsUse=   224 1.00D-06 EigRej= -1.00D+00 NBFU=   112   112
 Initial guess from the checkpoint file:  "chcl2chcl2.chk"
 B after Tr=    -0.000000   -0.000000    0.000000
         Rot=    1.000000    0.000000    0.000000    0.000000 Ang=   0.00 deg.
 Initial guess orbital symmetries:
       Occupied  (B) (A) (A) (B) (A) (B) (A) (B) (B) (A) (B) (A)
                 (B) (A) (A) (B) (B) (A) (A) (B) (A) (B) (A) (B)
                 (B) (A) (A) (B) (A) (B) (A) (B) (A) (B) (A) (B)
                 (A) (B) (A) (B) (A)
       Virtual   (A) (B) (A) (B) (A) (B) (B) (A) (B) (A) (B) (A)
                 (B) (A) (B) (A) (B) (A) (B) (B) (A) (A) (B) (A)
                 (B) (A) (B) (A) (B) (A) (B) (A) (B) (A) (B) (A)
                 (B) (A) (A) (B) (A) (B) (A) (B) (A) (B) (B) (B)
                 (A) (A) (B) (A) (B) (A) (A) (B) (B) (B) (B) (A)
                 (A) (B) (A) (A) (B) (A) (B) (B) (A) (A) (B) (B)
                 (A) (A) (B) (A) (B) (A) (A) (B) (B) (B) (A) (A)
                 (B) (A) (A) (B) (B) (A) (B) (A) (A) (B) (B) (A)
                 (B) (B) (A) (B) (A) (A) (B) (A) (B) (A) (B) (A)
                 (B) (A) (B) (B) (A) (A) (A) (B) (B) (A) (B) (A)
                 (A) (B) (A) (B) (A) (B) (B) (A) (B) (B) (A) (A)
                 (B) (A) (B) (A) (B) (A) (B) (A) (A) (B) (A) (B)
                 (B) (A) (B) (A) (A) (B) (A) (A) (B) (B) (B) (A)
                 (B) (B) (A) (B) (A) (B) (A) (A) (B) (B) (A) (A)
                 (B) (A) (B) (A) (B) (A) (B) (A) (B) (A) (B) (A)
                 (B) (B) (A)
 Keep R1 ints in memory in symmetry-blocked form, NReq=476362235.
 Requested convergence on RMS density matrix=1.00D-08 within 128 cycles.
 Requested convergence on MAX density matrix=1.00D-06.
 Requested convergence on             energy=1.00D-06.
 No special actions if energy rises.
 SCF Done:  E(RB3LYP) =  -1918.38235124     A.U. after    1 cycles
            NFock=  1  Conv=0.20D-08     -V/T= 2.0010
 DoSCS=F DFT=T ScalE2(SS,OS)=  1.000000  1.000000
 Range of M.O.s used for correlation:     1   224
 NBasis=   224 NAE=    41 NBE=    41 NFC=     0 NFV=     0
 NROrb=    224 NOA=    41 NOB=    41 NVA=   183 NVB=   183

 **** Warning!!: The largest alpha MO coefficient is  0.11868532D+02

 Symmetrizing basis deriv contribution to polar:
 IMax=3 JMax=2 DiffMx= 0.00D+00
 G2DrvN: will do     9 centers at a time, making    1 passes.
 Calling FoFCou, ICntrl=  3107 FMM=F I1Cent=   0 AccDes= 0.00D+00.
 End of G2Drv F.D. properties file   721 does not exist.
 End of G2Drv F.D. properties file   722 does not exist.
 End of G2Drv F.D. properties file   788 does not exist.
          IDoAtm=11111111
          Differentiating once with respect to electric field.
                with respect to dipole field.
          Differentiating once with respect to nuclear coordinates.
 Keep R1 ints in memory in symmetry-blocked form, NReq=476367296.
          There are    15 degrees of freedom in the 1st order CPHF.  IDoFFX=4 NUNeed=    15.
     15 vectors produced by pass  0 Test12= 5.00D-14 6.67D-09 XBig12= 6.39D+01 2.76D+00.
 AX will form    15 AO Fock derivatives at one time.
     15 vectors produced by pass  1 Test12= 5.00D-14 6.67D-09 XBig12= 1.04D+01 6.17D-01.
     15 vectors produced by pass  2 Test12= 5.00D-14 6.67D-09 XBig12= 5.43D-01 1.37D-01.
     15 vectors produced by pass  3 Test12= 5.00D-14 6.67D-09 XBig12= 2.49D-02 1.88D-02.
     15 vectors produced by pass  4 Test12= 5.00D-14 6.67D-09 XBig12= 5.16D-04 3.98D-03.
     15 vectors produced by pass  5 Test12= 5.00D-14 6.67D-09 XBig12= 4.02D-06 2.57D-04.
     15 vectors produced by pass  6 Test12= 5.00D-14 6.67D-09 XBig12= 1.76D-08 1.98D-05.
      5 vectors produced by pass  7 Test12= 5.00D-14 6.67D-09 XBig12= 1.11D-10 1.42D-06.
      3 vectors produced by pass  8 Test12= 5.00D-14 6.67D-09 XBig12= 5.63D-13 9.32D-08.
 InvSVY:  IOpt=1 It=  1 EMax= 5.33D-15
 Solved reduced A of dimension   113 with    15 vectors.
 Isotropic polarizability for W=    0.000000       69.98 Bohr**3.
 End of Minotr F.D. properties file   721 does not exist.
 End of Minotr F.D. properties file   722 does not exist.
 End of Minotr F.D. properties file   788 does not exist.

 **********************************************************************

            Population analysis using the SCF Density.

 **********************************************************************

 Orbital symmetries:
       Occupied  (B) (A) (A) (B) (A) (B) (A) (B) (B) (A) (B) (A)
                 (B) (A) (A) (B) (B) (A) (A) (B) (A) (B) (A) (B)
                 (B) (A) (A) (B) (A) (B) (A) (B) (A) (B) (A) (B)
                 (A) (B) (A) (B) (A)
       Virtual   (A) (B) (A) (B) (A) (B) (B) (A) (B) (A) (B) (A)
                 (B) (A) (B) (A) (B) (A) (B) (B) (A) (A) (B) (A)
                 (B) (A) (B) (A) (B) (A) (B) (A) (B) (A) (B) (A)
                 (B) (A) (A) (B) (A) (B) (A) (B) (A) (B) (B) (B)
                 (A) (A) (B) (A) (B) (A) (A) (B) (B) (B) (B) (A)
                 (A) (B) (A) (A) (B) (A) (B) (B) (A) (A) (B) (B)
                 (A) (A) (B) (A) (B) (A) (A) (B) (B) (B) (A) (A)
                 (B) (A) (A) (B) (B) (A) (B) (A) (A) (B) (B) (A)
                 (B) (B) (A) (B) (A) (A) (B) (A) (B) (A) (B) (A)
                 (B) (A) (B) (B) (A) (A) (A) (B) (B) (A) (B) (A)
                 (A) (B) (A) (B) (A) (B) (B) (A) (B) (B) (A) (A)
                 (B) (A) (B) (A) (B) (A) (B) (A) (A) (B) (A) (B)
                 (B) (A) (B) (A) (A) (B) (A) (A) (B) (B) (B) (A)
                 (B) (B) (A) (B) (A) (B) (A) (A) (B) (B) (A) (A)
                 (B) (A) (B) (A) (B) (A) (B) (A) (B) (A) (B) (A)
                 (B) (B) (A)
 The electronic state is 1-A.
 Alpha  occ. eigenvalues -- -101.53678-101.53678-101.53400-101.53400 -10.32849
 Alpha  occ. eigenvalues --  -10.32826  -9.48197  -9.48197  -9.47921  -9.47920
 Alpha  occ. eigenvalues --   -7.24393  -7.24393  -7.24130  -7.24130  -7.23463
 Alpha  occ. eigenvalues --   -7.23463  -7.23432  -7.23432  -7.23177  -7.23177
 Alpha  occ. eigenvalues --   -7.23150  -7.23150  -0.95524  -0.89797  -0.84917
 Alpha  occ. eigenvalues --   -0.84288  -0.73386  -0.62896  -0.53716  -0.50815
 Alpha  occ. eigenvalues --   -0.49304  -0.45057  -0.44404  -0.36452  -0.35202
 Alpha  occ. eigenvalues --   -0.34435  -0.34343  -0.32932  -0.32829  -0.32572
 Alpha  occ. eigenvalues --   -0.32198
 Alpha virt. eigenvalues --   -0.03795  -0.03477  -0.00073   0.00529   0.03187
 Alpha virt. eigenvalues --    0.04846   0.08883   0.12049   0.15459   0.17943
 Alpha virt. eigenvalues --    0.19162   0.20939   0.22414   0.23053   0.24854
 Alpha virt. eigenvalues --    0.26852   0.27273   0.28465   0.29446   0.30015
 Alpha virt. eigenvalues --    0.30138   0.31232   0.34123   0.34541   0.35213
 Alpha virt. eigenvalues --    0.35747   0.37672   0.39520   0.40768   0.44124
 Alpha virt. eigenvalues --    0.44211   0.51194   0.52847   0.54531   0.54783
 Alpha virt. eigenvalues --    0.55074   0.58293   0.58953   0.62349   0.63536
 Alpha virt. eigenvalues --    0.64274   0.65236   0.66681   0.67093   0.69444
 Alpha virt. eigenvalues --    0.69650   0.74496   0.78126   0.79475   0.84557
 Alpha virt. eigenvalues --    0.87057   0.89188   0.92914   0.99066   1.03644
 Alpha virt. eigenvalues --    1.04779   1.05288   1.09231   1.10897   1.13814
 Alpha virt. eigenvalues --    1.14703   1.20267   1.22712   1.30105   1.31520
 Alpha virt. eigenvalues --    1.32869   1.41987   1.50809   1.57429   1.70541
 Alpha virt. eigenvalues --    1.73911   1.81174   1.81359   1.83103   1.86405
 Alpha virt. eigenvalues --    1.89705   2.03055   2.04181   2.06314   2.06538
 Alpha virt. eigenvalues --    2.08274   2.09061   2.09117   2.09504   2.09508
 Alpha virt. eigenvalues --    2.09881   2.10008   2.10200   2.11112   2.11195
 Alpha virt. eigenvalues --    2.12223   2.12762   2.13319   2.14164   2.15492
 Alpha virt. eigenvalues --    2.16676   2.16812   2.18432   2.18866   2.20474
 Alpha virt. eigenvalues --    2.21129   2.22575   2.24079   2.26398   2.28241
 Alpha virt. eigenvalues --    2.29935   2.30768   2.34681   2.38412   2.43973
 Alpha virt. eigenvalues --    2.47357   2.50758   2.51811   2.55395   2.57309
 Alpha virt. eigenvalues --    2.58874   2.69697   2.76174   3.13329   3.13864
 Alpha virt. eigenvalues --    3.17309   3.17792   3.20927   3.26807   3.30505
 Alpha virt. eigenvalues --    3.36334   3.41280   3.45029   3.48839   3.49666
 Alpha virt. eigenvalues --    3.49851   3.50174   3.50519   3.52272   3.54775
 Alpha virt. eigenvalues --    3.59321   3.61283   3.62363   3.68682   3.73861
 Alpha virt. eigenvalues --    3.80403   3.83399   3.83642   3.84083   3.87439
 Alpha virt. eigenvalues --    3.87950   4.02163   4.04303   4.11223   4.11523
 Alpha virt. eigenvalues --    4.23338   4.24582   4.25815   4.31196   4.37834
 Alpha virt. eigenvalues --    4.40303   4.42242   4.48083   4.53686   4.59979
 Alpha virt. eigenvalues --    4.63730   4.64966   4.69597   4.82322   4.89455
 Alpha virt. eigenvalues --    4.96820   5.02694   5.16519   5.24337   5.28070
 Alpha virt. eigenvalues --    5.40801   5.43499   5.54207   5.56708   5.58237
 Alpha virt. eigenvalues --    5.68072   5.71229   5.83190   6.16280  32.69348
 Alpha virt. eigenvalues --   32.88442  33.10272  33.18811
          Condensed to atoms (all electrons):
               1          2          3          4          5          6
     1  C    4.802310   0.244333   0.439323   0.285227   0.313348  -0.047948
     2  C    0.244333   4.802310  -0.047948  -0.034060  -0.042864   0.439323
     3  H    0.439323  -0.047948   0.580834  -0.050536  -0.048837  -0.005248
     4  Cl   0.285227  -0.034060  -0.050536  16.963170  -0.070281   0.000736
     5  Cl   0.313348  -0.042864  -0.048837  -0.070281  16.934990   0.006119
     6  H   -0.047948   0.439323  -0.005248   0.000736   0.006119   0.580834
     7  Cl  -0.034060   0.285227   0.000736   0.005823  -0.008633  -0.050536
     8  Cl  -0.042864   0.313348   0.006119  -0.008633  -0.009401  -0.048837
               7          8
     1  C   -0.034060  -0.042864
     2  C    0.285227   0.313348
     3  H    0.000736   0.006119
     4  Cl   0.005823  -0.008633
     5  Cl  -0.008633  -0.009401
     6  H   -0.050536  -0.048837
     7  Cl  16.963170  -0.070281
     8  Cl  -0.070281  16.934990
 Mulliken charges:
               1
     1  C    0.040330
     2  C    0.040330
     3  H    0.125558
     4  Cl  -0.091447
     5  Cl  -0.074441
     6  H    0.125558
     7  Cl  -0.091447
     8  Cl  -0.074441
 Sum of Mulliken charges =  -0.00000
 Mulliken charges with hydrogens summed into heavy atoms:
               1
     1  C    0.165888
     2  C    0.165888
     4  Cl  -0.091447
     5  Cl  -0.074441
     7  Cl  -0.091447
     8  Cl  -0.074441
 APT charges:
               1
     1  C    0.612585
     2  C    0.612585
     3  H   -0.022062
     4  Cl  -0.324434
     5  Cl  -0.266089
     6  H   -0.022062
     7  Cl  -0.324434
     8  Cl  -0.266089
 Sum of APT charges =  -0.00000
 APT charges with hydrogens summed into heavy atoms:
               1
     1  C    0.590523
     2  C    0.590523
     4  Cl  -0.324434
     5  Cl  -0.266089
     7  Cl  -0.324434
     8  Cl  -0.266089
 Electronic spatial extent (au):  <R**2>=           1273.2388
 Charge=              0.0000 electrons
 Dipole moment (field-independent basis, Debye):
    X=              0.0000    Y=              0.0000    Z=             -1.7355  Tot=              1.7355
 Quadrupole moment (field-independent basis, Debye-Ang):
   XX=            -63.1428   YY=            -65.4699   ZZ=            -60.6869
   XY=              1.1337   XZ=              0.0000   YZ=             -0.0000
 Traceless Quadrupole moment (field-independent basis, Debye-Ang):
   XX=             -0.0429   YY=             -2.3700   ZZ=              2.4129
   XY=              1.1337   XZ=              0.0000   YZ=             -0.0000
 Octapole moment (field-independent basis, Debye-Ang**2):
  XXX=             -0.0000  YYY=              0.0000  ZZZ=              2.8726  XYY=             -0.0000
  XXY=              0.0000  XXZ=              0.7143  XZZ=             -0.0000  YZZ=             -0.0000
  YYZ=              0.7781  XYZ=             -0.8004
 Hexadecapole moment (field-independent basis, Debye-Ang**3):
 XXXX=           -499.7449 YYYY=           -825.7997 ZZZZ=           -297.8044 XXXY=             38.4631
 XXXZ=             -0.0000 YYYX=             37.5176 YYYZ=             -0.0000 ZZZX=             -0.0000
 ZZZY=             -0.0000 XXYY=           -208.2543 XXZZ=           -126.4391 YYZZ=           -185.8915
 XXYZ=              0.0000 YYXZ=              0.0000 ZZXY=             26.1083
 N-N= 5.223625503861D+02 E-N=-5.603273964013D+03  KE= 1.916430195681D+03
 Symmetry A    KE= 9.595687639744D+02
 Symmetry B    KE= 9.568614317062D+02
  Exact polarizability:  75.003  -8.208  71.589   0.000   0.000  63.341
 Approx polarizability: 119.455 -15.014 100.315   0.000  -0.000 102.930
 Calling FoFJK, ICntrl=    100127 FMM=F ISym2X=1 I1Cent= 0 IOpClX= 0 NMat=1 NMatS=1 NMatT=0.
 Full mass-weighted force constant matrix:
 Low frequencies ---   -8.1223   -5.1104    0.0010    0.0011    0.0047    3.4741
 Low frequencies ---   72.1032  165.3616  170.0477
 Diagonal vibrational polarizability:
        9.5875367       4.9926996       7.1388018
 Harmonic frequencies (cm**-1), IR intensities (KM/Mole), Raman scattering
 activities (A**4/AMU), depolarization ratios for plane and unpolarized
 incident light, reduced masses (AMU), force constants (mDyne/A),
 and normal coordinates:
                      1                      2                      3
                      A                      B                      A
 Frequencies --     72.1030               165.3615               170.0477
 Red. masses --     24.5189                21.5548                29.4841
 Frc consts  --      0.0751                 0.3473                 0.5023
 IR Inten    --      0.3966                 1.0252                 0.1345
  Atom  AN      X      Y      Z        X      Y      Z        X      Y      Z
     1   6    -0.05   0.01  -0.10    -0.24  -0.07  -0.08     0.04   0.01   0.18
     2   6     0.05  -0.01  -0.10    -0.24  -0.07   0.08    -0.04  -0.01   0.18
     3   1    -0.27   0.11  -0.25    -0.24  -0.28  -0.12     0.01  -0.21   0.11
     4  17    -0.16  -0.06   0.35     0.10   0.34  -0.15     0.17   0.15  -0.01
     5  17     0.30  -0.03  -0.31    -0.01  -0.31  -0.18     0.15   0.57  -0.06
     6   1     0.27  -0.11  -0.25    -0.24  -0.28   0.12    -0.01   0.21   0.11
     7  17     0.16   0.06   0.35     0.10   0.34   0.15    -0.17  -0.15  -0.01
     8  17    -0.30   0.03  -0.31    -0.01  -0.31   0.18    -0.15  -0.57  -0.06
                      4                      5                      6
                      A                      B                      A
 Frequencies --    233.2002               285.0688               347.2392
 Red. masses --     24.5555                17.6391                23.2032
 Frc consts  --      0.7868                 0.8446                 1.6484
 IR Inten    --      0.1731                 1.6103                 0.4607
  Atom  AN      X      Y      Z        X      Y      Z        X      Y      Z
     1   6    -0.08   0.05  -0.24    -0.03  -0.28  -0.09    -0.15   0.10   0.19
     2   6     0.08  -0.05  -0.24    -0.03  -0.28   0.09     0.15  -0.10   0.19
     3   1    -0.11   0.19  -0.24    -0.04  -0.43  -0.12    -0.25   0.21   0.15
     4  17     0.02   0.36   0.22     0.27  -0.01   0.21    -0.34   0.35  -0.16
     5  17    -0.36   0.01  -0.13    -0.26   0.12  -0.14     0.18  -0.04   0.09
     6   1     0.11  -0.19  -0.24    -0.04  -0.43   0.12     0.25  -0.21   0.15
     7  17    -0.02  -0.36   0.22     0.27  -0.01  -0.21     0.34  -0.35  -0.16
     8  17     0.36  -0.01  -0.13    -0.26   0.12   0.14    -0.18   0.04   0.09
                      7                      8                      9
                      B                      A                      B
 Frequencies --    544.4678               638.2674               714.0675
 Red. masses --      8.4197                 8.1745                 9.9760
 Frc consts  --      1.4706                 1.9621                 2.9970
 IR Inten    --     24.2564                31.4224               129.2974
  Atom  AN      X      Y      Z        X      Y      Z        X      Y      Z
     1   6     0.31   0.34  -0.13    -0.07  -0.08   0.46     0.41  -0.36  -0.08
     2   6     0.31   0.34   0.13     0.07   0.08   0.46     0.41  -0.36   0.08
     3   1     0.23   0.38  -0.19    -0.22  -0.30   0.32     0.28  -0.24  -0.16
     4  17    -0.00  -0.04   0.02     0.02  -0.01  -0.02    -0.14   0.12   0.00
     5  17    -0.11  -0.09  -0.11    -0.08  -0.05  -0.15    -0.01   0.01   0.02
     6   1     0.23   0.38   0.19     0.22   0.30   0.32     0.28  -0.24   0.16
     7  17    -0.00  -0.04  -0.02    -0.02   0.01  -0.02    -0.14   0.12  -0.00
     8  17    -0.11  -0.09   0.11     0.08   0.05  -0.15    -0.01   0.01  -0.02
                     10                     11                     12
                      A                      B                      A
 Frequencies --    775.6356               785.2435              1015.8107
 Red. masses --      6.2761                 5.5649                 4.1277
 Frc consts  --      2.2246                 2.0217                 2.5095
 IR Inten    --     48.3651                76.8726                11.8956
  Atom  AN      X      Y      Z        X      Y      Z        X      Y      Z
     1   6     0.43  -0.17   0.03     0.08  -0.03   0.42     0.15   0.33   0.07
     2   6    -0.43   0.17   0.03     0.08  -0.03  -0.42    -0.15  -0.33   0.07
     3   1     0.37  -0.37  -0.05     0.07   0.28   0.47     0.24   0.52   0.17
     4  17    -0.08   0.03   0.01    -0.00   0.01  -0.02     0.01  -0.01  -0.00
     5  17    -0.02   0.00  -0.02    -0.03  -0.00  -0.09    -0.01  -0.01  -0.03
     6   1    -0.37   0.37  -0.05     0.07   0.28  -0.47    -0.24  -0.52   0.17
     7  17     0.08  -0.03   0.01    -0.00   0.01   0.02    -0.01   0.01  -0.00
     8  17     0.02  -0.00  -0.02    -0.03  -0.00   0.09     0.01   0.01  -0.03
                     13                     14                     15
                      B                      A                      A
 Frequencies --   1219.8983              1235.1237              1262.6478
 Red. masses --      1.0542                 1.1232                 1.2164
 Frc consts  --      0.9243                 1.0095                 1.1426
 IR Inten    --     17.7556                 8.9652                 3.8329
  Atom  AN      X      Y      Z        X      Y      Z        X      Y      Z
     1   6    -0.02   0.03  -0.01    -0.04  -0.05  -0.02     0.03  -0.09   0.02
     2   6    -0.02   0.03   0.01     0.04   0.05  -0.02    -0.03   0.09   0.02
     3   1     0.51  -0.39   0.30     0.52   0.17   0.44    -0.25   0.65  -0.03
     4  17    -0.01   0.00   0.01    -0.00   0.00   0.00     0.01  -0.00  -0.00
     5  17     0.00  -0.00  -0.01     0.00   0.00  -0.01    -0.00   0.00  -0.00
     6   1     0.51  -0.39  -0.30    -0.52  -0.17   0.44     0.25  -0.65  -0.03
     7  17    -0.01   0.00  -0.01     0.00  -0.00   0.00    -0.01   0.00  -0.00
     8  17     0.00  -0.00   0.01    -0.00  -0.00  -0.01     0.00  -0.00  -0.00
                     16                     17                     18
                      B                      B                      A
 Frequencies --   1308.2741              3138.1263              3144.3553
 Red. masses --      1.1902                 1.0866                 1.0874
 Frc consts  --      1.2003                 6.3046                 6.3343
 IR Inten    --     20.2352                 6.4792                 0.0193
  Atom  AN      X      Y      Z        X      Y      Z        X      Y      Z
     1   6    -0.03  -0.05  -0.07     0.04   0.01  -0.05     0.03   0.01  -0.05
     2   6    -0.03  -0.05   0.07     0.04   0.01   0.05    -0.03  -0.01  -0.05
     3   1     0.27   0.58   0.29    -0.41  -0.11   0.56    -0.41  -0.12   0.56
     4  17     0.00   0.00   0.00    -0.00  -0.00   0.00     0.00  -0.00   0.00
     5  17     0.00  -0.00  -0.01    -0.00  -0.00  -0.00    -0.00   0.00   0.00
     6   1     0.27   0.58  -0.29    -0.41  -0.11  -0.56     0.41   0.12   0.56
     7  17     0.00   0.00  -0.00    -0.00  -0.00  -0.00    -0.00   0.00   0.00
     8  17     0.00  -0.00   0.01    -0.00  -0.00   0.00     0.00  -0.00   0.00

 -------------------
 - Thermochemistry -
 -------------------
 Temperature   298.150 Kelvin.  Pressure   1.00000 Atm.
 Atom     1 has atomic number  6 and mass  12.00000
 Atom     2 has atomic number  6 and mass  12.00000
 Atom     3 has atomic number  1 and mass   1.00783
 Atom     4 has atomic number 17 and mass  34.96885
 Atom     5 has atomic number 17 and mass  34.96885
 Atom     6 has atomic number  1 and mass   1.00783
 Atom     7 has atomic number 17 and mass  34.96885
 Atom     8 has atomic number 17 and mass  34.96885
 Molecular mass:   165.89106 amu.
 Principal axes and moments of inertia in atomic units:
                           1         2         3
     Eigenvalues --  1038.116271639.457411926.63073
           X           -0.29060   0.95685   0.00000
           Y            0.95685   0.29060   0.00000
           Z            0.00000   0.00000   1.00000
 This molecule is an asymmetric top.
 Rotational symmetry number  2.
[...]
                 (A) (A) (A) (A) (A) (A) (A) (A) (A) (A) (A) (A)
                 (A) (A) (A) (A) (A) (A) (A) (A) (A) (A) (A) (A)
                 (A) (A) (A) (A) (A) (A) (A) (A) (A) (A) (A) (A)
                 (A) (A) (A) (A) (A) (A) (A) (A) (A) (A) (A) (A)
                 (A) (A) (A) (A) (A) (A) (A) (A) (A) (A) (A) (A)
                 (A) (A) (A) (A) (A) (A) (A) (A) (A) (A) (A) (A)
                 (A) (A) (B) (B) (B) (B) (B) (B) (B) (B) (B) (B)
                 (B) (B) (B) (B) (B) (B) (B) (B) (B) (B) (B) (B)
                 (B) (B) (B) (B) (B) (B) (B) (B) (B) (B) (B) (B)
                 (B) (B) (B) (B) (B) (B) (B) (B) (B) (B) (B) (B)
                 (B) (B) (B) (B) (B) (B) (B) (B) (B) (B) (B) (B)
                 (B) (B) (B) (B) (B) (B) (B) (B) (B) (B) (B) (B)
                 (B) (B) (B) (B) (B) (B) (B) (B) (B) (B) (B) (B)
                 (B)
 Requested convergence on RMS density matrix=1.00D-08 within 128 cycles.
 Requested convergence on MAX density matrix=1.00D-06.
 Requested convergence on             energy=1.00D-06.
 No special actions if energy rises.
 SCF Done:  E(ROHF) =  -1915.00611274     A.U. after   11 cycles
            NFock= 11  Conv=0.43D-08     -V/T= 2.0001
 <Sx>= 0.0000 <Sy>= 0.0000 <Sz>= 0.0000 <S**2>=-0.0000 S=-0.0000
 <L.S>=  0.00000000000    
 Annihilation of the first spin contaminant:
 S**2 before annihilation    -0.0000,   after    -0.0000

 **********************************************************************

            Population analysis using the SCF Density.

 **********************************************************************

 Orbital symmetries:
       Occupied  (A) (B) (B) (A) (A) (B) (A) (B) (B) (A) (A) (B)
                 (B) (A) (A) (B) (B) (A) (A) (B) (A) (B) (A) (B)
                 (B) (A) (A) (B) (A) (B) (A) (B) (A) (B) (A) (B)
                 (A) (B) (A) (B) (A)
       Virtual   (A) (A) (B) (B) (B) (A) (A) (A) (B) (B) (A) (B)
                 (A) (B) (A) (A) (B) (B) (A) (B) (B) (A) (A) (B)
                 (A) (B) (A) (B) (B) (A) (B) (A) (B) (A) (A) (B)
                 (B) (B) (A) (A) (A) (B) (A) (A) (B) (B) (A) (A)
                 (B) (A) (A) (B) (B) (B) (B) (B) (A) (A) (B) (A)
                 (B) (A) (B) (A) (A) (B) (B) (A) (B) (A) (B) (A)
                 (B) (A) (A) (B) (B) (A) (A) (B) (B) (A) (B) (B)
                 (A) (B) (A) (B) (A) (B) (A) (B) (A) (A) (A) (B)
                 (A) (B) (A) (B) (A) (B) (B) (A) (A) (A) (B) (B)
                 (B) (A) (B) (A) (B) (B) (A) (A) (A) (B) (A) (B)
                 (A) (B) (A) (B) (A) (B) (A) (B) (B) (A) (B) (A)
                 (B) (A) (A) (B) (A) (B) (A) (A) (B) (A) (B) (B)
                 (A) (A) (B) (B) (B) (A) (B) (B) (A) (A) (B) (A)
                 (B) (A) (A) (B) (B) (A) (B) (A) (B) (B) (A) (B)
                 (A) (A) (B) (A) (B) (A) (B) (A) (B) (B) (A) (B)
                 (A) (A) (B) (A) (B) (B) (A) (B) (A) (A) (B) (A)
                 (A) (B) (B) (A) (B) (A) (A) (B) (A) (B) (A) (B)
                 (A) (B) (A) (B) (A) (A) (B) (A) (A) (B) (A) (B)
                 (B) (A) (A) (B) (B) (A) (B) (B) (A) (A) (B) (B)
                 (A) (B) (B) (B) (A) (A) (B) (B) (A) (A) (B) (A)
                 (A) (A) (B) (B) (A) (A) (B) (B) (A) (B) (A) (B)
                 (B) (A) (A) (A) (B) (B) (A) (B) (B) (A) (B) (A)
                 (B) (A) (B) (B) (A) (A) (B) (A) (B) (B) (A) (B)
                 (A) (B) (A) (A) (B) (A) (B) (A) (A) (B) (A) (B)
                 (B) (B) (A) (B) (A) (A) (B) (A) (B) (A) (B) (A)
                 (A) (B) (B) (B) (A) (B) (A) (A) (B) (A) (B) (A)
                 (A) (B) (B) (A) (A) (B) (B) (A) (B) (A) (B) (A)
                 (A) (B) (A) (B) (B) (A) (B) (A) (B) (A) (B) (A)
                 (B) (A) (B) (A) (B) (A) (B) (A) (B) (B) (A) (B)
                 (A)
 The electronic state is 1-A.
 Alpha  occ. eigenvalues -- -104.86213-104.86213-104.85922-104.85922 -11.39696
 Alpha  occ. eigenvalues --  -11.39635 -10.58728 -10.58728 -10.58441 -10.58440
 Alpha  occ. eigenvalues --   -8.05415  -8.05415  -8.05251  -8.05251  -8.05245
 Alpha  occ. eigenvalues --   -8.05245  -8.05132  -8.05132  -8.04962  -8.04962
 Alpha  occ. eigenvalues --   -8.04956  -8.04956  -1.24459  -1.17237  -1.11246
 Alpha  occ. eigenvalues --   -1.10526  -0.97108  -0.83375  -0.70835  -0.65747
 Alpha  occ. eigenvalues --   -0.63949  -0.58715  -0.57369  -0.50344  -0.49028
 Alpha  occ. eigenvalues --   -0.48246  -0.47599  -0.46351  -0.46146  -0.45751
 Alpha  occ. eigenvalues --   -0.45376
 Alpha virt. eigenvalues --    0.04349   0.05546   0.05750   0.06086   0.07581
 Alpha virt. eigenvalues --    0.07930   0.10402   0.10452   0.10753   0.11520
 Alpha virt. eigenvalues --    0.11935   0.12989   0.13423   0.13831   0.14034
 Alpha virt. eigenvalues --    0.14928   0.15698   0.16705   0.16953   0.17521
 Alpha virt. eigenvalues --    0.18172   0.18349   0.21259   0.21789   0.21944
 Alpha virt. eigenvalues --    0.24112   0.26112   0.26232   0.26431   0.29015
 Alpha virt. eigenvalues --    0.30463   0.34820   0.38068   0.38242   0.39192
 Alpha virt. eigenvalues --    0.40255   0.41630   0.42198   0.42248   0.44968
 Alpha virt. eigenvalues --    0.45444   0.46026   0.46346   0.47005   0.47172
 Alpha virt. eigenvalues --    0.47980   0.48087   0.48989   0.49881   0.50952
 Alpha virt. eigenvalues --    0.51871   0.51929   0.54371   0.55332   0.56472
 Alpha virt. eigenvalues --    0.57556   0.58188   0.60042   0.60581   0.62577
 Alpha virt. eigenvalues --    0.65289   0.66161   0.72131   0.72648   0.73665
 Alpha virt. eigenvalues --    0.75580   0.77165   0.77906   0.78648   0.79813
 Alpha virt. eigenvalues --    0.80877   0.81504   0.83975   0.88615   0.89895
 Alpha virt. eigenvalues --    0.92107   0.92639   0.92814   0.94186   0.96171
 Alpha virt. eigenvalues --    0.98074   0.98703   0.99161   1.04315   1.04666
 Alpha virt. eigenvalues --    1.04775   1.05520   1.10460   1.10731   1.13545
 Alpha virt. eigenvalues --    1.15940   1.17482   1.17684   1.21468   1.23433
 Alpha virt. eigenvalues --    1.25347   1.25503   1.27501   1.29912   1.31488
 Alpha virt. eigenvalues --    1.32169   1.32660   1.34095   1.34449   1.36393
 Alpha virt. eigenvalues --    1.37331   1.37705   1.37931   1.41030   1.42323
 Alpha virt. eigenvalues --    1.44031   1.44138   1.45189   1.47550   1.48013
 Alpha virt. eigenvalues --    1.50795   1.53880   1.54990   1.56228   1.56774
 Alpha virt. eigenvalues --    1.58660   1.59395   1.59935   1.61240   1.63189
 Alpha virt. eigenvalues --    1.64231   1.65335   1.65825   1.67762   1.68785
 Alpha virt. eigenvalues --    1.69882   1.71070   1.71765   1.73909   1.74643
 Alpha virt. eigenvalues --    1.75933   1.76321   1.78255   1.79120   1.79759
 Alpha virt. eigenvalues --    1.80304   1.81728   1.85030   1.85735   1.88106
 Alpha virt. eigenvalues --    1.89335   1.89464   1.92955   1.95147   1.96523
 Alpha virt. eigenvalues --    1.96706   2.01106   2.02658   2.04346   2.05681
 Alpha virt. eigenvalues --    2.08822   2.09993   2.13125   2.19214   2.19437
 Alpha virt. eigenvalues --    2.23526   2.24703   2.27558   2.28110   2.28868
 Alpha virt. eigenvalues --    2.31253   2.33934   2.36760   2.38392   2.39862
 Alpha virt. eigenvalues --    2.40009   2.41673   2.44505   2.50220   2.52114
 Alpha virt. eigenvalues --    2.55350   2.55459   2.58990   2.61100   2.62012
 Alpha virt. eigenvalues --    2.63671   2.69561   2.72119   2.77361   2.77993
 Alpha virt. eigenvalues --    2.81676   2.85479   2.86402   2.94648   3.06599
 Alpha virt. eigenvalues --    3.06886   3.09681   3.17804   3.20639   3.22535
 Alpha virt. eigenvalues --    3.24867   3.29877   3.30227   3.36588   3.38268
 Alpha virt. eigenvalues --    3.39804   3.42143   3.45410   3.48036   3.49868
 Alpha virt. eigenvalues --    3.50516   3.51596   3.53721   3.54004   3.54691
 Alpha virt. eigenvalues --    3.54979   3.56251   3.56525   3.56703   3.58794
 Alpha virt. eigenvalues --    3.58914   3.61052   3.61179   3.63313   3.63738
 Alpha virt. eigenvalues --    3.65626   3.67229   3.67537   3.68709   3.71489
 Alpha virt. eigenvalues --    3.73373   3.73669   3.77522   3.77610   3.79485
 Alpha virt. eigenvalues --    3.81273   3.84923   3.85005   3.89557   4.11265
 Alpha virt. eigenvalues --    4.65256   4.67612   4.71740   4.79289   4.82382
 Alpha virt. eigenvalues --    4.88029   4.89236   4.89566   4.92737   4.94414
 Alpha virt. eigenvalues --    4.96837   4.97512   4.98843   5.00601   5.03555
 Alpha virt. eigenvalues --    5.08307   5.10638   5.11527   5.11823   5.12872
 Alpha virt. eigenvalues --    5.15112   5.15773   5.18381   5.19081   5.29669
 Alpha virt. eigenvalues --    5.35235   5.35352   5.54462   5.57595   5.57971
 Alpha virt. eigenvalues --    5.62735   5.65757   5.77198   5.77786   5.93601
 Alpha virt. eigenvalues --    5.98920   6.07924   6.08817   6.09505   6.10684
 Alpha virt. eigenvalues --    6.12954   6.12995   6.16538   6.17483   6.24493
 Alpha virt. eigenvalues --    6.24849   6.29055   6.29662   6.31802   6.36958
 Alpha virt. eigenvalues --    6.41522   6.72535   6.74715   6.76662   6.87143
 Alpha virt. eigenvalues --    6.89529   7.14810   7.14862   8.11235   8.15962
 Alpha virt. eigenvalues --    8.27483   8.29457   8.41985   8.51119   8.58085
 Alpha virt. eigenvalues --    8.73252   8.81900   9.39501   9.51560   9.61149
 Alpha virt. eigenvalues --   21.09827  21.11873  21.14052  21.31685  21.35627
 Alpha virt. eigenvalues --   21.70658  22.16536  22.17333  22.18169  22.18720
 Alpha virt. eigenvalues --   22.19053  22.20054  22.21511  22.22172  22.25829
 Alpha virt. eigenvalues --   22.27107  22.29390  22.31601  22.31640  22.33378
 Alpha virt. eigenvalues --   22.33543  22.36029  22.36461  22.38689  22.41751
 Alpha virt. eigenvalues --   22.43197  22.72940  23.32041  24.41983  24.57741
 Alpha virt. eigenvalues --   24.67481  24.71725  28.41101  28.41349  28.42074
 Alpha virt. eigenvalues --   28.42198  28.44387  28.45458  28.49237  28.50096
 Alpha virt. eigenvalues --   28.77999  28.80746  28.82297  28.87787
          Condensed to atoms (all electrons):
               1          2          3          4          5          6
     1  C    5.044726   0.254571   0.422116   0.277945   0.271023  -0.005344
     2  C    0.254571   5.044726  -0.005344  -0.047152  -0.045693   0.422116
     3  H    0.422116  -0.005344   0.483984  -0.044414  -0.040515  -0.008073
     4  Cl   0.277945  -0.047152  -0.044414  16.888223  -0.054688  -0.001862
     5  Cl   0.271023  -0.045693  -0.040515  -0.054688  16.879697   0.003107
     6  H   -0.005344   0.422116  -0.008073  -0.001862   0.003107   0.483984
     7  Cl  -0.047152   0.277945  -0.001862   0.006917  -0.007151  -0.044414
     8  Cl  -0.045693   0.271023   0.003107  -0.007151  -0.004789  -0.040515
               7          8
     1  C   -0.047152  -0.045693
     2  C    0.277945   0.271023
     3  H   -0.001862   0.003107
     4  Cl   0.006917  -0.007151
     5  Cl  -0.007151  -0.004789
     6  H   -0.044414  -0.040515
     7  Cl  16.888223  -0.054688
     8  Cl  -0.054688  16.879697
          Atomic-Atomic Spin Densities.
               1          2          3          4          5          6
     1  C    0.000000   0.000000   0.000000   0.000000   0.000000   0.000000
     2  C    0.000000   0.000000   0.000000   0.000000   0.000000   0.000000
     3  H    0.000000   0.000000   0.000000   0.000000   0.000000   0.000000
     4  Cl   0.000000   0.000000   0.000000   0.000000   0.000000   0.000000
     5  Cl   0.000000   0.000000   0.000000   0.000000   0.000000   0.000000
     6  H    0.000000   0.000000   0.000000   0.000000   0.000000   0.000000
     7  Cl   0.000000   0.000000   0.000000   0.000000   0.000000   0.000000
     8  Cl   0.000000   0.000000   0.000000   0.000000   0.000000   0.000000
               7          8
     1  C    0.000000   0.000000
     2  C    0.000000   0.000000
     3  H    0.000000   0.000000
     4  Cl   0.000000   0.000000
     5  Cl   0.000000   0.000000
     6  H    0.000000   0.000000
     7  Cl   0.000000   0.000000
     8  Cl   0.000000   0.000000
 Mulliken charges and spin densities:
               1          2
     1  C   -0.172192   0.000000
     2  C   -0.172192   0.000000
     3  H    0.191001   0.000000
     4  Cl  -0.017818   0.000000
     5  Cl  -0.000991   0.000000
     6  H    0.191001   0.000000
     7  Cl  -0.017818   0.000000
     8  Cl  -0.000991   0.000000
 Sum of Mulliken charges =   0.00000   0.00000
 Mulliken charges and spin densities with hydrogens summed into heavy atoms:
               1          2
     1  C    0.018809   0.000000
     2  C    0.018809   0.000000
     4  Cl  -0.017818   0.000000
     5  Cl  -0.000991   0.000000
     7  Cl  -0.017818   0.000000
     8  Cl  -0.000991   0.000000
 Electronic spatial extent (au):  <R**2>=           1273.6834
 Charge=             -0.0000 electrons
 Dipole moment (field-independent basis, Debye):
    X=              0.0000    Y=             -0.0000    Z=             -1.8261  Tot=              1.8261
 Quadrupole moment (field-independent basis, Debye-Ang):
   XX=            -63.3764   YY=            -65.7724   ZZ=            -60.7488
   XY=              1.2261   XZ=             -0.0000   YZ=             -0.0000
 Traceless Quadrupole moment (field-independent basis, Debye-Ang):
   XX=             -0.0772   YY=             -2.4732   ZZ=              2.5504
   XY=              1.2261   XZ=             -0.0000   YZ=             -0.0000
 Octapole moment (field-independent basis, Debye-Ang**2):
  XXX=             -0.0000  YYY=              0.0000  ZZZ=              3.0285  XYY=              0.0000
  XXY=              0.0000  XXZ=              0.7916  XZZ=              0.0000  YZZ=             -0.0000
  YYZ=              0.7937  XYZ=             -0.9484
 Hexadecapole moment (field-independent basis, Debye-Ang**3):
 XXXX=           -498.9159 YYYY=           -826.1567 ZZZZ=           -296.1236 XXXY=             37.7582
 XXXZ=             -0.0000 YYYX=             36.6069 YYYZ=             -0.0000 ZZZX=              0.0000
 ZZZY=              0.0000 XXYY=           -206.8657 XXZZ=           -125.5514 YYZZ=           -185.7331
 XXYZ=              0.0000 YYXZ=              0.0000 ZZXY=             27.2806
 N-N= 5.223625503861D+02 E-N=-5.600378203037D+03  KE= 1.914826194102D+03
 Symmetry A    KE= 9.586992032209D+02
 Symmetry B    KE= 9.561269908812D+02
 Symmetry A    SP= 0.000000000000D+00
 Symmetry B    SP= 0.000000000000D+00
                          Isotropic Fermi Contact Couplings
        Atom                 a.u.       MegaHertz       Gauss      10(-4) cm-1
     1  C(13)              0.00000       0.00000       0.00000       0.00000
     2  C(13)              0.00000       0.00000       0.00000       0.00000
     3  H(1)               0.00000       0.00000       0.00000       0.00000
     4  Cl(35)             0.00000       0.00000       0.00000       0.00000
     5  Cl(35)             0.00000       0.00000       0.00000       0.00000
     6  H(1)               0.00000       0.00000       0.00000       0.00000
     7  Cl(35)             0.00000       0.00000       0.00000       0.00000
     8  Cl(35)             0.00000       0.00000       0.00000       0.00000
 --------------------------------------------------------
       Center         ----  Spin Dipole Couplings  ----
                      3XX-RR        3YY-RR        3ZZ-RR
 --------------------------------------------------------
     1   Atom        0.000000      0.000000      0.000000
     2   Atom        0.000000      0.000000      0.000000
     3   Atom        0.000000      0.000000      0.000000
     4   Atom        0.000000      0.000000      0.000000
     5   Atom        0.000000      0.000000      0.000000
     6   Atom        0.000000      0.000000      0.000000
     7   Atom        0.000000      0.000000      0.000000
     8   Atom        0.000000      0.000000      0.000000
 --------------------------------------------------------
                        XY            XZ            YZ
 --------------------------------------------------------
     1   Atom        0.000000      0.000000      0.000000
     2   Atom        0.000000      0.000000      0.000000
     3   Atom        0.000000      0.000000      0.000000
     4   Atom        0.000000      0.000000      0.000000
     5   Atom        0.000000      0.000000      0.000000
     6   Atom        0.000000      0.000000      0.000000
     7   Atom        0.000000      0.000000      0.000000
     8   Atom        0.000000      0.000000      0.000000
 --------------------------------------------------------


 ---------------------------------------------------------------------------------
              Anisotropic Spin Dipole Couplings in Principal Axis System
 ---------------------------------------------------------------------------------

       Atom             a.u.   MegaHertz   Gauss  10(-4) cm-1        Axes

              Baa     0.0000     0.000     0.000     0.000  1.0000  0.0000  0.0000
     1 C(13)  Bbb     0.0000     0.000     0.000     0.000 -0.0000  1.0000  0.0000
              Bcc     0.0000     0.000     0.000     0.000  0.0000  0.0000  1.0000
 
              Baa     0.0000     0.000     0.000     0.000  1.0000  0.0000  0.0000
     2 C(13)  Bbb     0.0000     0.000     0.000     0.000 -0.0000  1.0000  0.0000
              Bcc     0.0000     0.000     0.000     0.000  0.0000  0.0000  1.0000
 
              Baa     0.0000     0.000     0.000     0.000  1.0000  0.0000  0.0000
     3 H(1)   Bbb     0.0000     0.000     0.000     0.000 -0.0000  1.0000  0.0000
              Bcc     0.0000     0.000     0.000     0.000  0.0000  0.0000  1.0000
 
              Baa     0.0000     0.000     0.000     0.000  1.0000  0.0000  0.0000
     4 Cl(35) Bbb     0.0000     0.000     0.000     0.000 -0.0000  1.0000  0.0000
              Bcc     0.0000     0.000     0.000     0.000  0.0000  0.0000  1.0000
 
              Baa     0.0000     0.000     0.000     0.000  1.0000  0.0000  0.0000
     5 Cl(35) Bbb     0.0000     0.000     0.000     0.000 -0.0000  1.0000  0.0000
              Bcc     0.0000     0.000     0.000     0.000  0.0000  0.0000  1.0000
 
              Baa     0.0000     0.000     0.000     0.000  1.0000  0.0000  0.0000
     6 H(1)   Bbb     0.0000     0.000     0.000     0.000 -0.0000  1.0000  0.0000
              Bcc     0.0000     0.000     0.000     0.000  0.0000  0.0000  1.0000
 
              Baa     0.0000     0.000     0.000     0.000  1.0000  0.0000  0.0000
     7 Cl(35) Bbb     0.0000     0.000     0.000     0.000 -0.0000  1.0000  0.0000
              Bcc     0.0000     0.000     0.000     0.000  0.0000  0.0000  1.0000
 
              Baa     0.0000     0.000     0.000     0.000  1.0000  0.0000  0.0000
     8 Cl(35) Bbb     0.0000     0.000     0.000     0.000 -0.0000  1.0000  0.0000
              Bcc     0.0000     0.000     0.000     0.000  0.0000  0.0000  1.0000
 

 ---------------------------------------------------------------------------------

 1\1\GINC-GAMBA\SP\ROHF\Gen\C2H2Cl4\IRIKURA\29-Sep-2023\0\\# rohf/gen g
 eom=check guess=check\\1,1,2,2-tetrachloroethane, ROHF/cc-pVTZ-F12\\0,
 1\C,0,0.231072,0.729506,-0.4868\C,0,-0.231072,-0.729506,-0.4868\H,0,0.
 864183,0.888717,-1.352116\Cl,0,-1.186737,1.807887,-0.692447\Cl,0,1.186
 737,1.176348,0.943795\H,0,-0.864183,-0.888717,-1.352116\Cl,0,1.186737,
 -1.807887,-0.692447\Cl,0,-1.186737,-1.176348,0.943795\\Version=ES64L-G
 16RevB.01\State=1-A\HF=-1915.0061127\RMSD=4.268e-09\Dipole=0.,0.,-0.71
 84567\Quadrupole=-0.0574009,-1.8387586,1.8961595,0.9115786,0.,0.\PG=C0
 2 [X(C2H2Cl4)]\\@


 THAT'S WHAT MAKES US A GREAT COUNTRY.
 THE LITTLE THINGS ARE SERIOUS AND THE BIG ONES ARE NOT.
           WILL ROGERS
 Job cpu time:       0 days  0 hours  9 minutes 27.8 seconds.
 Elapsed time:       0 days  0 hours  2 minutes 22.1 seconds.
 File lengths (MBytes):  RWF=    110 Int=      0 D2E=      0 Chk=     13 Scr=      1
 Normal termination of Gaussian 16 at Fri Sep 29 23:04:38 2023.
