 Entering Gaussian System, Link 0=g16
 AtFile(1): pcseg2.gbs
            -H     0
            S   4   1.00
                  0.754732D+02           0.427821D-02
                  0.113575D+02           0.328672D-01
                  0.260081D+01           0.159578D+00
                  0.735503D+00           0.500000D+00
            S   1   1.00
                  0.231761D+00           1.0000000
            S   1   1.00
                  0.741675D-01           1.0000000
            P   1   1.00
                  0.160000D+01           1.0000000
            P   1   1.00
                  0.450000D+00           1.0000000
            D   1   1.00
                  0.125000D+01           1.0000000
            ****
            -C     0
            S   7   1.00
                  0.731999D+04           0.695369D-03
                  0.109818D+04           0.537138D-02
                  0.250014D+03           0.274734D-01
                  0.707586D+02           0.105078D+00
                  0.228595D+02           0.291262D+00
                  0.803936D+01           0.500000D+00
                  0.289309D+01           0.362224D+00
            S   2   1.00
                  0.521640D+01          -0.957844D-01
                  0.556124D+00           0.500000D+00
            S   1   1.00
                  0.228813D+00           1.0000000
            S   1   1.00
                  0.936338D-01           1.0000000
            P   4   1.00
                  0.339855D+02           0.818395D-02
                  0.772957D+01           0.586921D-01
                  0.224954D+01           0.222514D+00
                  0.767681D+00           0.500000D+00
            P   1   1.00
                  0.263283D+00           1.0000000
            P   1   1.00
                  0.848744D-01           1.0000000
            D   1   1.00
                  0.140000D+01           1.0000000
            D   1   1.00
                  0.450000D+00           1.0000000
            F   1   1.00
                  0.950000D+00           1.0000000
            ****
            -O     0
            S   7   1.00
                  0.135887D+05           0.665492D-03
                  0.203847D+04           0.514222D-02
                  0.464041D+03           0.263472D-01
                  0.131339D+03           0.101500D+00
                  0.425340D+02           0.285877D+00
                  0.150429D+02           0.500000D+00
                  0.546616D+01           0.368211D+00
            S   2   1.00
                  0.100915D+02          -0.100084D+00
                  0.110429D+01           0.500000D+00
            S   1   1.00
                  0.448082D+00           1.0000000
            S   1   1.00
                  0.175325D+00           1.0000000
            P   4   1.00
                  0.608220D+02           0.908253D-02
                  0.140332D+02           0.645878D-01
                  0.418244D+01           0.241502D+00
                  0.142490D+01           0.500000D+00
            P   1   1.00
                  0.478741D+00           1.0000000
            P   1   1.00
                  0.146257D+00           1.0000000
            D   1   1.00
                  0.220000D+01           1.0000000
            D   1   1.00
                  0.650000D+00           1.0000000
            F   1   1.00
                  0.110000D+01           1.0000000
            ****
            -N     0
            S   7   1.00
                  0.101643D+05           0.682757D-03
                  0.152481D+04           0.527488D-02
                  0.347119D+03           0.270037D-01
                  0.982389D+02           0.103673D+00
                  0.317799D+02           0.289575D+00
                  0.112240D+02           0.500000D+00
                  0.406611D+01           0.364621D+00
            S   2   1.00
                  0.747898D+01          -0.975681D-01
                  0.805040D+00           0.500000D+00
            S   1   1.00
                  0.324626D+00           1.0000000
            S   1   1.00
                  0.128132D+00           1.0000000
            P   4   1.00
                  0.482704D+02           0.829547D-02
                  0.110815D+02           0.596223D-01
                  0.326643D+01           0.227889D+00
                  0.111680D+01           0.500000D+00
            P   1   1.00
                  0.382049D+00           1.0000000
            P   1   1.00
                  0.121222D+00           1.0000000
            D   1   1.00
                  0.180000D+01           1.0000000
            D   1   1.00
                  0.550000D+00           1.0000000
            F   1   1.00
                  0.102000D+01           1.0000000
            ****
            -F     0
            S   7   1.00
                  0.174507D+05           0.655972D-03
                  0.261768D+04           0.506944D-02
                  0.595857D+03           0.259899D-01
                  0.168651D+03           0.100353D+00
                  0.546654D+02           0.284095D+00
                  0.193717D+02           0.500000D+00
                  0.706202D+01           0.370721D+00
            S   2   1.00
                  0.131197D+02          -0.101997D+00
                  0.145046D+01           0.500000D+00
            S   1   1.00
                  0.588255D+00           1.0000000
            S   1   1.00
                  0.227960D+00           1.0000000
            P   4   1.00
                  0.779407D+02           0.931135D-02
                  0.180425D+02           0.663964D-01
                  0.542342D+01           0.246386D+00
                  0.184876D+01           0.500000D+00
            P   1   1.00
                  0.617455D+00           1.0000000
            P   1   1.00
                  0.185496D+00           1.0000000
            D   1   1.00
                  0.280000D+01           1.0000000
            D   1   1.00
                  0.800000D+00           1.0000000
            F   1   1.00
                  0.120000D+01           1.0000000
            ****
            -Cl     0
            S   8   1.00
                  0.154272D+06           0.222473D-03
                  0.231232D+05           0.172590D-02
                  0.526257D+04           0.899286D-02
                  0.148995D+04           0.367724D-01
                  0.485417D+03           0.121446D+00
                  0.174634D+03           0.304148D+00
                  0.672393D+02           0.500000D+00
                  0.265780D+02           0.360252D+00
            S   3   1.00
                  0.131826D+03          -0.531330D-01
                  0.400703D+02          -0.233346D+00
                  0.789448D+01           0.500000D+00
            S   2   1.00
                  0.427711D+01           0.500000D+00
                  0.196233D+01           0.370517D+00
            S   1   1.00
                  0.520793D+00           1.0000000
            S   1   1.00
                  0.181633D+00           1.0000000
            P   7   1.00
                  0.124440D+04           0.988206D-03
                  0.295109D+03           0.829674D-02
                  0.947224D+02           0.430906D-01
                  0.352588D+02           0.148443D+00
                  0.144211D+02           0.344744D+00
                  0.610371D+01           0.500000D+00
                  0.258886D+01           0.348278D+00
            P   2   1.00
                  0.109447D+02          -0.196768D-01
                  0.104413D+01           0.500000D+00
            P   1   1.00
                  0.376184D+00           1.0000000
            P   1   1.00
                  0.120613D+00           1.0000000
            D   1   1.00
                  0.231000D+01           1.0000000
            D   1   1.00
                  0.520000D+00           1.0000000
            F   1   1.00
                  0.720000D+00           1.0000000
            ****
            -S     0
            S   8   1.00
                  0.134700D+06           0.226231D-03
                  0.201904D+05           0.175488D-02
                  0.459528D+04           0.914190D-02
                  0.130109D+04           0.373551D-01
                  0.423902D+03           0.123121D+00
                  0.152485D+03           0.306801D+00
                  0.586925D+02           0.500000D+00
                  0.231461D+02           0.354358D+00
            S   3   1.00
                  0.116327D+03          -0.491772D-01
                  0.352841D+02          -0.215962D+00
                  0.677831D+01           0.500000D+00
            S   2   1.00
                  0.360404D+01           0.500000D+00
                  0.164871D+01           0.366278D+00
            S   1   1.00
                  0.421821D+00           1.0000000
            S   1   1.00
                  0.147554D+00           1.0000000
            P   7   1.00
                  0.104863D+04           0.105273D-02
                  0.248717D+03           0.879338D-02
                  0.797887D+02           0.453358D-01
                  0.296023D+02           0.154476D+00
                  0.120627D+02           0.352366D+00
                  0.507628D+01           0.500000D+00
                  0.213375D+01           0.346429D+00
            P   2   1.00
                  0.928958D+01          -0.185932D-01
                  0.837819D+00           0.500000D+00
            P   1   1.00
                  0.301495D+00           1.0000000
            P   1   1.00
                  0.974740D-01           1.0000000
            D   1   1.00
                  0.210000D+01           1.0000000
            D   1   1.00
                  0.480000D+00           1.0000000
            F   1   1.00
                  0.660000D+00           1.0000000
            ****
            -Br     0
            S    10   1.00
                  0.233625D+07           0.532336D-04
                  0.349961D+06           0.413715D-03
                  0.796444D+05           0.217123D-02
                  0.225555D+05           0.910109D-02
                  0.735546D+04           0.323789D-01
                  0.265352D+04           0.988755D-01
                  0.103517D+04           0.248138D+00
                  0.422205D+03           0.474328D+00
                  0.180035D+03           0.500000D+00
                  0.793308D+02           0.187769D+00
            S    4   1.00
                  0.620834D+03          -0.226511D-01
                  0.190829D+03          -0.109497D+00
                  0.312505D+02           0.500000D+00
                  0.135270D+02           0.492812D+00
            S    2   1.00
                  0.216097D+02          -0.165418D+00
                  0.372566D+01           0.500000D+00
            S    1   1.00
                  0.169770D+01           1.0000000
            S    1   1.00
                  0.489332D+00           1.0000000
            S    1   1.00
                  0.175712D+00           1.0000000
            P    8   1.00
                  0.960829D+04           0.478974D-03
                  0.227618D+04           0.417853D-02
                  0.736723D+03           0.229315D-01
                  0.281579D+03           0.892653D-01
                  0.118395D+03           0.255288D+00
                  0.527481D+02           0.479074D+00
                  0.245098D+02           0.500000D+00
                  0.112009D+02           0.200944D+00
            P    4   1.00
                  0.587849D+02          -0.189674D-01
                  0.918962D+01           0.264104D+00
                  0.413895D+01           0.500000D+00
                  0.184225D+01           0.319316D+00
            P    1   1.00
                  0.713862D+00           1.0000000
            P    1   1.00
                  0.274232D+00           1.0000000
            P    1   1.00
                  0.944411D-01           1.0000000
            D    7   1.00
                  0.398470D+03           0.204066D-02
                  0.118967D+03           0.175171D-01
                  0.450197D+02           0.829708D-01
                  0.190320D+02           0.236284D+00
                  0.855686D+01           0.428468D+00
                  0.382950D+01           0.500000D+00
                  0.166291D+01           0.349360D+00
            D    1   1.00
                  0.672953D+00           1.0000000
            D    1   1.00
                  0.252000D+00           1.0000000
            F    1   1.00
                  0.530000D+00           1.0000000
            ****
            -Si     0
            S    8   1.00
                  0.996133D+05           0.235546D-03
                  0.149311D+05           0.182707D-02
                  0.339820D+04           0.951425D-02
                  0.962140D+03           0.388172D-01
                  0.313430D+03           0.127328D+00
                  0.112683D+03           0.313522D+00
                  0.433372D+02           0.500000D+00
                  0.170029D+02           0.340347D+00
            S    3   1.00
                  0.884208D+02          -0.404451D-01
                  0.266756D+02          -0.178059D+00
                  0.479640D+01           0.500000D+00
            S    2   1.00
                  0.239385D+01           0.500000D+00
                  0.108333D+01           0.338016D+00
            S    1   1.00
                  0.252420D+00           1.0000000
            S    1   1.00
                  0.891210D-01           1.0000000
            P    7   1.00
                  0.709901D+03           0.123028D-02
                  0.168426D+03           0.101366D-01
                  0.539946D+02           0.511840D-01
                  0.198646D+02           0.169967D+00
                  0.801369D+01           0.370717D+00
                  0.331870D+01           0.500000D+00
                  0.136112D+01           0.344128D+00
            P    2   1.00
                  0.622158D+01          -0.166609D-01
                  0.503049D+00           0.500000D+00
            P    1   1.00
                  0.179848D+00           1.0000000
            P    1   1.00
                  0.591912D-01           1.0000000
            D    1   1.00
                  0.168000D+01           1.0000000
            D    1   1.00
                  0.380000D+00           1.0000000
            F    1   1.00
                  0.540000D+00           1.0000000
            ****
            -P     0
            S    8   1.00
                  0.116416D+06           0.230715D-03
                  0.174500D+05           0.178960D-02
                  0.397149D+04           0.932116D-02
                  0.112447D+04           0.380591D-01
                  0.366347D+03           0.125148D+00
                  0.131757D+03           0.310022D+00
                  0.506988D+02           0.500000D+00
                  0.199436D+02           0.347528D+00
            S    3   1.00
                  0.101878D+03          -0.446755D-01
                  0.308249D+02          -0.196376D+00
                  0.573688D+01           0.500000D+00
            S    2   1.00
                  0.296868D+01           0.500000D+00
                  0.135315D+01           0.355098D+00
            S    1   1.00
                  0.332196D+00           1.0000000
            S    1   1.00
                  0.116229D+00           1.0000000
            P    7   1.00
                  0.873928D+03           0.112375D-02
                  0.207298D+03           0.933330D-02
                  0.664628D+02           0.477213D-01
                  0.245665D+02           0.160733D+00
                  0.996820D+01           0.359760D+00
                  0.416536D+01           0.500000D+00
                  0.173022D+01           0.346593D+00
            P    2   1.00
                  0.772530D+01          -0.175718D-01
                  0.657252D+00           0.500000D+00
            P    1   1.00
                  0.239903D+00           1.0000000
            P    1   1.00
                  0.800988D-01           1.0000000
            D    1   1.00
                  0.189000D+01           1.0000000
            D    1   1.00
                  0.430000D+00           1.0000000
            F    1   1.00
                  0.600000D+00           1.0000000
            ****
            
 Initial command:
 /usr/local/apps/g16_b01_avx/g16/l1.exe "/wrk/irikura/Gau-401686.inp" -scrdir="/wrk/irikura/"
 Entering Link 1 = /usr/local/apps/g16_b01_avx/g16/l1.exe PID=    401688.
  
 Copyright (c) 1988-2017, Gaussian, Inc.  All Rights Reserved.
  
 This is part of the Gaussian(R) 16 program.  It is based on
 the Gaussian(R) 09 system (copyright 2009, Gaussian, Inc.),
 the Gaussian(R) 03 system (copyright 2003, Gaussian, Inc.),
 the Gaussian(R) 98 system (copyright 1998, Gaussian, Inc.),
 the Gaussian(R) 94 system (copyright 1995, Gaussian, Inc.),
 the Gaussian 92(TM) system (copyright 1992, Gaussian, Inc.),
 the Gaussian 90(TM) system (copyright 1990, Gaussian, Inc.),
 the Gaussian 88(TM) system (copyright 1988, Gaussian, Inc.),
 the Gaussian 86(TM) system (copyright 1986, Carnegie Mellon
 University), and the Gaussian 82(TM) system (copyright 1983,
 Carnegie Mellon University). Gaussian is a federally registered
 trademark of Gaussian, Inc.
  
 This software contains proprietary and confidential information,
 including trade secrets, belonging to Gaussian, Inc.
  
 This software is provided under written license and may be
 used, copied, transmitted, or stored only in accord with that
 written license.
  
 The following legend is applicable only to US Government
 contracts under FAR:
  
                    RESTRICTED RIGHTS LEGEND
  
 Use, reproduction and disclosure by the US Government is
 subject to restrictions as set forth in subparagraphs (a)
 and (c) of the Commercial Computer Software - Restricted
 Rights clause in FAR 52.227-19.
  
 Gaussian, Inc.
 340 Quinnipiac St., Bldg. 40, Wallingford CT 06492
  
  
 ---------------------------------------------------------------
 Warning -- This program may not be used in any manner that
 competes with the business of Gaussian, Inc. or will provide
 assistance to any competitor of Gaussian, Inc.  The licensee
 of this program is prohibited from giving any competitor of
 Gaussian, Inc. access to this program.  By using this program,
 the user acknowledges that Gaussian, Inc. is engaged in the
 business of creating and licensing software in the field of
 computational chemistry and represents and warrants to the
 licensee that it is not a competitor of Gaussian, Inc. and that
 it will not use this program in any manner prohibited above.
 ---------------------------------------------------------------
  

 Cite this work as:
 Gaussian 16, Revision B.01,
 M. J. Frisch, G. W. Trucks, H. B. Schlegel, G. E. Scuseria, 
 M. A. Robb, J. R. Cheeseman, G. Scalmani, V. Barone, 
 G. A. Petersson, H. Nakatsuji, X. Li, M. Caricato, A. V. Marenich, 
 J. Bloino, B. G. Janesko, R. Gomperts, B. Mennucci, H. P. Hratchian, 
 J. V. Ortiz, A. F. Izmaylov, J. L. Sonnenberg, D. Williams-Young, 
 F. Ding, F. Lipparini, F. Egidi, J. Goings, B. Peng, A. Petrone, 
 T. Henderson, D. Ranasinghe, V. G. Zakrzewski, J. Gao, N. Rega, 
 G. Zheng, W. Liang, M. Hada, M. Ehara, K. Toyota, R. Fukuda, 
 J. Hasegawa, M. Ishida, T. Nakajima, Y. Honda, O. Kitao, H. Nakai, 
 T. Vreven, K. Throssell, J. A. Montgomery, Jr., J. E. Peralta, 
 F. Ogliaro, M. J. Bearpark, J. J. Heyd, E. N. Brothers, K. N. Kudin, 
 V. N. Staroverov, T. A. Keith, R. Kobayashi, J. Normand, 
 K. Raghavachari, A. P. Rendell, J. C. Burant, S. S. Iyengar, 
 J. Tomasi, M. Cossi, J. M. Millam, M. Klene, C. Adamo, R. Cammi, 
 J. W. Ochterski, R. L. Martin, K. Morokuma, O. Farkas, 
 J. B. Foresman, and D. J. Fox, Gaussian, Inc., Wallingford CT, 2016.
 
 ******************************************
 Gaussian 16:  ES64L-G16RevB.01 20-Dec-2017
                29-Sep-2023 
 ******************************************
 %chk=chclchcl.chk
 %mem=500mw
 %nprocs=4
 Will use up to    4 processors via shared memory.
 ---------------------------------------
 # b3lyp/gen opt freq CPHF(Grid=OneStep)
 ---------------------------------------
 1/18=20,19=15,26=3,38=1/1,3;
 2/9=110,12=2,17=6,18=5,40=1/2;
 3/5=7,11=2,25=1,30=1,71=1,74=-5/1,2,3;
 4//1;
 5/5=2,38=5/2;
 6/7=2,8=2,9=2,10=2,28=1/1;
 7//1,2,3,16;
 1/18=20,19=15,26=3/3(2);
 2/9=110/2;
 99//99;
 2/9=110/2;
 3/5=7,6=1,11=2,25=1,30=1,71=1,74=-5,82=7/1,2,3;
 4/5=5,16=3,69=1/1;
 5/5=2,38=5/2;
 7//1,2,3,16;
 1/18=20,19=15,26=3/3(-5);
 2/9=110/2;
 6/7=2,8=2,9=2,10=2,19=2,28=1/1;
 99/9=1/99;
 ---------------------------------------
 cis-1,2-dichloroethylene, B3LYP/pcseg-2
 ---------------------------------------
 Symbolic Z-matrix:
 Charge =  0 Multiplicity = 1
 C                     0.        0.66211   0.95718 
 C                     0.       -0.66211   0.95718 
 Cl                    0.        1.66113  -0.44884 
 Cl                    0.       -1.66113  -0.44884 
 H                     0.        1.20924   1.88724 
 H                     0.       -1.20924   1.88724 
 

 GradGradGradGradGradGradGradGradGradGradGradGradGradGradGradGradGradGrad
 Berny optimization.
 Initialization pass.
                           ----------------------------
                           !    Initial Parameters    !
                           ! (Angstroms and Degrees)  !
 --------------------------                            --------------------------
 ! Name  Definition              Value          Derivative Info.                !
 --------------------------------------------------------------------------------
 ! R1    R(1,2)                  1.3242         estimate D2E/DX2                !
 ! R2    R(1,3)                  1.7248         estimate D2E/DX2                !
 ! R3    R(1,5)                  1.0791         estimate D2E/DX2                !
 ! R4    R(2,4)                  1.7248         estimate D2E/DX2                !
 ! R5    R(2,6)                  1.0791         estimate D2E/DX2                !
 ! A1    A(2,1,3)              125.3949         estimate D2E/DX2                !
 ! A2    A(2,1,5)              120.4675         estimate D2E/DX2                !
 ! A3    A(3,1,5)              114.1376         estimate D2E/DX2                !
 ! A4    A(1,2,4)              125.3949         estimate D2E/DX2                !
 ! A5    A(1,2,6)              120.4675         estimate D2E/DX2                !
 ! A6    A(4,2,6)              114.1376         estimate D2E/DX2                !
 ! D1    D(3,1,2,4)              0.0            estimate D2E/DX2                !
 ! D2    D(3,1,2,6)            180.0            estimate D2E/DX2                !
 ! D3    D(5,1,2,4)            180.0            estimate D2E/DX2                !
 ! D4    D(5,1,2,6)              0.0            estimate D2E/DX2                !
 --------------------------------------------------------------------------------
 Trust Radius=3.00D-01 FncErr=1.00D-07 GrdErr=1.00D-06 EigMax=2.50D+02 EigMin=1.00D-04
 Number of steps in this run=     25 maximum allowed number of steps=    100.
 GradGradGradGradGradGradGradGradGradGradGradGradGradGradGradGradGradGrad

                          Input orientation:                          
 ---------------------------------------------------------------------
 Center     Atomic      Atomic             Coordinates (Angstroms)
 Number     Number       Type             X           Y           Z
 ---------------------------------------------------------------------
      1          6           0        0.000000    0.662107    0.957182
      2          6           0        0.000000   -0.662107    0.957182
      3         17           0        0.000000    1.661129   -0.448843
      4         17           0        0.000000   -1.661129   -0.448843
      5          1           0        0.000000    1.209241    1.887237
      6          1           0        0.000000   -1.209241    1.887237
 ---------------------------------------------------------------------
                    Distance matrix (angstroms):
                    1          2          3          4          5
     1  C    0.000000
     2  C    1.324214   0.000000
     3  Cl   1.724805   2.715572   0.000000
     4  Cl   2.715572   1.724805   3.322258   0.000000
     5  H    1.079054   2.089724   2.379385   3.700850   0.000000
     6  H    2.089724   1.079054   3.700850   2.379385   2.418482
                    6
     6  H    0.000000
 Stoichiometry    C2H2Cl2
 Framework group  C2V[SGV(C2H2Cl2)]
 Deg. of freedom     5
 Full point group                 C2V     NOp   4
 Largest Abelian subgroup         C2V     NOp   4
 Largest concise Abelian subgroup C2      NOp   2
                         Standard orientation:                         
 ---------------------------------------------------------------------
 Center     Atomic      Atomic             Coordinates (Angstroms)
 Number     Number       Type             X           Y           Z
 ---------------------------------------------------------------------
      1          6           0        0.000000    0.662107    0.957182
      2          6           0       -0.000000   -0.662107    0.957182
      3         17           0        0.000000    1.661129   -0.448843
      4         17           0       -0.000000   -1.661129   -0.448843
      5          1           0        0.000000    1.209241    1.887237
      6          1           0       -0.000000   -1.209241    1.887237
 ---------------------------------------------------------------------
 Rotational constants (GHZ):          11.7432985           2.4479339           2.0256746
 General basis read from cards:  (5D, 7F)
 There are    62 symmetry adapted cartesian basis functions of A1  symmetry.
 There are    27 symmetry adapted cartesian basis functions of A2  symmetry.
 There are    27 symmetry adapted cartesian basis functions of B1  symmetry.
 There are    62 symmetry adapted cartesian basis functions of B2  symmetry.
 There are    53 symmetry adapted basis functions of A1  symmetry.
 There are    25 symmetry adapted basis functions of A2  symmetry.
 There are    25 symmetry adapted basis functions of B1  symmetry.
 There are    53 symmetry adapted basis functions of B2  symmetry.
   156 basis functions,   278 primitive gaussians,   178 cartesian basis functions
    24 alpha electrons       24 beta electrons
       nuclear repulsion energy       184.3255056992 Hartrees.
 NAtoms=    6 NActive=    6 NUniq=    3 SFac= 4.00D+00 NAtFMM=   60 NAOKFM=F Big=F
 Integral buffers will be    131072 words long.
 Raffenetti 2 integral format.
 Two-electron integral symmetry is turned on.
 One-electron integrals computed using PRISM.
 NBasis=   156 RedAO= T EigKep=  4.03D-04  NBF=    53    25    25    53
 NBsUse=   156 1.00D-06 EigRej= -1.00D+00 NBFU=    53    25    25    53
 ExpMin= 7.42D-02 ExpMax= 1.54D+05 ExpMxC= 1.49D+03 IAcc=3 IRadAn=         5 AccDes= 0.00D+00
 Harris functional with IExCor=  402 and IRadAn=       5 diagonalized for initial guess.
 HarFok:  IExCor=  402 AccDes= 0.00D+00 IRadAn=         5 IDoV= 1 UseB2=F ITyADJ=14
 ICtDFT=  3500011 ScaDFX=  1.000000  1.000000  1.000000  1.000000
 FoFCou: FMM=F IPFlag=           0 FMFlag=      100000 FMFlg1=           0
         NFxFlg=           0 DoJE=T BraDBF=F KetDBF=T FulRan=T
         wScrn=  0.000000 ICntrl=       500 IOpCl=  0 I1Cent=   200000004 NGrid=           0
         NMat0=    1 NMatS0=      1 NMatT0=    0 NMatD0=    1 NMtDS0=    0 NMtDT0=    0
 Petite list used in FoFCou.
 Initial guess orbital symmetries:
       Occupied  (B2) (A1) (A1) (B2) (B2) (A1) (B2) (A1) (B2) (A1)
                 (A2) (B1) (A1) (B2) (A1) (B2) (A1) (A1) (B2) (B1)
                 (A2) (A1) (B2) (B1)
       Virtual   (A2) (A1) (A1) (B2) (B2) (A1) (B1) (A1) (B2) (A1)
                 (A2) (B2) (A1) (B2) (A1) (B2) (A1) (B1) (B2) (A2)
                 (B2) (B1) (B2) (B1) (A1) (A2) (A2) (B2) (A1) (B1)
                 (B2) (A1) (A1) (B2) (A2) (A1) (B2) (A1) (B1) (B2)
                 (A1) (B2) (A1) (B1) (B1) (A2) (A1) (B2) (A2) (B2)
                 (A2) (A1) (B2) (B2) (A1) (A1) (B2) (B2) (A1) (B1)
                 (B1) (A2) (B2) (A1) (B1) (A2) (A1) (B1) (A2) (B2)
                 (A1) (A1) (B2) (A2) (B2) (A1) (A1) (B2) (B2) (B1)
                 (B1) (B2) (A1) (B1) (A2) (A1) (A2) (A1) (B1) (A1)
                 (B2) (B2) (A2) (A1) (B2) (A1) (A2) (B1) (B2) (B1)
                 (A1) (B2) (B1) (A1) (A2) (B2) (B1) (A2) (B1) (B2)
                 (A1) (A2) (B2) (A1) (A2) (A1) (B2) (A2) (B2) (B2)
                 (B1) (A1) (A1) (B2) (A2) (A1) (A1) (B2) (B2) (B2)
                 (A1) (B2)
 The electronic state of the initial guess is 1-A1.
 Keep R1 ints in memory in symmetry-blocked form, NReq=94109865.
 Requested convergence on RMS density matrix=1.00D-08 within 128 cycles.
 Requested convergence on MAX density matrix=1.00D-06.
 Requested convergence on             energy=1.00D-06.
 No special actions if energy rises.
 Integral accuracy reduced to 1.0D-05 until final iterations.
 Initial convergence to 1.0D-05 achieved.  Increase integral accuracy.
 SCF Done:  E(RB3LYP) =  -997.894694628     A.U. after   12 cycles
            NFock= 12  Conv=0.25D-08     -V/T= 2.0011

 **********************************************************************

            Population analysis using the SCF Density.

 **********************************************************************

 Orbital symmetries:
       Occupied  (B2) (A1) (A1) (B2) (B2) (A1) (B2) (A1) (A2) (B1)
                 (B2) (A1) (A1) (B2) (A1) (B2) (A1) (A1) (B2) (B1)
                 (A2) (A1) (B2) (B1)
       Virtual   (A2) (A1) (A1) (B2) (B2) (A1) (B1) (B2) (A1) (A2)
                 (A1) (B2) (A1) (B2) (A1) (B1) (A1) (B2) (B2) (A2)
                 (B2) (B1) (B2) (B1) (A1) (A2) (A2) (B2) (A1) (B2)
                 (A1) (B1) (B2) (A1) (A2) (A1) (A1) (B2) (B1) (B2)
                 (B2) (A1) (A1) (B1) (B1) (A2) (A1) (B2) (A2) (B2)
                 (A2) (A1) (B2) (A1) (B2) (A1) (B2) (B2) (B1) (B1)
                 (A2) (A1) (B2) (A1) (B1) (A2) (A1) (A2) (B1) (B2)
                 (A1) (A1) (B2) (A2) (B2) (A1) (A1) (B2) (B2) (B1)
                 (B1) (B2) (A1) (B1) (A2) (A1) (A2) (A1) (B1) (B2)
                 (A1) (B2) (A2) (A1) (B2) (A2) (A1) (B1) (B2) (B1)
                 (A1) (B2) (B1) (A1) (A2) (B2) (B1) (A2) (B1) (B2)
                 (A1) (A2) (B2) (A1) (A2) (A1) (B2) (A2) (B2) (B2)
                 (B1) (A1) (A1) (B2) (A2) (A1) (A1) (B2) (B2) (B2)
                 (A1) (B2)
 The electronic state is 1-A1.
 Alpha  occ. eigenvalues -- -101.52910-101.52910 -10.24979 -10.24882  -9.47407
 Alpha  occ. eigenvalues --   -9.47407  -7.23567  -7.23567  -7.22720  -7.22720
 Alpha  occ. eigenvalues --   -7.22641  -7.22641  -0.90897  -0.86552  -0.75072
 Alpha  occ. eigenvalues --   -0.58723  -0.52313  -0.47457  -0.41668  -0.40426
 Alpha  occ. eigenvalues --   -0.35349  -0.33371  -0.32322  -0.26675
 Alpha virt. eigenvalues --   -0.02887   0.00244   0.01343   0.03217   0.09000
 Alpha virt. eigenvalues --    0.11723   0.16094   0.16358   0.18004   0.23194
 Alpha virt. eigenvalues --    0.23705   0.24591   0.27616   0.29832   0.31463
 Alpha virt. eigenvalues --    0.32289   0.32461   0.32640   0.35938   0.36559
 Alpha virt. eigenvalues --    0.47440   0.48009   0.51738   0.53776   0.54834
 Alpha virt. eigenvalues --    0.54924   0.56169   0.63578   0.64225   0.71211
 Alpha virt. eigenvalues --    0.71313   0.71495   0.78635   0.79166   0.91092
 Alpha virt. eigenvalues --    0.93741   0.97086   0.97907   1.04085   1.07086
 Alpha virt. eigenvalues --    1.11949   1.12515   1.16707   1.18733   1.24128
 Alpha virt. eigenvalues --    1.33939   1.38560   1.43127   1.47504   1.52209
 Alpha virt. eigenvalues --    1.54302   1.65352   1.69367   1.77621   1.78161
 Alpha virt. eigenvalues --    1.95532   1.98643   2.06565   2.09819   2.10545
 Alpha virt. eigenvalues --    2.10579   2.10617   2.11514   2.12011   2.14966
 Alpha virt. eigenvalues --    2.18676   2.19968   2.21004   2.21804   2.24276
 Alpha virt. eigenvalues --    2.25331   2.30684   2.33955   2.37735   2.42276
 Alpha virt. eigenvalues --    2.46618   2.52213   2.53768   2.85802   3.06019
 Alpha virt. eigenvalues --    3.15527   3.16593   3.25161   3.28950   3.34267
 Alpha virt. eigenvalues --    3.40564   3.47402   3.47749   3.50531   3.54286
 Alpha virt. eigenvalues --    3.54634   3.56644   3.65441   3.70115   3.70467
 Alpha virt. eigenvalues --    3.83575   3.83588   3.85531   3.97537   4.02298
 Alpha virt. eigenvalues --    4.06604   4.08754   4.13073   4.20102   4.23083
 Alpha virt. eigenvalues --    4.25733   4.33404   4.35263   4.38649   4.38821
 Alpha virt. eigenvalues --    4.39001   4.48729   4.55838   4.58314   4.63565
 Alpha virt. eigenvalues --    4.77174   4.80429   4.90753   4.99499   5.23450
 Alpha virt. eigenvalues --    5.25612   5.32413   5.39957   5.48583   5.58433
 Alpha virt. eigenvalues --    5.73828   5.76364   5.85994   6.11630   6.19811
 Alpha virt. eigenvalues --   32.81408  33.46879
          Condensed to atoms (all electrons):
               1          2          3          4          5          6
     1  C    4.846881   0.555748   0.317985  -0.084984   0.425506  -0.045056
     2  C    0.555748   4.846881  -0.084984   0.317985  -0.045056   0.425506
     3  Cl   0.317985  -0.084984  16.907285  -0.001743  -0.059031   0.005676
     4  Cl  -0.084984   0.317985  -0.001743  16.907285   0.005676  -0.059031
     5  H    0.425506  -0.045056  -0.059031   0.005676   0.576401  -0.004761
     6  H   -0.045056   0.425506   0.005676  -0.059031  -0.004761   0.576401
 Mulliken charges:
               1
     1  C   -0.016080
     2  C   -0.016080
     3  Cl  -0.085186
     4  Cl  -0.085186
     5  H    0.101266
     6  H    0.101266
 Sum of Mulliken charges =  -0.00000
 Mulliken charges with hydrogens summed into heavy atoms:
               1
     1  C    0.085186
     2  C    0.085186
     3  Cl  -0.085186
     4  Cl  -0.085186
 Electronic spatial extent (au):  <R**2>=            534.8177
 Charge=             -0.0000 electrons
 Dipole moment (field-independent basis, Debye):
    X=              0.0000    Y=              0.0000    Z=              1.8879  Tot=              1.8879
 Quadrupole moment (field-independent basis, Debye-Ang):
   XX=            -38.7075   YY=            -37.8225   ZZ=            -32.9534
   XY=             -0.0000   XZ=             -0.0000   YZ=              0.0000
 Traceless Quadrupole moment (field-independent basis, Debye-Ang):
   XX=             -2.2130   YY=             -1.3280   ZZ=              3.5411
   XY=             -0.0000   XZ=             -0.0000   YZ=              0.0000
 Octapole moment (field-independent basis, Debye-Ang**2):
  XXX=              0.0000  YYY=              0.0000  ZZZ=              1.6361  XYY=              0.0000
  XXY=             -0.0000  XXZ=             -2.5346  XZZ=              0.0000  YZZ=              0.0000
  YYZ=             -0.6748  XYZ=              0.0000
 Hexadecapole moment (field-independent basis, Debye-Ang**3):
 XXXX=            -45.1863 YYYY=           -503.3428 ZZZZ=           -139.8175 XXXY=             -0.0000
 XXXZ=             -0.0000 YYYX=             -0.0000 YYYZ=             -0.0000 ZZZX=             -0.0000
 ZZZY=              0.0000 XXYY=            -92.9838 XXZZ=            -36.1934 YYZZ=            -93.5927
 XXYZ=              0.0000 YYXZ=             -0.0000 ZZXY=             -0.0000
 N-N= 1.843255056992D+02 E-N=-2.737950099605D+03  KE= 9.967797544477D+02
 Symmetry A1   KE= 4.523255678667D+02
 Symmetry A2   KE= 4.589949274000D+01
 Symmetry B1   KE= 4.840877162635D+01
 Symmetry B2   KE= 4.501459222146D+02
 Calling FoFJK, ICntrl=      2127 FMM=F ISym2X=1 I1Cent= 0 IOpClX= 0 NMat=1 NMatS=1 NMatT=0.
 ***** Axes restored to original set *****
 -------------------------------------------------------------------
 Center     Atomic                   Forces (Hartrees/Bohr)
 Number     Number              X              Y              Z
 -------------------------------------------------------------------
      1        6          -0.000000000    0.000158609   -0.000163056
      2        6          -0.000000000   -0.000158609   -0.000163056
      3       17           0.000000000   -0.000057477    0.000079455
      4       17           0.000000000    0.000057477    0.000079455
      5        1           0.000000000   -0.000013161    0.000083601
      6        1           0.000000000    0.000013161    0.000083601
 -------------------------------------------------------------------
 Cartesian Forces:  Max     0.000163056 RMS     0.000087256

 GradGradGradGradGradGradGradGradGradGradGradGradGradGradGradGradGradGrad
 Berny optimization.
 FormGI is forming the generalized inverse of G from B-inverse, IUseBI=4.
 Internal  Forces:  Max     0.000098062 RMS     0.000058390
 Search for a local minimum.
 Step number   1 out of a maximum of   25
 All quantities printed in internal units (Hartrees-Bohrs-Radians)
 Mixed Optimization -- En-DIIS/RFO-DIIS
 Second derivative matrix not updated -- first step.
 The second derivative matrix:
                          R1        R2        R3        R4        R5
           R1           0.60893
           R2           0.00000   0.33063
           R3           0.00000   0.00000   0.36109
           R4           0.00000   0.00000   0.00000   0.33063
           R5           0.00000   0.00000   0.00000   0.00000   0.36109
           A1           0.00000   0.00000   0.00000   0.00000   0.00000
           A2           0.00000   0.00000   0.00000   0.00000   0.00000
           A3           0.00000   0.00000   0.00000   0.00000   0.00000
           A4           0.00000   0.00000   0.00000   0.00000   0.00000
           A5           0.00000   0.00000   0.00000   0.00000   0.00000
           A6           0.00000   0.00000   0.00000   0.00000   0.00000
           D1           0.00000   0.00000   0.00000   0.00000   0.00000
           D2           0.00000   0.00000   0.00000   0.00000   0.00000
           D3           0.00000   0.00000   0.00000   0.00000   0.00000
           D4           0.00000   0.00000   0.00000   0.00000   0.00000
                          A1        A2        A3        A4        A5
           A1           0.25000
           A2           0.00000   0.16000
           A3           0.00000   0.00000   0.16000
           A4           0.00000   0.00000   0.00000   0.25000
           A5           0.00000   0.00000   0.00000   0.00000   0.16000
           A6           0.00000   0.00000   0.00000   0.00000   0.00000
           D1           0.00000   0.00000   0.00000   0.00000   0.00000
           D2           0.00000   0.00000   0.00000   0.00000   0.00000
           D3           0.00000   0.00000   0.00000   0.00000   0.00000
           D4           0.00000   0.00000   0.00000   0.00000   0.00000
                          A6        D1        D2        D3        D4
           A6           0.16000
           D1           0.00000   0.03091
           D2           0.00000   0.00000   0.03091
           D3           0.00000   0.00000   0.00000   0.03091
           D4           0.00000   0.00000   0.00000   0.00000   0.03091
 ITU=  0
     Eigenvalues ---    0.03091   0.03091   0.03091   0.16000   0.16000
     Eigenvalues ---    0.22000   0.22000   0.33063   0.33063   0.36109
     Eigenvalues ---    0.36109   0.60893
 RFO step:  Lambda=-1.86019174D-07 EMin= 3.09125930D-02
 Linear search not attempted -- first point.
 Iteration  1 RMS(Cart)=  0.00029536 RMS(Int)=  0.00000007
 Iteration  2 RMS(Cart)=  0.00000007 RMS(Int)=  0.00000000
 ClnCor:  largest displacement from symmetrization is 4.34D-13 for atom     2.
 Variable       Old X    -DE/DX   Delta X   Delta X   Delta X     New X
                                 (Linear)    (Quad)   (Total)
    R1        2.50240   0.00009   0.00000   0.00014   0.00014   2.50255
    R2        3.25941  -0.00010   0.00000  -0.00030  -0.00030   3.25911
    R3        2.03912   0.00007   0.00000   0.00018   0.00018   2.03930
    R4        3.25941  -0.00010   0.00000  -0.00030  -0.00030   3.25911
    R5        2.03912   0.00007   0.00000   0.00018   0.00018   2.03930
    A1        2.18855   0.00003   0.00000   0.00016   0.00016   2.18871
    A2        2.10255  -0.00007   0.00000  -0.00042  -0.00042   2.10213
    A3        1.99208   0.00004   0.00000   0.00026   0.00026   1.99234
    A4        2.18855   0.00003   0.00000   0.00016   0.00016   2.18871
    A5        2.10255  -0.00007   0.00000  -0.00042  -0.00042   2.10213
    A6        1.99208   0.00004   0.00000   0.00026   0.00026   1.99234
    D1       -0.00000  -0.00000   0.00000  -0.00000   0.00000   0.00000
    D2        3.14159  -0.00000   0.00000  -0.00000   0.00000   3.14159
    D3        3.14159   0.00000   0.00000   0.00000   0.00000   3.14159
    D4        0.00000  -0.00000   0.00000  -0.00000   0.00000   0.00000
         Item               Value     Threshold  Converged?
 Maximum Force            0.000098     0.000450     YES
 RMS     Force            0.000058     0.000300     YES
 Maximum Displacement     0.000577     0.001800     YES
 RMS     Displacement     0.000295     0.001200     YES
 Predicted change in Energy=-9.300959D-08
 Optimization completed.
    -- Stationary point found.
                           ----------------------------
                           !   Optimized Parameters   !
                           ! (Angstroms and Degrees)  !
 --------------------------                            --------------------------
 ! Name  Definition              Value          Derivative Info.                !
 --------------------------------------------------------------------------------
 ! R1    R(1,2)                  1.3242         -DE/DX =    0.0001              !
 ! R2    R(1,3)                  1.7248         -DE/DX =   -0.0001              !
 ! R3    R(1,5)                  1.0791         -DE/DX =    0.0001              !
 ! R4    R(2,4)                  1.7248         -DE/DX =   -0.0001              !
 ! R5    R(2,6)                  1.0791         -DE/DX =    0.0001              !
 ! A1    A(2,1,3)              125.3949         -DE/DX =    0.0                 !
 ! A2    A(2,1,5)              120.4675         -DE/DX =   -0.0001              !
 ! A3    A(3,1,5)              114.1376         -DE/DX =    0.0                 !
 ! A4    A(1,2,4)              125.3949         -DE/DX =    0.0                 !
 ! A5    A(1,2,6)              120.4675         -DE/DX =   -0.0001              !
 ! A6    A(4,2,6)              114.1376         -DE/DX =    0.0                 !
 ! D1    D(3,1,2,4)              0.0            -DE/DX =    0.0                 !
 ! D2    D(3,1,2,6)            180.0            -DE/DX =    0.0                 !
 ! D3    D(5,1,2,4)            180.0            -DE/DX =    0.0                 !
 ! D4    D(5,1,2,6)              0.0            -DE/DX =    0.0                 !
 --------------------------------------------------------------------------------
 GradGradGradGradGradGradGradGradGradGradGradGradGradGradGradGradGradGrad

                          Input orientation:                          
 ---------------------------------------------------------------------
 Center     Atomic      Atomic             Coordinates (Angstroms)
 Number     Number       Type             X           Y           Z
 ---------------------------------------------------------------------
      1          6           0        0.000000    0.662107    0.957182
      2          6           0       -0.000000   -0.662107    0.957182
      3         17           0        0.000000    1.661129   -0.448843
      4         17           0       -0.000000   -1.661129   -0.448843
      5          1           0        0.000000    1.209241    1.887237
      6          1           0       -0.000000   -1.209241    1.887237
 ---------------------------------------------------------------------
                    Distance matrix (angstroms):
                    1          2          3          4          5
     1  C    0.000000
     2  C    1.324214   0.000000
     3  Cl   1.724805   2.715572   0.000000
     4  Cl   2.715572   1.724805   3.322258   0.000000
     5  H    1.079054   2.089724   2.379385   3.700850   0.000000
     6  H    2.089724   1.079054   3.700850   2.379385   2.418482
                    6
     6  H    0.000000
 Stoichiometry    C2H2Cl2
 Framework group  C2V[SGV(C2H2Cl2)]
 Deg. of freedom     5
 Full point group                 C2V     NOp   4
 Largest Abelian subgroup         C2V     NOp   4
 Largest concise Abelian subgroup C2      NOp   2
                         Standard orientation:                         
 ---------------------------------------------------------------------
 Center     Atomic      Atomic             Coordinates (Angstroms)
 Number     Number       Type             X           Y           Z
 ---------------------------------------------------------------------
      1          6           0       -0.000000    0.662107    0.957182
      2          6           0       -0.000000   -0.662107    0.957182
      3         17           0       -0.000000    1.661129   -0.448843
      4         17           0       -0.000000   -1.661129   -0.448843
      5          1           0       -0.000000    1.209241    1.887237
      6          1           0       -0.000000   -1.209241    1.887237
 ---------------------------------------------------------------------
 Rotational constants (GHZ):          11.7432985           2.4479339           2.0256746
 1\1\GINC-GAMBA\FOpt\RB3LYP\Gen\C2H2Cl2\IRIKURA\29-Sep-2023\0\\# b3lyp/
 gen opt freq CPHF(Grid=OneStep)\\cis-1,2-dichloroethylene, B3LYP/pcseg
 -2\\0,1\C,0.,0.662107,0.957182\C,0.,-0.662107,0.957182\Cl,0.,1.661129,
 -0.448843\Cl,0.,-1.661129,-0.448843\H,0.,1.209241,1.887237\H,0.,-1.209
 241,1.887237\\Version=ES64L-G16RevB.01\State=1-A1\HF=-997.8946946\RMSD
 =2.470e-09\RMSF=8.726e-05\Dipole=0.,0.,0.7427401\Quadrupole=-1.6453339
 ,-0.9873621,2.6326959,0.,0.,0.\PG=C02V [SGV(C2H2Cl2)]\\@


 SACRED COWS MAKE GREAT HAMBURGERS -- ROBERT REISNER
 Job cpu time:       0 days  0 hours  0 minutes 31.8 seconds.
 Elapsed time:       0 days  0 hours  0 minutes  8.0 seconds.
 File lengths (MBytes):  RWF=     14 Int=      0 D2E=      0 Chk=      3 Scr=      1
 Normal termination of Gaussian 16 at Fri Sep 29 16:55:38 2023.
 Link1:  Proceeding to internal job step number  2.
 ------------------------------------------------------------------
 #N Geom=AllCheck Guess=TCheck SCRF=Check GenChk RB3LYP/ChkBas Freq
 ------------------------------------------------------------------
 1/10=4,29=7,30=1,38=1,40=1/1,3;
 2/12=2,40=1/2;
 3/5=7,6=2,11=2,14=-4,25=1,30=1,67=1,70=2,71=2,74=-5,82=7,116=1,140=1/1,2,3;
 4/5=101/1;
 5/5=2,38=6,98=1/2;
 8/6=4,10=90,11=11/1;
 11/6=1,8=1,9=11,15=111,16=1/1,2,10;
 10/6=1,60=-420/2;
 6/7=2,8=2,9=2,10=2,28=1/1;
 7/8=1,10=1,25=1/1,2,3,16;
 1/10=4,30=1/3;
 99//99;
 Structure from the checkpoint file:  "chclchcl.chk"
 ---------------------------------------
 cis-1,2-dichloroethylene, B3LYP/pcseg-2
 ---------------------------------------
 Charge =  0 Multiplicity = 1
 Redundant internal coordinates found in file.  (old form).
 C,0,0.,0.662107,0.957182
 C,0,0.,-0.662107,0.957182
 Cl,0,0.,1.661129,-0.448843
 Cl,0,0.,-1.661129,-0.448843
 H,0,0.,1.209241,1.887237
 H,0,0.,-1.209241,1.887237
 Recover connectivity data from disk.

 GradGradGradGradGradGradGradGradGradGradGradGradGradGradGradGradGradGrad
 Berny optimization.
 Initialization pass.
                           ----------------------------
                           !    Initial Parameters    !
                           ! (Angstroms and Degrees)  !
 --------------------------                            --------------------------
 ! Name  Definition              Value          Derivative Info.                !
 --------------------------------------------------------------------------------
 ! R1    R(1,2)                  1.3242         calculate D2E/DX2 analytically  !
 ! R2    R(1,3)                  1.7248         calculate D2E/DX2 analytically  !
 ! R3    R(1,5)                  1.0791         calculate D2E/DX2 analytically  !
 ! R4    R(2,4)                  1.7248         calculate D2E/DX2 analytically  !
 ! R5    R(2,6)                  1.0791         calculate D2E/DX2 analytically  !
 ! A1    A(2,1,3)              125.3949         calculate D2E/DX2 analytically  !
 ! A2    A(2,1,5)              120.4675         calculate D2E/DX2 analytically  !
 ! A3    A(3,1,5)              114.1376         calculate D2E/DX2 analytically  !
 ! A4    A(1,2,4)              125.3949         calculate D2E/DX2 analytically  !
 ! A5    A(1,2,6)              120.4675         calculate D2E/DX2 analytically  !
 ! A6    A(4,2,6)              114.1376         calculate D2E/DX2 analytically  !
 ! D1    D(3,1,2,4)              0.0            calculate D2E/DX2 analytically  !
 ! D2    D(3,1,2,6)            180.0            calculate D2E/DX2 analytically  !
 ! D3    D(5,1,2,4)            180.0            calculate D2E/DX2 analytically  !
 ! D4    D(5,1,2,6)              0.0            calculate D2E/DX2 analytically  !
 --------------------------------------------------------------------------------
 Trust Radius=3.00D-01 FncErr=1.00D-07 GrdErr=1.00D-07 EigMax=2.50D+02 EigMin=1.00D-04
 Number of steps in this run=      2 maximum allowed number of steps=      2.
 GradGradGradGradGradGradGradGradGradGradGradGradGradGradGradGradGradGrad

                          Input orientation:                          
 ---------------------------------------------------------------------
 Center     Atomic      Atomic             Coordinates (Angstroms)
 Number     Number       Type             X           Y           Z
 ---------------------------------------------------------------------
      1          6           0        0.000000    0.662107    0.957182
      2          6           0       -0.000000   -0.662107    0.957182
      3         17           0        0.000000    1.661129   -0.448843
      4         17           0       -0.000000   -1.661129   -0.448843
      5          1           0        0.000000    1.209241    1.887237
      6          1           0       -0.000000   -1.209241    1.887237
 ---------------------------------------------------------------------
                    Distance matrix (angstroms):
                    1          2          3          4          5
     1  C    0.000000
     2  C    1.324214   0.000000
     3  Cl   1.724805   2.715572   0.000000
     4  Cl   2.715572   1.724805   3.322258   0.000000
     5  H    1.079054   2.089724   2.379385   3.700850   0.000000
     6  H    2.089724   1.079054   3.700850   2.379385   2.418482
                    6
     6  H    0.000000
 Stoichiometry    C2H2Cl2
 Framework group  C2V[SGV(C2H2Cl2)]
 Deg. of freedom     5
 Full point group                 C2V     NOp   4
 Largest Abelian subgroup         C2V     NOp   4
 Largest concise Abelian subgroup C2      NOp   2
                         Standard orientation:                         
 ---------------------------------------------------------------------
 Center     Atomic      Atomic             Coordinates (Angstroms)
 Number     Number       Type             X           Y           Z
 ---------------------------------------------------------------------
      1          6           0        0.000000    0.662107    0.957182
      2          6           0       -0.000000   -0.662107    0.957182
      3         17           0       -0.000000    1.661129   -0.448843
      4         17           0       -0.000000   -1.661129   -0.448843
      5          1           0        0.000000    1.209241    1.887237
      6          1           0       -0.000000   -1.209241    1.887237
 ---------------------------------------------------------------------
 Rotational constants (GHZ):          11.7432985           2.4479339           2.0256746
 Basis read from chk: "chclchcl.chk" (5D, 7F)
 There are    62 symmetry adapted cartesian basis functions of A1  symmetry.
 There are    27 symmetry adapted cartesian basis functions of A2  symmetry.
 There are    27 symmetry adapted cartesian basis functions of B1  symmetry.
 There are    62 symmetry adapted cartesian basis functions of B2  symmetry.
 There are    53 symmetry adapted basis functions of A1  symmetry.
 There are    25 symmetry adapted basis functions of A2  symmetry.
 There are    25 symmetry adapted basis functions of B1  symmetry.
 There are    53 symmetry adapted basis functions of B2  symmetry.
   156 basis functions,   278 primitive gaussians,   178 cartesian basis functions
    24 alpha electrons       24 beta electrons
       nuclear repulsion energy       184.3255056992 Hartrees.
 NAtoms=    6 NActive=    6 NUniq=    3 SFac= 4.00D+00 NAtFMM=   60 NAOKFM=F Big=F
 Integral buffers will be    131072 words long.
 Raffenetti 2 integral format.
 Two-electron integral symmetry is turned on.
 One-electron integrals computed using PRISM.
 NBasis=   156 RedAO= T EigKep=  4.03D-04  NBF=    53    25    25    53
 NBsUse=   156 1.00D-06 EigRej= -1.00D+00 NBFU=    53    25    25    53
 Initial guess from the checkpoint file:  "chclchcl.chk"
 B after Tr=     0.000000    0.000000   -0.000000
         Rot=    1.000000   -0.000000    0.000000   -0.000000 Ang=   0.00 deg.
 Initial guess orbital symmetries:
       Occupied  (B2) (A1) (A1) (B2) (B2) (A1) (B2) (A1) (A2) (B1)
                 (B2) (A1) (A1) (B2) (A1) (B2) (A1) (A1) (B2) (B1)
                 (A2) (A1) (B2) (B1)
       Virtual   (A2) (A1) (A1) (B2) (B2) (A1) (B1) (B2) (A1) (A2)
                 (A1) (B2) (A1) (B2) (A1) (B1) (A1) (B2) (B2) (A2)
                 (B2) (B1) (B2) (B1) (A1) (A2) (A2) (B2) (A1) (B2)
                 (A1) (B1) (B2) (A1) (A2) (A1) (A1) (B2) (B1) (B2)
                 (B2) (A1) (A1) (B1) (B1) (A2) (A1) (B2) (A2) (B2)
                 (A2) (A1) (B2) (A1) (B2) (A1) (B2) (B2) (B1) (B1)
                 (A2) (A1) (B2) (A1) (B1) (A2) (A1) (A2) (B1) (B2)
                 (A1) (A1) (B2) (A2) (B2) (A1) (A1) (B2) (B2) (B1)
                 (B1) (B2) (A1) (B1) (A2) (A1) (A2) (A1) (B1) (B2)
                 (A1) (B2) (A2) (A1) (B2) (A2) (A1) (B1) (B2) (B1)
                 (A1) (B2) (B1) (A1) (A2) (B2) (B1) (A2) (B1) (B2)
                 (A1) (A2) (B2) (A1) (A2) (A1) (B2) (A2) (B2) (B2)
                 (B1) (A1) (A1) (B2) (A2) (A1) (A1) (B2) (B2) (B2)
                 (A1) (B2)
 Keep R1 ints in memory in symmetry-blocked form, NReq=94109865.
 Requested convergence on RMS density matrix=1.00D-08 within 128 cycles.
 Requested convergence on MAX density matrix=1.00D-06.
 Requested convergence on             energy=1.00D-06.
 No special actions if energy rises.
 SCF Done:  E(RB3LYP) =  -997.894694628     A.U. after    1 cycles
            NFock=  1  Conv=0.84D-09     -V/T= 2.0011
 DoSCS=F DFT=T ScalE2(SS,OS)=  1.000000  1.000000
 Range of M.O.s used for correlation:     1   156
 NBasis=   156 NAE=    24 NBE=    24 NFC=     0 NFV=     0
 NROrb=    156 NOA=    24 NOB=    24 NVA=   132 NVB=   132

 **** Warning!!: The largest alpha MO coefficient is  0.12718918D+02

 Symmetrizing basis deriv contribution to polar:
 IMax=3 JMax=2 DiffMx= 0.00D+00
 G2DrvN: will do     7 centers at a time, making    1 passes.
 Calling FoFCou, ICntrl=  3107 FMM=F I1Cent=   0 AccDes= 0.00D+00.
 End of G2Drv F.D. properties file   721 does not exist.
 End of G2Drv F.D. properties file   722 does not exist.
 End of G2Drv F.D. properties file   788 does not exist.
          IDoAtm=111111
          Differentiating once with respect to electric field.
                with respect to dipole field.
          Differentiating once with respect to nuclear coordinates.
 Keep R1 ints in memory in symmetry-blocked form, NReq=94113702.
          There are    12 degrees of freedom in the 1st order CPHF.  IDoFFX=4 NUNeed=    12.
     12 vectors produced by pass  0 Test12= 2.64D-14 8.33D-09 XBig12= 7.02D+01 6.75D+00.
 AX will form    12 AO Fock derivatives at one time.
     12 vectors produced by pass  1 Test12= 2.64D-14 8.33D-09 XBig12= 1.48D+01 1.10D+00.
     12 vectors produced by pass  2 Test12= 2.64D-14 8.33D-09 XBig12= 8.80D-01 2.12D-01.
     12 vectors produced by pass  3 Test12= 2.64D-14 8.33D-09 XBig12= 2.23D-02 3.58D-02.
     12 vectors produced by pass  4 Test12= 2.64D-14 8.33D-09 XBig12= 2.45D-04 3.79D-03.
     12 vectors produced by pass  5 Test12= 2.64D-14 8.33D-09 XBig12= 1.16D-06 1.59D-04.
      9 vectors produced by pass  6 Test12= 2.64D-14 8.33D-09 XBig12= 4.64D-09 1.46D-05.
      4 vectors produced by pass  7 Test12= 2.64D-14 8.33D-09 XBig12= 2.01D-11 8.56D-07.
      3 vectors produced by pass  8 Test12= 2.64D-14 8.33D-09 XBig12= 1.13D-13 6.22D-08.
 InvSVY:  IOpt=1 It=  1 EMax= 9.71D-16
 Solved reduced A of dimension    88 with    12 vectors.
 Isotropic polarizability for W=    0.000000       46.40 Bohr**3.
 End of Minotr F.D. properties file   721 does not exist.
 End of Minotr F.D. properties file   722 does not exist.
 End of Minotr F.D. properties file   788 does not exist.

 **********************************************************************

            Population analysis using the SCF Density.

 **********************************************************************

 Orbital symmetries:
       Occupied  (B2) (A1) (A1) (B2) (B2) (A1) (B2) (A1) (A2) (B1)
                 (B2) (A1) (A1) (B2) (A1) (B2) (A1) (A1) (B2) (B1)
                 (A2) (A1) (B2) (B1)
       Virtual   (A2) (A1) (A1) (B2) (B2) (A1) (B1) (B2) (A1) (A2)
                 (A1) (B2) (A1) (B2) (A1) (B1) (A1) (B2) (B2) (A2)
                 (B2) (B1) (B2) (B1) (A1) (A2) (A2) (B2) (A1) (B2)
                 (A1) (B1) (B2) (A1) (A2) (A1) (A1) (B2) (B1) (B2)
                 (B2) (A1) (A1) (B1) (B1) (A2) (A1) (B2) (A2) (B2)
                 (A2) (A1) (B2) (A1) (B2) (A1) (B2) (B2) (B1) (B1)
                 (A2) (A1) (B2) (A1) (B1) (A2) (A1) (A2) (B1) (B2)
                 (A1) (A1) (B2) (A2) (B2) (A1) (A1) (B2) (B2) (B1)
                 (B1) (B2) (A1) (B1) (A2) (A1) (A2) (A1) (B1) (B2)
                 (A1) (B2) (A2) (A1) (B2) (A2) (A1) (B1) (B2) (B1)
                 (A1) (B2) (B1) (A1) (A2) (B2) (B1) (A2) (B1) (B2)
                 (A1) (A2) (B2) (A1) (A2) (A1) (B2) (A2) (B2) (B2)
                 (B1) (A1) (A1) (B2) (A2) (A1) (A1) (B2) (B2) (B2)
                 (A1) (B2)
 The electronic state is 1-A1.
 Alpha  occ. eigenvalues -- -101.52910-101.52910 -10.24979 -10.24882  -9.47407
 Alpha  occ. eigenvalues --   -9.47407  -7.23567  -7.23567  -7.22720  -7.22720
 Alpha  occ. eigenvalues --   -7.22641  -7.22641  -0.90897  -0.86553  -0.75072
 Alpha  occ. eigenvalues --   -0.58723  -0.52313  -0.47457  -0.41668  -0.40426
 Alpha  occ. eigenvalues --   -0.35349  -0.33371  -0.32322  -0.26675
 Alpha virt. eigenvalues --   -0.02887   0.00244   0.01343   0.03217   0.09000
 Alpha virt. eigenvalues --    0.11723   0.16094   0.16358   0.18004   0.23194
 Alpha virt. eigenvalues --    0.23705   0.24591   0.27616   0.29832   0.31463
 Alpha virt. eigenvalues --    0.32289   0.32461   0.32640   0.35938   0.36559
 Alpha virt. eigenvalues --    0.47440   0.48009   0.51738   0.53776   0.54834
 Alpha virt. eigenvalues --    0.54924   0.56169   0.63578   0.64225   0.71211
 Alpha virt. eigenvalues --    0.71313   0.71495   0.78635   0.79166   0.91092
 Alpha virt. eigenvalues --    0.93741   0.97086   0.97907   1.04085   1.07086
 Alpha virt. eigenvalues --    1.11949   1.12515   1.16707   1.18733   1.24128
 Alpha virt. eigenvalues --    1.33939   1.38560   1.43127   1.47504   1.52209
 Alpha virt. eigenvalues --    1.54302   1.65352   1.69367   1.77621   1.78161
 Alpha virt. eigenvalues --    1.95532   1.98643   2.06565   2.09819   2.10545
 Alpha virt. eigenvalues --    2.10579   2.10617   2.11514   2.12011   2.14966
 Alpha virt. eigenvalues --    2.18676   2.19968   2.21004   2.21804   2.24276
 Alpha virt. eigenvalues --    2.25331   2.30684   2.33955   2.37735   2.42276
 Alpha virt. eigenvalues --    2.46618   2.52213   2.53768   2.85802   3.06019
 Alpha virt. eigenvalues --    3.15527   3.16593   3.25161   3.28950   3.34267
 Alpha virt. eigenvalues --    3.40564   3.47402   3.47749   3.50531   3.54286
 Alpha virt. eigenvalues --    3.54634   3.56644   3.65441   3.70115   3.70467
 Alpha virt. eigenvalues --    3.83575   3.83588   3.85531   3.97537   4.02298
 Alpha virt. eigenvalues --    4.06604   4.08754   4.13073   4.20102   4.23083
 Alpha virt. eigenvalues --    4.25733   4.33404   4.35263   4.38649   4.38821
 Alpha virt. eigenvalues --    4.39001   4.48729   4.55838   4.58314   4.63565
 Alpha virt. eigenvalues --    4.77174   4.80429   4.90753   4.99499   5.23450
 Alpha virt. eigenvalues --    5.25612   5.32413   5.39957   5.48583   5.58433
 Alpha virt. eigenvalues --    5.73828   5.76364   5.85994   6.11630   6.19811
 Alpha virt. eigenvalues --   32.81408  33.46879
          Condensed to atoms (all electrons):
               1          2          3          4          5          6
     1  C    4.846881   0.555748   0.317985  -0.084984   0.425506  -0.045056
     2  C    0.555748   4.846881  -0.084984   0.317985  -0.045056   0.425506
     3  Cl   0.317985  -0.084984  16.907285  -0.001743  -0.059031   0.005676
     4  Cl  -0.084984   0.317985  -0.001743  16.907285   0.005676  -0.059031
     5  H    0.425506  -0.045056  -0.059031   0.005676   0.576401  -0.004761
     6  H   -0.045056   0.425506   0.005676  -0.059031  -0.004761   0.576401
 Mulliken charges:
               1
     1  C   -0.016080
     2  C   -0.016080
     3  Cl  -0.085186
     4  Cl  -0.085186
     5  H    0.101266
     6  H    0.101266
 Sum of Mulliken charges =  -0.00000
 Mulliken charges with hydrogens summed into heavy atoms:
               1
     1  C    0.085186
     2  C    0.085186
     3  Cl  -0.085186
     4  Cl  -0.085186
 APT charges:
               1
     1  C    0.189871
     2  C    0.189871
     3  Cl  -0.238883
     4  Cl  -0.238883
     5  H    0.049012
     6  H    0.049012
 Sum of APT charges =  -0.00000
 APT charges with hydrogens summed into heavy atoms:
               1
     1  C    0.238883
     2  C    0.238883
     3  Cl  -0.238883
     4  Cl  -0.238883
 Electronic spatial extent (au):  <R**2>=            534.8177
 Charge=             -0.0000 electrons
 Dipole moment (field-independent basis, Debye):
    X=              0.0000    Y=              0.0000    Z=              1.8879  Tot=              1.8879
 Quadrupole moment (field-independent basis, Debye-Ang):
   XX=            -38.7075   YY=            -37.8225   ZZ=            -32.9534
   XY=             -0.0000   XZ=             -0.0000   YZ=              0.0000
 Traceless Quadrupole moment (field-independent basis, Debye-Ang):
   XX=             -2.2130   YY=             -1.3280   ZZ=              3.5411
   XY=             -0.0000   XZ=             -0.0000   YZ=              0.0000
 Octapole moment (field-independent basis, Debye-Ang**2):
  XXX=              0.0000  YYY=             -0.0000  ZZZ=              1.6361  XYY=              0.0000
  XXY=              0.0000  XXZ=             -2.5346  XZZ=              0.0000  YZZ=              0.0000
  YYZ=             -0.6748  XYZ=              0.0000
 Hexadecapole moment (field-independent basis, Debye-Ang**3):
 XXXX=            -45.1863 YYYY=           -503.3427 ZZZZ=           -139.8175 XXXY=             -0.0000
 XXXZ=             -0.0000 YYYX=             -0.0000 YYYZ=              0.0000 ZZZX=             -0.0000
 ZZZY=              0.0000 XXYY=            -92.9838 XXZZ=            -36.1934 YYZZ=            -93.5927
 XXYZ=             -0.0000 YYXZ=             -0.0000 ZZXY=             -0.0000
 N-N= 1.843255056992D+02 E-N=-2.737950102558D+03  KE= 9.967797553927D+02
 Symmetry A1   KE= 4.523255681834D+02
 Symmetry A2   KE= 4.589949290405D+01
 Symmetry B1   KE= 4.840877177439D+01
 Symmetry B2   KE= 4.501459225308D+02
  Exact polarizability:  28.596   0.000  63.523   0.000   0.000  47.094
 Approx polarizability:  43.031   0.000  96.575   0.000  -0.000  73.285
 Calling FoFJK, ICntrl=    100127 FMM=F ISym2X=1 I1Cent= 0 IOpClX= 0 NMat=1 NMatS=1 NMatT=0.
 Full mass-weighted force constant matrix:
 Low frequencies ---   -0.6380   -0.0017    0.0030    0.0041    1.4935    6.1899
 Low frequencies ---  166.1175  423.6196  573.8832
 Diagonal vibrational polarizability:
        3.3103008       4.3877344       1.8561787
 Harmonic frequencies (cm**-1), IR intensities (KM/Mole), Raman scattering
 activities (A**4/AMU), depolarization ratios for plane and unpolarized
 incident light, reduced masses (AMU), force constants (mDyne/A),
 and normal coordinates:
                      1                      2                      3
                     A1                     A2                     B2
 Frequencies --    166.1175               423.6196               573.8832
 Red. masses --     26.3324                 3.8123                 9.3610
 Frc consts  --      0.4281                 0.4031                 1.8164
 IR Inten    --      0.2638                 0.0000                 7.5829
  Atom  AN      X      Y      Z        X      Y      Z        X      Y      Z
     1   6    -0.00   0.01  -0.29     0.34  -0.00  -0.00     0.00   0.46   0.21
     2   6     0.00  -0.01  -0.29    -0.34  -0.00  -0.00    -0.00   0.46  -0.21
     3  17     0.00   0.58   0.10    -0.06   0.00  -0.00    -0.00  -0.17   0.11
     4  17    -0.00  -0.58   0.10     0.06   0.00   0.00     0.00  -0.17  -0.11
     5   1    -0.00  -0.22  -0.15     0.62  -0.00  -0.00     0.00   0.35   0.28
     6   1    -0.00   0.22  -0.15    -0.62  -0.00   0.00     0.00   0.35  -0.28
                      4                      5                      6
                     A1                     B1                     B2
 Frequencies --    706.6369               713.7870               848.3481
 Red. masses --      9.0575                 1.2298                 4.4608
 Frc consts  --      2.6647                 0.3692                 1.8915
 IR Inten    --     21.7784                62.6717                88.0967
  Atom  AN      X      Y      Z        X      Y      Z        X      Y      Z
     1   6     0.00   0.05   0.48    -0.10   0.00   0.00     0.00  -0.07   0.35
     2   6     0.00  -0.05   0.48    -0.10  -0.00   0.00    -0.00  -0.07  -0.35
     3  17    -0.00   0.12  -0.17     0.01   0.00  -0.00    -0.00   0.03  -0.09
     4  17    -0.00  -0.12  -0.17     0.01  -0.00  -0.00    -0.00   0.03   0.09
     5   1    -0.00   0.36   0.31     0.70   0.00   0.00    -0.00  -0.33   0.50
     6   1    -0.00  -0.36   0.31     0.70  -0.00   0.00     0.00  -0.33  -0.50
                      7                      8                      9
                     A2                     A1                     B2
 Frequencies --    915.2969              1215.8432              1319.6281
 Red. masses --      1.2552                 1.0444                 1.2256
 Frc consts  --      0.6195                 0.9097                 1.2574
 IR Inten    --      0.0000                 0.0490                28.2680
  Atom  AN      X      Y      Z        X      Y      Z        X      Y      Z
     1   6    -0.11  -0.00   0.00     0.00   0.03  -0.01    -0.00  -0.06   0.08
     2   6     0.11  -0.00  -0.00     0.00  -0.03  -0.01     0.00  -0.06  -0.08
     3  17    -0.00   0.00  -0.00    -0.00   0.00   0.01     0.00   0.00   0.00
     4  17     0.00   0.00   0.00    -0.00  -0.00   0.01    -0.00   0.00  -0.00
     5   1     0.70  -0.00   0.00     0.00   0.61  -0.36    -0.00   0.62  -0.33
     6   1    -0.70  -0.00  -0.00    -0.00  -0.61  -0.36     0.00   0.62   0.33
                     10                     11                     12
                     A1                     B2                     A1
 Frequencies --   1645.8627              3202.9429              3223.4036
 Red. masses --      7.6885                 1.0845                 1.0990
 Frc consts  --     12.2710                 6.5551                 6.7280
 IR Inten    --     42.3902                14.1515                 1.2338
  Atom  AN      X      Y      Z        X      Y      Z        X      Y      Z
     1   6    -0.00   0.55  -0.06     0.00  -0.03  -0.05    -0.00  -0.04  -0.05
     2   6    -0.00  -0.55  -0.06     0.00  -0.03   0.05    -0.00   0.04  -0.05
     3  17     0.00  -0.01   0.01    -0.00   0.00  -0.00     0.00  -0.00   0.00
     4  17    -0.00   0.01   0.01    -0.00   0.00   0.00    -0.00   0.00   0.00
     5   1     0.00  -0.11   0.43    -0.00   0.36   0.60    -0.00   0.37   0.60
     6   1     0.00   0.11   0.43    -0.00   0.36  -0.60     0.00  -0.37   0.60

 -------------------
 - Thermochemistry -
 -------------------
 Temperature   298.150 Kelvin.  Pressure   1.00000 Atm.
 Atom     1 has atomic number  6 and mass  12.00000
 Atom     2 has atomic number  6 and mass  12.00000
 Atom     3 has atomic number 17 and mass  34.96885
 Atom     4 has atomic number 17 and mass  34.96885
 Atom     5 has atomic number  1 and mass   1.00783
 Atom     6 has atomic number  1 and mass   1.00783
 Molecular mass:    95.95336 amu.
 Principal axes and moments of inertia in atomic units:
                           1         2         3
     Eigenvalues --   153.68265 737.25078 890.93343
           X            0.00000   0.00000   1.00000
           Y            1.00000   0.00000  -0.00000
           Z            0.00000   1.00000   0.00000
 This molecule is an asymmetric top.
 Rotational symmetry number  2.
 Rotational temperatures (Kelvin)      0.56359     0.11748     0.09722
 Rotational constants (GHZ):          11.74330     2.44793     2.02567
 Zero-point vibrational energy      89453.0 (Joules/Mol)
                                   21.37977 (Kcal/Mol)
 Warning -- explicit consideration of   3 degrees of freedom as
           vibrations may cause significant error
 Vibrational temperatures:    239.01   609.49   825.69  1016.69  1026.98
          (Kelvin)           1220.58  1316.91  1749.33  1898.65  2368.03
                             4608.32  4637.76
 
 Zero-point correction=                           0.034071 (Hartree/Particle)
 Thermal correction to Energy=                    0.038344
 Thermal correction to Enthalpy=                  0.039288
 Thermal correction to Gibbs Free Energy=         0.006433
 Sum of electronic and zero-point Energies=           -997.860624
 Sum of electronic and thermal Energies=              -997.856351
 Sum of electronic and thermal Enthalpies=            -997.855407
 Sum of electronic and thermal Free Energies=         -997.888262
 
                     E (Thermal)             CV                S
                      KCal/Mol        Cal/Mol-Kelvin    Cal/Mol-Kelvin
 Total                   24.061             13.404             69.150
 Electronic               0.000              0.000              0.000
 Translational            0.889              2.981             39.595
 Rotational               0.889              2.981             24.738
 Vibrational             22.284              7.442              4.817
 Vibration     1          0.624              1.884              2.479
 Vibration     2          0.786              1.419              0.880
 Vibration     3          0.930              1.088              0.497
                       Q            Log10(Q)             Ln(Q)
 Total Bot       0.109946D-02         -2.958820         -6.812935
 Total V=0       0.516017D+13         12.712664         29.271991
 Vib (Bot)       0.523332D-15        -15.281222        -35.186315
 Vib (Bot)    1  0.121467D+01          0.084459          0.194474
 Vib (Bot)    2  0.413348D+00         -0.383684         -0.883466
 Vib (Bot)    3  0.267152D+00         -0.573241         -1.319936
 Vib (V=0)       0.245619D+01          0.390262          0.898611
 Vib (V=0)    1  0.181356D+01          0.258531          0.595289
 Vib (V=0)    2  0.114873D+01          0.060220          0.138661
 Vib (V=0)    3  0.106690D+01          0.028122          0.064753
 Electronic      0.100000D+01          0.000000          0.000000
 Translational   0.369440D+08          7.567544         17.424914
 Rotational      0.568667D+05          4.754858         10.948466
 ***** Axes restored to original set *****
 -------------------------------------------------------------------
 Center     Atomic                   Forces (Hartrees/Bohr)
 Number     Number              X              Y              Z
 -------------------------------------------------------------------
      1        6          -0.000000000    0.000158602   -0.000163019
      2        6          -0.000000000   -0.000158602   -0.000163019
      3       17          -0.000000000   -0.000057459    0.000079424
      4       17           0.000000000    0.000057459    0.000079424
      5        1           0.000000000   -0.000013164    0.000083595
      6        1           0.000000000    0.000013164    0.000083595
 -------------------------------------------------------------------
 Cartesian Forces:  Max     0.000163019 RMS     0.000087242
 FormGI is forming the generalized inverse of G from B-inverse, IUseBI=4.

 GradGradGradGradGradGradGradGradGradGradGradGradGradGradGradGradGradGrad
 Berny optimization.
 Internal  Forces:  Max     0.000098026 RMS     0.000058381
 Search for a local minimum.
 Step number   1 out of a maximum of    2
 All quantities printed in internal units (Hartrees-Bohrs-Radians)
 Second derivative matrix not updated -- analytic derivatives used.
 The second derivative matrix:
                          R1        R2        R3        R4        R5
           R1           0.61723
           R2           0.02796   0.24851
           R3           0.00454   0.00591   0.36314
           R4           0.02796   0.00217  -0.00156   0.24851
           R5           0.00454  -0.00156   0.00068   0.00591   0.36314
           A1           0.02171   0.02308  -0.00743  -0.00929   0.00275
           A2           0.00337  -0.03654   0.00832   0.00883  -0.00178
           A3          -0.02508   0.01346  -0.00089   0.00046  -0.00097
           A4           0.02171  -0.00929   0.00275   0.02308  -0.00743
           A5           0.00337   0.00883  -0.00178  -0.03654   0.00832
           A6          -0.02508   0.00046  -0.00097   0.01346  -0.00089
           D1          -0.00000   0.00000   0.00000   0.00000   0.00000
           D2          -0.00000   0.00000   0.00000  -0.00000  -0.00000
           D3           0.00000   0.00000  -0.00000   0.00000   0.00000
           D4           0.00000   0.00000  -0.00000   0.00000  -0.00000
                          A1        A2        A3        A4        A5
           A1           0.12447
           A2          -0.05913   0.08746
           A3          -0.06534  -0.02833   0.09367
           A4           0.00789   0.00180  -0.00969   0.12447
           A5           0.00180  -0.00381   0.00201  -0.05913   0.08746
           A6          -0.00969   0.00201   0.00768  -0.06534  -0.02833
           D1           0.00000  -0.00000   0.00000   0.00000  -0.00000
           D2           0.00000  -0.00000   0.00000   0.00000  -0.00000
           D3           0.00000   0.00000  -0.00000   0.00000  -0.00000
           D4           0.00000   0.00000  -0.00000  -0.00000  -0.00000
                          A6        D1        D2        D3        D4
           A6           0.09367
           D1          -0.00000   0.02910
           D2          -0.00000   0.00910   0.03154
           D3          -0.00000   0.00910  -0.01678   0.03154
           D4           0.00000  -0.01090   0.00566   0.00566   0.02222
 ITU=  0
     Eigenvalues ---    0.02703   0.03905   0.04832   0.10554   0.10682
     Eigenvalues ---    0.15932   0.19603   0.25559   0.27415   0.36363
     Eigenvalues ---    0.36406   0.62659
 Angle between quadratic step and forces=  27.24 degrees.
 Linear search not attempted -- first point.
 Iteration  1 RMS(Cart)=  0.00051389 RMS(Int)=  0.00000021
 Iteration  2 RMS(Cart)=  0.00000020 RMS(Int)=  0.00000000
 ClnCor:  largest displacement from symmetrization is 1.30D-13 for atom     2.
 Variable       Old X    -DE/DX   Delta X   Delta X   Delta X     New X
                                 (Linear)    (Quad)   (Total)
    R1        2.50240   0.00009   0.00000   0.00022   0.00022   2.50262
    R2        3.25941  -0.00010   0.00000  -0.00054  -0.00054   3.25887
    R3        2.03912   0.00007   0.00000   0.00020   0.00020   2.03932
    R4        3.25941  -0.00010   0.00000  -0.00054  -0.00054   3.25887
    R5        2.03912   0.00007   0.00000   0.00020   0.00020   2.03932
    A1        2.18855   0.00003   0.00000   0.00025   0.00025   2.18880
    A2        2.10255  -0.00007   0.00000  -0.00074  -0.00074   2.10181
    A3        1.99208   0.00004   0.00000   0.00049   0.00049   1.99257
    A4        2.18855   0.00003   0.00000   0.00025   0.00025   2.18880
    A5        2.10255  -0.00007   0.00000  -0.00074  -0.00074   2.10181
    A6        1.99208   0.00004   0.00000   0.00049   0.00049   1.99257
    D1       -0.00000   0.00000   0.00000   0.00000   0.00000   0.00000
    D2        3.14159  -0.00000   0.00000  -0.00000   0.00000   3.14159
    D3        3.14159   0.00000   0.00000   0.00000   0.00000   3.14159
    D4       -0.00000   0.00000   0.00000   0.00000   0.00000   0.00000
         Item               Value     Threshold  Converged?
 Maximum Force            0.000098     0.000450     YES
 RMS     Force            0.000058     0.000300     YES
 Maximum Displacement     0.001091     0.001800     YES
 RMS     Displacement     0.000514     0.001200     YES
 Predicted change in Energy=-1.565709D-07
 Optimization completed.
    -- Stationary point found.
                           ----------------------------
                           !   Optimized Parameters   !
                           ! (Angstroms and Degrees)  !
 --------------------------                            --------------------------
 ! Name  Definition              Value          Derivative Info.                !
 --------------------------------------------------------------------------------
 ! R1    R(1,2)                  1.3242         -DE/DX =    0.0001              !
 ! R2    R(1,3)                  1.7248         -DE/DX =   -0.0001              !
 ! R3    R(1,5)                  1.0791         -DE/DX =    0.0001              !
 ! R4    R(2,4)                  1.7248         -DE/DX =   -0.0001              !
 ! R5    R(2,6)                  1.0791         -DE/DX =    0.0001              !
 ! A1    A(2,1,3)              125.3949         -DE/DX =    0.0                 !
 ! A2    A(2,1,5)              120.4675         -DE/DX =   -0.0001              !
 ! A3    A(3,1,5)              114.1376         -DE/DX =    0.0                 !
 ! A4    A(1,2,4)              125.3949         -DE/DX =    0.0                 !
 ! A5    A(1,2,6)              120.4675         -DE/DX =   -0.0001              !
 ! A6    A(4,2,6)              114.1376         -DE/DX =    0.0                 !
 ! D1    D(3,1,2,4)              0.0            -DE/DX =    0.0                 !
 ! D2    D(3,1,2,6)            180.0            -DE/DX =    0.0                 !
 ! D3    D(5,1,2,4)            180.0            -DE/DX =    0.0                 !
 ! D4    D(5,1,2,6)              0.0            -DE/DX =    0.0                 !
 --------------------------------------------------------------------------------
 GradGradGradGradGradGradGradGradGradGradGradGradGradGradGradGradGradGrad


 ----------------------------------------------------------------------

 Electric dipole moment (input orientation):
 (Debye = 10**-18 statcoulomb cm , SI units = C m)
                  (au)            (Debye)         (10**-30 SI)
   Tot        0.742740D+00      0.188786D+01      0.629721D+01
   x          0.000000D+00      0.000000D+00      0.000000D+00
   y          0.000000D+00      0.000000D+00      0.000000D+00
[...]
      6          1           0       -0.000000   -1.209241    1.887237
 ---------------------------------------------------------------------
                    Distance matrix (angstroms):
                    1          2          3          4          5
     1  C    0.000000
     2  C    1.324214   0.000000
     3  Cl   1.724805   2.715572   0.000000
     4  Cl   2.715572   1.724805   3.322258   0.000000
     5  H    1.079054   2.089724   2.379385   3.700850   0.000000
     6  H    2.089724   1.079054   3.700850   2.379385   2.418482
                    6
     6  H    0.000000
 Stoichiometry    C2H2Cl2
 Framework group  C2V[SGV(C2H2Cl2)]
 Deg. of freedom     5
 Full point group                 C2V     NOp   4
 Largest Abelian subgroup         C2V     NOp   4
 Largest concise Abelian subgroup C2      NOp   2
                         Standard orientation:                         
 ---------------------------------------------------------------------
 Center     Atomic      Atomic             Coordinates (Angstroms)
 Number     Number       Type             X           Y           Z
 ---------------------------------------------------------------------
      1          6           0       -0.000000    0.662107    0.957182
      2          6           0       -0.000000   -0.662107    0.957182
      3         17           0       -0.000000    1.661129   -0.448843
      4         17           0       -0.000000   -1.661129   -0.448843
      5          1           0       -0.000000    1.209241    1.887237
      6          1           0       -0.000000   -1.209241    1.887237
 ---------------------------------------------------------------------
 Rotational constants (GHZ):          11.7432985           2.4479339           2.0256746
 General basis read from cards:  (5D, 7F)
 There are   105 symmetry adapted cartesian basis functions of A1  symmetry.
 There are    48 symmetry adapted cartesian basis functions of A2  symmetry.
 There are    48 symmetry adapted cartesian basis functions of B1  symmetry.
 There are   105 symmetry adapted cartesian basis functions of B2  symmetry.
 There are    89 symmetry adapted basis functions of A1  symmetry.
 There are    44 symmetry adapted basis functions of A2  symmetry.
 There are    44 symmetry adapted basis functions of B1  symmetry.
 There are    89 symmetry adapted basis functions of B2  symmetry.
   266 basis functions,   456 primitive gaussians,   306 cartesian basis functions
    24 alpha electrons       24 beta electrons
       nuclear repulsion energy       184.3255056992 Hartrees.
 NAtoms=    6 NActive=    6 NUniq=    3 SFac= 4.00D+00 NAtFMM=   60 NAOKFM=F Big=F
 Integral buffers will be    131072 words long.
 Raffenetti 2 integral format.
 Two-electron integral symmetry is turned on.
 One-electron integrals computed using PRISM.
 NBasis=   266 RedAO= T EigKep=  8.03D-05  NBF=    89    44    44    89
 NBsUse=   266 1.00D-06 EigRej= -1.00D+00 NBFU=    89    44    44    89
 Initial guess from the checkpoint file:  "chclchcl.chk"
 B after Tr=    -0.000000   -0.000000    0.000000
         Rot=    1.000000   -0.000000    0.000000   -0.000000 Ang=   0.00 deg.
 Initial guess orbital symmetries:
       Occupied  (B2) (A1) (A1) (B2) (B2) (A1) (B2) (A1) (A2) (B1)
                 (B2) (A1) (A1) (B2) (A1) (B2) (A1) (A1) (B2) (B1)
                 (A2) (A1) (B2) (B1)
       Virtual   (A2) (A1) (A1) (B2) (B2) (A1) (B1) (B2) (A1) (A2)
                 (A1) (B2) (A1) (B2) (A1) (B1) (A1) (B2) (B2) (A2)
                 (B2) (B1) (B2) (B1) (A1) (A2) (A2) (B2) (A1) (B2)
                 (A1) (B1) (B2) (A1) (A2) (A1) (A1) (B2) (B1) (B2)
                 (B2) (A1) (A1) (B1) (B1) (A2) (A1) (B2) (A2) (B2)
                 (A2) (A1) (B2) (A1) (B2) (A1) (B2) (B2) (B1) (B1)
                 (A2) (A1) (B2) (A1) (B1) (A2) (A1) (A2) (B1) (B2)
                 (A1) (A1) (B2) (A2) (B2) (A1) (A1) (B2) (B2) (B1)
                 (B1) (B2) (A1) (B1) (A2) (A1) (A2) (A1) (B1) (B2)
                 (A1) (B2) (A2) (A1) (B2) (A2) (A1) (B1) (B2) (B1)
                 (A1) (B2) (B1) (A1) (A2) (B2) (B1) (A2) (B1) (B2)
                 (A1) (A2) (B2) (A1) (A2) (A1) (B2) (A2) (B2) (B2)
                 (B1) (A1) (A1) (B2) (A2) (A1) (A1) (B2) (B2) (B2)
                 (A1) (B2) (A1) (A1) (A1) (A1) (A1) (A1) (A1) (A1)
                 (A1) (A1) (A1) (A1) (A1) (A1) (A1) (A1) (A1) (A1)
                 (A1) (A1) (A1) (A1) (A1) (A1) (A1) (A1) (A1) (A1)
                 (A1) (A1) (A1) (A1) (A1) (A1) (A1) (A1) (A2) (A2)
                 (A2) (A2) (A2) (A2) (A2) (A2) (A2) (A2) (A2) (A2)
                 (A2) (A2) (A2) (A2) (A2) (A2) (A2) (B1) (B1) (B1)
                 (B1) (B1) (B1) (B1) (B1) (B1) (B1) (B1) (B1) (B1)
                 (B1) (B1) (B1) (B1) (B1) (B1) (B2) (B2) (B2) (B2)
                 (B2) (B2) (B2) (B2) (B2) (B2) (B2) (B2) (B2) (B2)
                 (B2) (B2) (B2) (B2) (B2) (B2) (B2) (B2) (B2) (B2)
                 (B2) (B2) (B2) (B2) (B2) (B2) (B2) (B2) (B2) (B2)
                 (B2) (B2)
 Requested convergence on RMS density matrix=1.00D-08 within 128 cycles.
 Requested convergence on MAX density matrix=1.00D-06.
 Requested convergence on             energy=1.00D-06.
 No special actions if energy rises.
 SCF Done:  E(ROHF) =  -995.947856916     A.U. after   11 cycles
            NFock= 11  Conv=0.38D-08     -V/T= 2.0001
 <Sx>= 0.0000 <Sy>= 0.0000 <Sz>= 0.0000 <S**2>=-0.0000 S=-0.0000
 <L.S>=  0.00000000000    
 Annihilation of the first spin contaminant:
 S**2 before annihilation    -0.0000,   after     0.0000

 **********************************************************************

            Population analysis using the SCF Density.

 **********************************************************************

 Orbital symmetries:
       Occupied  (B2) (A1) (A1) (B2) (B2) (A1) (B2) (A1) (B1) (A2)
                 (B2) (A1) (A1) (B2) (A1) (B2) (A1) (A1) (B2) (B1)
                 (A2) (A1) (B2) (B1)
       Virtual   (A1) (B2) (A1) (B2) (B1) (A2) (A1) (B1) (A2) (A1)
                 (B2) (A1) (B2) (A2) (A1) (B2) (A1) (A1) (B2) (B2)
                 (B2) (B2) (A1) (B1) (A1) (B1) (A1) (A1) (A2) (B2)
                 (B1) (A1) (A1) (B2) (A1) (B1) (A2) (B2) (A2) (A2)
                 (B2) (B1) (B2) (B2) (A1) (A1) (B2) (A2) (B2) (A1)
                 (B2) (A1) (B1) (B2) (A1) (B1) (B2) (A1) (B2) (A1)
                 (A2) (A1) (B1) (A2) (A1) (B2) (A1) (B2) (B1) (A2)
                 (B2) (B1) (A1) (B2) (A2) (B1) (A1) (B2) (B1) (A1)
                 (A2) (B2) (A1) (A2) (A1) (B2) (B1) (B2) (A1) (A2)
                 (B1) (A1) (B1) (B2) (A2) (B2) (A1) (A2) (A1) (B2)
                 (B1) (B2) (A1) (B2) (A2) (A1) (B2) (B1) (A1) (A1)
                 (B1) (A2) (B2) (B2) (B1) (A2) (B2) (A1) (B1) (B2)
                 (A2) (B2) (A1) (A2) (A1) (B1) (A1) (A1) (A2) (B2)
                 (A1) (B2) (B2) (A1) (B2) (B1) (A2) (B2) (A1) (A1)
                 (B2) (A2) (B1) (B2) (A1) (A1) (B1) (A2) (B1) (A1)
                 (B2) (B2) (A1) (A2) (A2) (B2) (A1) (B2) (A1) (B2)
                 (B2) (B2) (B1) (B1) (A1) (B1) (A1) (B1) (A1) (A2)
                 (A1) (B2) (A2) (B1) (B2) (A2) (A1) (B2) (A1) (A2)
                 (B1) (A2) (B2) (B2) (B2) (B1) (A1) (A1) (A1) (B2)
                 (A2) (B1) (A1) (A2) (A2) (A1) (B2) (B2) (A1) (B2)
                 (B2) (A1) (B2) (B2) (B1) (B1) (A2) (A1) (A2) (B2)
                 (A1) (A1) (B2) (A1) (B2) (B2) (B1) (A2) (A1) (A1)
                 (B2) (B2) (B1) (A1) (A2) (B1) (B2) (A2) (A1) (A1)
                 (B2) (B2) (A1) (B2) (A1) (B2) (B1) (A2) (A1) (B2)
                 (A1) (B2)
 The electronic state is 1-A1.
 Alpha  occ. eigenvalues -- -104.85326-104.85326 -11.31609 -11.31430 -10.57818
 Alpha  occ. eigenvalues --  -10.57818  -8.04524  -8.04524  -8.04355  -8.04355
 Alpha  occ. eigenvalues --   -8.04355  -8.04355  -1.19424  -1.13446  -1.00310
 Alpha  occ. eigenvalues --   -0.78422  -0.70014  -0.61858  -0.55175  -0.54824
 Alpha  occ. eigenvalues --   -0.48945  -0.47203  -0.45842  -0.36995
 Alpha virt. eigenvalues --    0.04830   0.05714   0.05921   0.07767   0.08236
 Alpha virt. eigenvalues --    0.09547   0.10829   0.11819   0.12174   0.12395
 Alpha virt. eigenvalues --    0.12970   0.13746   0.15418   0.16271   0.18376
 Alpha virt. eigenvalues --    0.18656   0.20891   0.23277   0.24337   0.29215
 Alpha virt. eigenvalues --    0.30070   0.34811   0.36963   0.39364   0.40852
 Alpha virt. eigenvalues --    0.41528   0.42869   0.45119   0.45584   0.47159
 Alpha virt. eigenvalues --    0.47631   0.48472   0.49877   0.50157   0.51071
 Alpha virt. eigenvalues --    0.51145   0.51942   0.54073   0.54629   0.56152
 Alpha virt. eigenvalues --    0.56730   0.57905   0.62688   0.64838   0.66908
 Alpha virt. eigenvalues --    0.71722   0.74264   0.75467   0.76288   0.76732
 Alpha virt. eigenvalues --    0.84063   0.86649   0.89071   0.91782   0.94103
 Alpha virt. eigenvalues --    0.97539   1.00663   1.04905   1.07304   1.09049
 Alpha virt. eigenvalues --    1.10136   1.12329   1.19308   1.20814   1.22396
 Alpha virt. eigenvalues --    1.24292   1.27586   1.29891   1.31425   1.31837
 Alpha virt. eigenvalues --    1.34758   1.34956   1.36502   1.37352   1.38159
 Alpha virt. eigenvalues --    1.44074   1.44306   1.44969   1.46385   1.47428
 Alpha virt. eigenvalues --    1.47531   1.51436   1.52966   1.53943   1.59439
 Alpha virt. eigenvalues --    1.60330   1.64268   1.65211   1.65298   1.65482
 Alpha virt. eigenvalues --    1.68577   1.69077   1.70920   1.71451   1.71462
 Alpha virt. eigenvalues --    1.73871   1.77048   1.78428   1.83664   1.84832
 Alpha virt. eigenvalues --    1.87225   1.91600   1.93445   1.93473   1.98673
 Alpha virt. eigenvalues --    1.99360   1.99389   2.04388   2.09109   2.12229
 Alpha virt. eigenvalues --    2.18357   2.19204   2.21452   2.25044   2.30346
 Alpha virt. eigenvalues --    2.31840   2.32880   2.34229   2.35514   2.40322
 Alpha virt. eigenvalues --    2.41712   2.45603   2.49046   2.52807   2.61343
 Alpha virt. eigenvalues --    2.61916   2.64430   2.73365   2.74315   2.83406
 Alpha virt. eigenvalues --    2.84833   2.90323   2.95468   3.00658   3.05067
 Alpha virt. eigenvalues --    3.05093   3.21643   3.23936   3.25878   3.40982
 Alpha virt. eigenvalues --    3.43556   3.44477   3.46045   3.48247   3.48456
 Alpha virt. eigenvalues --    3.50801   3.50983   3.52230   3.54933   3.56149
 Alpha virt. eigenvalues --    3.58520   3.59082   3.61898   3.62414   3.64954
 Alpha virt. eigenvalues --    3.77060   3.79443   3.84521   3.87833   3.91105
 Alpha virt. eigenvalues --    4.13949   4.26170   4.51140   4.59577   4.64050
 Alpha virt. eigenvalues --    4.66541   4.74685   4.83681   4.84527   4.88069
 Alpha virt. eigenvalues --    4.89858   4.94252   4.95353   5.00419   5.04607
 Alpha virt. eigenvalues --    5.11818   5.15237   5.19029   5.21562   5.28610
 Alpha virt. eigenvalues --    5.33968   5.38645   5.47446   5.61806   5.66467
 Alpha virt. eigenvalues --    5.71070   5.72748   5.76413   5.92953   5.99541
 Alpha virt. eigenvalues --    6.02075   6.08708   6.10104   6.11096   6.33451
 Alpha virt. eigenvalues --    6.35611   6.37809   6.46192   6.74284   6.81188
 Alpha virt. eigenvalues --    7.05681   7.07899   7.35122   7.76179   7.92921
 Alpha virt. eigenvalues --    8.06411   8.18352   8.37466   8.41353   8.62024
 Alpha virt. eigenvalues --    8.71117   8.97683   9.13792   9.28796   9.41930
 Alpha virt. eigenvalues --    9.69922  20.55438  20.98846  21.24324  21.55438
 Alpha virt. eigenvalues --   21.64461  22.11916  22.14787  22.16183  22.17963
 Alpha virt. eigenvalues --   22.21046  22.23706  22.27648  22.33384  22.36183
 Alpha virt. eigenvalues --   22.43513  22.56481  23.12109  23.96014  24.43862
 Alpha virt. eigenvalues --   25.01280  28.39050  28.41212  28.43688  28.56491
 Alpha virt. eigenvalues --   28.82022  28.96599
          Condensed to atoms (all electrons):
               1          2          3          4          5          6
     1  C    5.084739   0.557831   0.250726  -0.091209   0.419908  -0.029613
     2  C    0.557831   5.084739  -0.091209   0.250726  -0.029613   0.419908
     3  Cl   0.250726  -0.091209  16.891209   0.005792  -0.027276   0.001054
     4  Cl  -0.091209   0.250726   0.005792  16.891209   0.001054  -0.027276
     5  H    0.419908  -0.029613  -0.027276   0.001054   0.413407  -0.000158
     6  H   -0.029613   0.419908   0.001054  -0.027276  -0.000158   0.413407
          Atomic-Atomic Spin Densities.
               1          2          3          4          5          6
     1  C    0.000000   0.000000   0.000000   0.000000   0.000000   0.000000
     2  C    0.000000   0.000000   0.000000   0.000000   0.000000   0.000000
     3  Cl   0.000000   0.000000   0.000000   0.000000   0.000000   0.000000
     4  Cl   0.000000   0.000000   0.000000   0.000000   0.000000   0.000000
     5  H    0.000000   0.000000   0.000000   0.000000   0.000000   0.000000
     6  H    0.000000   0.000000   0.000000   0.000000   0.000000   0.000000
 Mulliken charges and spin densities:
               1          2
     1  C   -0.192381   0.000000
     2  C   -0.192381   0.000000
     3  Cl  -0.030297   0.000000
     4  Cl  -0.030297   0.000000
     5  H    0.222678   0.000000
     6  H    0.222678   0.000000
 Sum of Mulliken charges =  -0.00000   0.00000
 Mulliken charges and spin densities with hydrogens summed into heavy atoms:
               1          2
     1  C    0.030297   0.000000
     2  C    0.030297   0.000000
     3  Cl  -0.030297   0.000000
     4  Cl  -0.030297   0.000000
 Electronic spatial extent (au):  <R**2>=            535.1378
 Charge=             -0.0000 electrons
 Dipole moment (field-independent basis, Debye):
    X=             -0.0000    Y=              0.0000    Z=              2.1453  Tot=              2.1453
 Quadrupole moment (field-independent basis, Debye-Ang):
   XX=            -38.9874   YY=            -38.1239   ZZ=            -32.8027
   XY=             -0.0000   XZ=             -0.0000   YZ=              0.0000
 Traceless Quadrupole moment (field-independent basis, Debye-Ang):
   XX=             -2.3494   YY=             -1.4859   ZZ=              3.8353
   XY=             -0.0000   XZ=             -0.0000   YZ=              0.0000
 Octapole moment (field-independent basis, Debye-Ang**2):
  XXX=              0.0000  YYY=             -0.0000  ZZZ=              2.0943  XYY=              0.0000
  XXY=             -0.0000  XXZ=             -2.3015  XZZ=              0.0000  YZZ=              0.0000
  YYZ=             -0.2296  XYZ=              0.0000
 Hexadecapole moment (field-independent basis, Debye-Ang**3):
 XXXX=            -44.9697 YYYY=           -505.6523 ZZZZ=           -138.0425 XXXY=             -0.0000
 XXXZ=             -0.0000 YYYX=             -0.0000 YYYZ=             -0.0000 ZZZX=             -0.0000
 ZZZY=              0.0000 XXYY=            -93.5818 XXZZ=            -36.2392 YYZZ=            -91.7550
 XXYZ=              0.0000 YYXZ=             -0.0000 ZZXY=             -0.0000
 N-N= 1.843255056992D+02 E-N=-2.736208203057D+03  KE= 9.958265675512D+02
 Symmetry A1   KE= 4.521756477685D+02
 Symmetry A2   KE= 4.571383054235D+01
 Symmetry B1   KE= 4.796768190996D+01
 Symmetry B2   KE= 4.499694073304D+02
 Symmetry A1   SP= 0.000000000000D+00
 Symmetry A2   SP= 0.000000000000D+00
 Symmetry B1   SP= 0.000000000000D+00
 Symmetry B2   SP= 0.000000000000D+00
                          Isotropic Fermi Contact Couplings
        Atom                 a.u.       MegaHertz       Gauss      10(-4) cm-1
     1  C(13)              0.00000       0.00000       0.00000       0.00000
     2  C(13)              0.00000       0.00000       0.00000       0.00000
     3  Cl(35)             0.00000       0.00000       0.00000       0.00000
     4  Cl(35)             0.00000       0.00000       0.00000       0.00000
     5  H(1)               0.00000       0.00000       0.00000       0.00000
     6  H(1)               0.00000       0.00000       0.00000       0.00000
 --------------------------------------------------------
       Center         ----  Spin Dipole Couplings  ----
                      3XX-RR        3YY-RR        3ZZ-RR
 --------------------------------------------------------
     1   Atom        0.000000      0.000000      0.000000
     2   Atom        0.000000      0.000000      0.000000
     3   Atom        0.000000      0.000000      0.000000
     4   Atom        0.000000      0.000000      0.000000
     5   Atom        0.000000      0.000000      0.000000
     6   Atom        0.000000      0.000000      0.000000
 --------------------------------------------------------
                        XY            XZ            YZ
 --------------------------------------------------------
     1   Atom        0.000000      0.000000      0.000000
     2   Atom        0.000000      0.000000      0.000000
     3   Atom        0.000000      0.000000      0.000000
     4   Atom        0.000000      0.000000      0.000000
     5   Atom        0.000000      0.000000      0.000000
     6   Atom        0.000000      0.000000      0.000000
 --------------------------------------------------------


 ---------------------------------------------------------------------------------
              Anisotropic Spin Dipole Couplings in Principal Axis System
 ---------------------------------------------------------------------------------

       Atom             a.u.   MegaHertz   Gauss  10(-4) cm-1        Axes

              Baa     0.0000     0.000     0.000     0.000  1.0000  0.0000  0.0000
     1 C(13)  Bbb     0.0000     0.000     0.000     0.000 -0.0000  1.0000  0.0000
              Bcc     0.0000     0.000     0.000     0.000  0.0000  0.0000  1.0000
 
              Baa     0.0000     0.000     0.000     0.000  1.0000  0.0000  0.0000
     2 C(13)  Bbb     0.0000     0.000     0.000     0.000 -0.0000  1.0000  0.0000
              Bcc     0.0000     0.000     0.000     0.000  0.0000  0.0000  1.0000
 
              Baa     0.0000     0.000     0.000     0.000  1.0000  0.0000  0.0000
     3 Cl(35) Bbb     0.0000     0.000     0.000     0.000 -0.0000  1.0000  0.0000
              Bcc     0.0000     0.000     0.000     0.000  0.0000  0.0000  1.0000
 
              Baa     0.0000     0.000     0.000     0.000  1.0000  0.0000  0.0000
     4 Cl(35) Bbb     0.0000     0.000     0.000     0.000 -0.0000  1.0000  0.0000
              Bcc     0.0000     0.000     0.000     0.000  0.0000  0.0000  1.0000
 
              Baa     0.0000     0.000     0.000     0.000  1.0000  0.0000  0.0000
     5 H(1)   Bbb     0.0000     0.000     0.000     0.000 -0.0000  1.0000  0.0000
              Bcc     0.0000     0.000     0.000     0.000  0.0000  0.0000  1.0000
 
              Baa     0.0000     0.000     0.000     0.000  1.0000  0.0000  0.0000
     6 H(1)   Bbb     0.0000     0.000     0.000     0.000 -0.0000  1.0000  0.0000
              Bcc     0.0000     0.000     0.000     0.000  0.0000  0.0000  1.0000
 

 ---------------------------------------------------------------------------------

 1\1\GINC-GAMBA\SP\ROHF\Gen\C2H2Cl2\IRIKURA\29-Sep-2023\0\\# rohf/gen g
 eom=check guess=check\\cis-1,2-dichloroethylene, ROHF/cc-pVTZ-F12\\0,1
 \C,0,0.,0.662107,0.957182\C,0,0.,-0.662107,0.957182\Cl,0,0.,1.661129,-
 0.448843\Cl,0,0.,-1.661129,-0.448843\H,0,0.,1.209241,1.887237\H,0,0.,-
 1.209241,1.887237\\Version=ES64L-G16RevB.01\State=1-A1\HF=-995.9478569
 \RMSD=3.827e-09\Dipole=0.,0.,0.8440402\Quadrupole=-1.7467262,-1.104741
 8,2.851468,0.,0.,0.\PG=C02V [SGV(C2H2Cl2)]\\@


 THOSE WHO TRY TO PASS CHEMISTRY OFF AS A NEW SCIENCE
 SHOW HOW LITTLE KNOWLEDGE THEY HAVE OF THE CHARACTER
 AND LITERATURE OF THE ANCIENTS.
   -- NICOLAS LEFEVRE
 "COURS DE CHYMIE" J.-N.LELOUP, PARIS, 1751
 Job cpu time:       0 days  0 hours  2 minutes 28.4 seconds.
 Elapsed time:       0 days  0 hours  0 minutes 37.2 seconds.
 File lengths (MBytes):  RWF=     55 Int=      0 D2E=      0 Chk=      7 Scr=      1
 Normal termination of Gaussian 16 at Fri Sep 29 16:57:17 2023.
