 Entering Gaussian System, Link 0=g16
 AtFile(1): pcseg2.gbs
            -H     0
            S   4   1.00
                  0.754732D+02           0.427821D-02
                  0.113575D+02           0.328672D-01
                  0.260081D+01           0.159578D+00
                  0.735503D+00           0.500000D+00
            S   1   1.00
                  0.231761D+00           1.0000000
            S   1   1.00
                  0.741675D-01           1.0000000
            P   1   1.00
                  0.160000D+01           1.0000000
            P   1   1.00
                  0.450000D+00           1.0000000
            D   1   1.00
                  0.125000D+01           1.0000000
            ****
            -C     0
            S   7   1.00
                  0.731999D+04           0.695369D-03
                  0.109818D+04           0.537138D-02
                  0.250014D+03           0.274734D-01
                  0.707586D+02           0.105078D+00
                  0.228595D+02           0.291262D+00
                  0.803936D+01           0.500000D+00
                  0.289309D+01           0.362224D+00
            S   2   1.00
                  0.521640D+01          -0.957844D-01
                  0.556124D+00           0.500000D+00
            S   1   1.00
                  0.228813D+00           1.0000000
            S   1   1.00
                  0.936338D-01           1.0000000
            P   4   1.00
                  0.339855D+02           0.818395D-02
                  0.772957D+01           0.586921D-01
                  0.224954D+01           0.222514D+00
                  0.767681D+00           0.500000D+00
            P   1   1.00
                  0.263283D+00           1.0000000
            P   1   1.00
                  0.848744D-01           1.0000000
            D   1   1.00
                  0.140000D+01           1.0000000
            D   1   1.00
                  0.450000D+00           1.0000000
            F   1   1.00
                  0.950000D+00           1.0000000
            ****
            -O     0
            S   7   1.00
                  0.135887D+05           0.665492D-03
                  0.203847D+04           0.514222D-02
                  0.464041D+03           0.263472D-01
                  0.131339D+03           0.101500D+00
                  0.425340D+02           0.285877D+00
                  0.150429D+02           0.500000D+00
                  0.546616D+01           0.368211D+00
            S   2   1.00
                  0.100915D+02          -0.100084D+00
                  0.110429D+01           0.500000D+00
            S   1   1.00
                  0.448082D+00           1.0000000
            S   1   1.00
                  0.175325D+00           1.0000000
            P   4   1.00
                  0.608220D+02           0.908253D-02
                  0.140332D+02           0.645878D-01
                  0.418244D+01           0.241502D+00
                  0.142490D+01           0.500000D+00
            P   1   1.00
                  0.478741D+00           1.0000000
            P   1   1.00
                  0.146257D+00           1.0000000
            D   1   1.00
                  0.220000D+01           1.0000000
            D   1   1.00
                  0.650000D+00           1.0000000
            F   1   1.00
                  0.110000D+01           1.0000000
            ****
            -N     0
            S   7   1.00
                  0.101643D+05           0.682757D-03
                  0.152481D+04           0.527488D-02
                  0.347119D+03           0.270037D-01
                  0.982389D+02           0.103673D+00
                  0.317799D+02           0.289575D+00
                  0.112240D+02           0.500000D+00
                  0.406611D+01           0.364621D+00
            S   2   1.00
                  0.747898D+01          -0.975681D-01
                  0.805040D+00           0.500000D+00
            S   1   1.00
                  0.324626D+00           1.0000000
            S   1   1.00
                  0.128132D+00           1.0000000
            P   4   1.00
                  0.482704D+02           0.829547D-02
                  0.110815D+02           0.596223D-01
                  0.326643D+01           0.227889D+00
                  0.111680D+01           0.500000D+00
            P   1   1.00
                  0.382049D+00           1.0000000
            P   1   1.00
                  0.121222D+00           1.0000000
            D   1   1.00
                  0.180000D+01           1.0000000
            D   1   1.00
                  0.550000D+00           1.0000000
            F   1   1.00
                  0.102000D+01           1.0000000
            ****
            -F     0
            S   7   1.00
                  0.174507D+05           0.655972D-03
                  0.261768D+04           0.506944D-02
                  0.595857D+03           0.259899D-01
                  0.168651D+03           0.100353D+00
                  0.546654D+02           0.284095D+00
                  0.193717D+02           0.500000D+00
                  0.706202D+01           0.370721D+00
            S   2   1.00
                  0.131197D+02          -0.101997D+00
                  0.145046D+01           0.500000D+00
            S   1   1.00
                  0.588255D+00           1.0000000
            S   1   1.00
                  0.227960D+00           1.0000000
            P   4   1.00
                  0.779407D+02           0.931135D-02
                  0.180425D+02           0.663964D-01
                  0.542342D+01           0.246386D+00
                  0.184876D+01           0.500000D+00
            P   1   1.00
                  0.617455D+00           1.0000000
            P   1   1.00
                  0.185496D+00           1.0000000
            D   1   1.00
                  0.280000D+01           1.0000000
            D   1   1.00
                  0.800000D+00           1.0000000
            F   1   1.00
                  0.120000D+01           1.0000000
            ****
            -Cl     0
            S   8   1.00
                  0.154272D+06           0.222473D-03
                  0.231232D+05           0.172590D-02
                  0.526257D+04           0.899286D-02
                  0.148995D+04           0.367724D-01
                  0.485417D+03           0.121446D+00
                  0.174634D+03           0.304148D+00
                  0.672393D+02           0.500000D+00
                  0.265780D+02           0.360252D+00
            S   3   1.00
                  0.131826D+03          -0.531330D-01
                  0.400703D+02          -0.233346D+00
                  0.789448D+01           0.500000D+00
            S   2   1.00
                  0.427711D+01           0.500000D+00
                  0.196233D+01           0.370517D+00
            S   1   1.00
                  0.520793D+00           1.0000000
            S   1   1.00
                  0.181633D+00           1.0000000
            P   7   1.00
                  0.124440D+04           0.988206D-03
                  0.295109D+03           0.829674D-02
                  0.947224D+02           0.430906D-01
                  0.352588D+02           0.148443D+00
                  0.144211D+02           0.344744D+00
                  0.610371D+01           0.500000D+00
                  0.258886D+01           0.348278D+00
            P   2   1.00
                  0.109447D+02          -0.196768D-01
                  0.104413D+01           0.500000D+00
            P   1   1.00
                  0.376184D+00           1.0000000
            P   1   1.00
                  0.120613D+00           1.0000000
            D   1   1.00
                  0.231000D+01           1.0000000
            D   1   1.00
                  0.520000D+00           1.0000000
            F   1   1.00
                  0.720000D+00           1.0000000
            ****
            -S     0
            S   8   1.00
                  0.134700D+06           0.226231D-03
                  0.201904D+05           0.175488D-02
                  0.459528D+04           0.914190D-02
                  0.130109D+04           0.373551D-01
                  0.423902D+03           0.123121D+00
                  0.152485D+03           0.306801D+00
                  0.586925D+02           0.500000D+00
                  0.231461D+02           0.354358D+00
            S   3   1.00
                  0.116327D+03          -0.491772D-01
                  0.352841D+02          -0.215962D+00
                  0.677831D+01           0.500000D+00
            S   2   1.00
                  0.360404D+01           0.500000D+00
                  0.164871D+01           0.366278D+00
            S   1   1.00
                  0.421821D+00           1.0000000
            S   1   1.00
                  0.147554D+00           1.0000000
            P   7   1.00
                  0.104863D+04           0.105273D-02
                  0.248717D+03           0.879338D-02
                  0.797887D+02           0.453358D-01
                  0.296023D+02           0.154476D+00
                  0.120627D+02           0.352366D+00
                  0.507628D+01           0.500000D+00
                  0.213375D+01           0.346429D+00
            P   2   1.00
                  0.928958D+01          -0.185932D-01
                  0.837819D+00           0.500000D+00
            P   1   1.00
                  0.301495D+00           1.0000000
            P   1   1.00
                  0.974740D-01           1.0000000
            D   1   1.00
                  0.210000D+01           1.0000000
            D   1   1.00
                  0.480000D+00           1.0000000
            F   1   1.00
                  0.660000D+00           1.0000000
            ****
            -Si     0
            S    8   1.00
                  0.996133D+05           0.235546D-03
                  0.149311D+05           0.182707D-02
                  0.339820D+04           0.951425D-02
                  0.962140D+03           0.388172D-01
                  0.313430D+03           0.127328D+00
                  0.112683D+03           0.313522D+00
                  0.433372D+02           0.500000D+00
                  0.170029D+02           0.340347D+00
            S    3   1.00
                  0.884208D+02          -0.404451D-01
                  0.266756D+02          -0.178059D+00
                  0.479640D+01           0.500000D+00
            S    2   1.00
                  0.239385D+01           0.500000D+00
                  0.108333D+01           0.338016D+00
            S    1   1.00
                  0.252420D+00           1.0000000
            S    1   1.00
                  0.891210D-01           1.0000000
            P    7   1.00
                  0.709901D+03           0.123028D-02
                  0.168426D+03           0.101366D-01
                  0.539946D+02           0.511840D-01
                  0.198646D+02           0.169967D+00
                  0.801369D+01           0.370717D+00
                  0.331870D+01           0.500000D+00
                  0.136112D+01           0.344128D+00
            P    2   1.00
                  0.622158D+01          -0.166609D-01
                  0.503049D+00           0.500000D+00
            P    1   1.00
                  0.179848D+00           1.0000000
            P    1   1.00
                  0.591912D-01           1.0000000
            D    1   1.00
                  0.168000D+01           1.0000000
            D    1   1.00
                  0.380000D+00           1.0000000
            F    1   1.00
                  0.540000D+00           1.0000000
            ****
            -P     0
            S    8   1.00
                  0.116416D+06           0.230715D-03
                  0.174500D+05           0.178960D-02
                  0.397149D+04           0.932116D-02
                  0.112447D+04           0.380591D-01
                  0.366347D+03           0.125148D+00
                  0.131757D+03           0.310022D+00
                  0.506988D+02           0.500000D+00
                  0.199436D+02           0.347528D+00
            S    3   1.00
                  0.101878D+03          -0.446755D-01
                  0.308249D+02          -0.196376D+00
                  0.573688D+01           0.500000D+00
            S    2   1.00
                  0.296868D+01           0.500000D+00
                  0.135315D+01           0.355098D+00
            S    1   1.00
                  0.332196D+00           1.0000000
            S    1   1.00
                  0.116229D+00           1.0000000
            P    7   1.00
                  0.873928D+03           0.112375D-02
                  0.207298D+03           0.933330D-02
                  0.664628D+02           0.477213D-01
                  0.245665D+02           0.160733D+00
                  0.996820D+01           0.359760D+00
                  0.416536D+01           0.500000D+00
                  0.173022D+01           0.346593D+00
            P    2   1.00
                  0.772530D+01          -0.175718D-01
                  0.657252D+00           0.500000D+00
            P    1   1.00
                  0.239903D+00           1.0000000
            P    1   1.00
                  0.800988D-01           1.0000000
            D    1   1.00
                  0.189000D+01           1.0000000
            D    1   1.00
                  0.430000D+00           1.0000000
            F    1   1.00
                  0.600000D+00           1.0000000
            ****
            
 Initial command:
 /usr/local/apps/g16_b01_avx/g16/l1.exe "/wrk/irikura/Gau-16006.inp" -scrdir="/wrk/irikura/"
 Entering Link 1 = /usr/local/apps/g16_b01_avx/g16/l1.exe PID=     16008.
  
 Copyright (c) 1988-2017, Gaussian, Inc.  All Rights Reserved.
  
 This is part of the Gaussian(R) 16 program.  It is based on
 the Gaussian(R) 09 system (copyright 2009, Gaussian, Inc.),
 the Gaussian(R) 03 system (copyright 2003, Gaussian, Inc.),
 the Gaussian(R) 98 system (copyright 1998, Gaussian, Inc.),
 the Gaussian(R) 94 system (copyright 1995, Gaussian, Inc.),
 the Gaussian 92(TM) system (copyright 1992, Gaussian, Inc.),
 the Gaussian 90(TM) system (copyright 1990, Gaussian, Inc.),
 the Gaussian 88(TM) system (copyright 1988, Gaussian, Inc.),
 the Gaussian 86(TM) system (copyright 1986, Carnegie Mellon
 University), and the Gaussian 82(TM) system (copyright 1983,
 Carnegie Mellon University). Gaussian is a federally registered
 trademark of Gaussian, Inc.
  
 This software contains proprietary and confidential information,
 including trade secrets, belonging to Gaussian, Inc.
  
 This software is provided under written license and may be
 used, copied, transmitted, or stored only in accord with that
 written license.
  
 The following legend is applicable only to US Government
 contracts under FAR:
  
                    RESTRICTED RIGHTS LEGEND
  
 Use, reproduction and disclosure by the US Government is
 subject to restrictions as set forth in subparagraphs (a)
 and (c) of the Commercial Computer Software - Restricted
 Rights clause in FAR 52.227-19.
  
 Gaussian, Inc.
 340 Quinnipiac St., Bldg. 40, Wallingford CT 06492
  
  
 ---------------------------------------------------------------
 Warning -- This program may not be used in any manner that
 competes with the business of Gaussian, Inc. or will provide
 assistance to any competitor of Gaussian, Inc.  The licensee
 of this program is prohibited from giving any competitor of
 Gaussian, Inc. access to this program.  By using this program,
 the user acknowledges that Gaussian, Inc. is engaged in the
 business of creating and licensing software in the field of
 computational chemistry and represents and warrants to the
 licensee that it is not a competitor of Gaussian, Inc. and that
 it will not use this program in any manner prohibited above.
 ---------------------------------------------------------------
  

 Cite this work as:
 Gaussian 16, Revision B.01,
 M. J. Frisch, G. W. Trucks, H. B. Schlegel, G. E. Scuseria, 
 M. A. Robb, J. R. Cheeseman, G. Scalmani, V. Barone, 
 G. A. Petersson, H. Nakatsuji, X. Li, M. Caricato, A. V. Marenich, 
 J. Bloino, B. G. Janesko, R. Gomperts, B. Mennucci, H. P. Hratchian, 
 J. V. Ortiz, A. F. Izmaylov, J. L. Sonnenberg, D. Williams-Young, 
 F. Ding, F. Lipparini, F. Egidi, J. Goings, B. Peng, A. Petrone, 
 T. Henderson, D. Ranasinghe, V. G. Zakrzewski, J. Gao, N. Rega, 
 G. Zheng, W. Liang, M. Hada, M. Ehara, K. Toyota, R. Fukuda, 
 J. Hasegawa, M. Ishida, T. Nakajima, Y. Honda, O. Kitao, H. Nakai, 
 T. Vreven, K. Throssell, J. A. Montgomery, Jr., J. E. Peralta, 
 F. Ogliaro, M. J. Bearpark, J. J. Heyd, E. N. Brothers, K. N. Kudin, 
 V. N. Staroverov, T. A. Keith, R. Kobayashi, J. Normand, 
 K. Raghavachari, A. P. Rendell, J. C. Burant, S. S. Iyengar, 
 J. Tomasi, M. Cossi, J. M. Millam, M. Klene, C. Adamo, R. Cammi, 
 J. W. Ochterski, R. L. Martin, K. Morokuma, O. Farkas, 
 J. B. Foresman, and D. J. Fox, Gaussian, Inc., Wallingford CT, 2016.
 
 ******************************************
 Gaussian 16:  ES64L-G16RevB.01 20-Dec-2017
                 2-Feb-2022 
 ******************************************
 %mem=500mw
 --------------------
 # b3lyp/gen opt freq
 --------------------
 1/18=20,19=15,26=3,38=1/1,3;
 2/9=110,12=2,17=6,18=5,40=1/2;
 3/5=7,11=2,25=1,30=1,71=1,74=-5/1,2,3;
 4//1;
 5/5=2,38=5/2;
 6/7=2,8=2,9=2,10=2,28=1/1;
 7//1,2,3,16;
 1/18=20,19=15,26=3/3(2);
 2/9=110/2;
 99//99;
 2/9=110/2;
 3/5=7,6=1,11=2,25=1,30=1,71=1,74=-5,82=7/1,2,3;
 4/5=5,16=3,69=1/1;
 5/5=2,38=5/2;
 7//1,2,3,16;
 1/18=20,19=15,26=3/3(-5);
 2/9=110/2;
 6/7=2,8=2,9=2,10=2,19=2,28=1/1;
 99/9=1/99;
 -------------------
 CHF3, B3LYP/pcseg-2
 -------------------
 Symbolic Z-matrix:
 Charge =  0 Multiplicity = 1
 C
 H                    1     1. 
 F                    1    r        2    a
 F                    1    r        2    a        3     120.     0
 F                    1    r        2    a        3    -120.     0
       Variables:
  r                     1.3                      
  a                   109.                       
 

 GradGradGradGradGradGradGradGradGradGradGradGradGradGradGradGradGradGrad
 Berny optimization.
 Initialization pass.
                           ----------------------------
                           !    Initial Parameters    !
                           ! (Angstroms and Degrees)  !
 --------------------------                            --------------------------
 ! Name  Definition              Value          Derivative Info.                !
 --------------------------------------------------------------------------------
 ! R1    R(1,2)                  1.0            estimate D2E/DX2                !
 ! R2    R(1,3)                  1.3            estimate D2E/DX2                !
 ! R3    R(1,4)                  1.3            estimate D2E/DX2                !
 ! R4    R(1,5)                  1.3            estimate D2E/DX2                !
 ! A1    A(2,1,3)              109.0            estimate D2E/DX2                !
 ! A2    A(2,1,4)              109.0            estimate D2E/DX2                !
 ! A3    A(2,1,5)              109.0            estimate D2E/DX2                !
 ! A4    A(3,1,4)              109.9383         estimate D2E/DX2                !
 ! A5    A(3,1,5)              109.9383         estimate D2E/DX2                !
 ! A6    A(4,1,5)              109.9383         estimate D2E/DX2                !
 ! D1    D(2,1,4,3)           -119.4187         estimate D2E/DX2                !
 ! D2    D(2,1,5,3)            119.4187         estimate D2E/DX2                !
 ! D3    D(2,1,5,4)           -119.4187         estimate D2E/DX2                !
 ! D4    D(3,1,5,4)            121.1626         estimate D2E/DX2                !
 --------------------------------------------------------------------------------
 Trust Radius=3.00D-01 FncErr=1.00D-07 GrdErr=1.00D-06 EigMax=2.50D+02 EigMin=1.00D-04
 Number of steps in this run=     24 maximum allowed number of steps=    100.
 GradGradGradGradGradGradGradGradGradGradGradGradGradGradGradGradGradGrad

                          Input orientation:                          
 ---------------------------------------------------------------------
 Center     Atomic      Atomic             Coordinates (Angstroms)
 Number     Number       Type             X           Y           Z
 ---------------------------------------------------------------------
      1          6           0        0.000000    0.000000    0.000000
      2          1           0        0.000000    0.000000    1.000000
      3          9           0        1.229174    0.000000   -0.423239
      4          9           0       -0.614587   -1.064496   -0.423239
      5          9           0       -0.614587    1.064496   -0.423239
 ---------------------------------------------------------------------
                    Distance matrix (angstroms):
                    1          2          3          4          5
     1  C    0.000000
     2  H    1.000000   0.000000
     3  F    1.300000   1.880552   0.000000
     4  F    1.300000   1.880552   2.128992   0.000000
     5  F    1.300000   1.880552   2.128992   2.128992   0.000000
 Stoichiometry    CHF3
 Framework group  C3V[C3(CH),3SGV(F)]
 Deg. of freedom     3
 Full point group                 C3V     NOp   6
 Largest Abelian subgroup         CS      NOp   2
 Largest concise Abelian subgroup CS      NOp   2
                         Standard orientation:                         
 ---------------------------------------------------------------------
 Center     Atomic      Atomic             Coordinates (Angstroms)
 Number     Number       Type             X           Y           Z
 ---------------------------------------------------------------------
      1          6           0        0.000000    0.000000    0.306689
      2          1           0        0.000000    0.000000    1.306689
      3          9           0        0.000000    1.229174   -0.116549
      4          9           0        1.064496   -0.614587   -0.116549
      5          9           0       -1.064496   -0.614587   -0.116549
 ---------------------------------------------------------------------
 Rotational constants (GHZ):          10.8354694          10.8354694           5.8688365
 General basis read from cards:  (5D, 7F)
 There are    94 symmetry adapted cartesian basis functions of A'  symmetry.
 There are    61 symmetry adapted cartesian basis functions of A"  symmetry.
 There are    80 symmetry adapted basis functions of A'  symmetry.
 There are    54 symmetry adapted basis functions of A"  symmetry.
   134 basis functions,   222 primitive gaussians,   155 cartesian basis functions
    17 alpha electrons       17 beta electrons
       nuclear repulsion energy       137.1158406427 Hartrees.
 NAtoms=    5 NActive=    5 NUniq=    3 SFac= 2.78D+00 NAtFMM=   60 NAOKFM=F Big=F
 Integral buffers will be    131072 words long.
 Raffenetti 2 integral format.
 Two-electron integral symmetry is turned on.
 One-electron integrals computed using PRISM.
 NBasis=   134 RedAO= T EigKep=  1.80D-03  NBF=    80    54
 NBsUse=   134 1.00D-06 EigRej= -1.00D+00 NBFU=    80    54
 ExpMin= 7.42D-02 ExpMax= 1.75D+04 ExpMxC= 5.96D+02 IAcc=3 IRadAn=         5 AccDes= 0.00D+00
 Harris functional with IExCor=  402 and IRadAn=       5 diagonalized for initial guess.
 HarFok:  IExCor=  402 AccDes= 0.00D+00 IRadAn=         5 IDoV= 1 UseB2=F ITyADJ=14
 ICtDFT=  3500011 ScaDFX=  1.000000  1.000000  1.000000  1.000000
 FoFCou: FMM=F IPFlag=           0 FMFlag=      100000 FMFlg1=           0
         NFxFlg=           0 DoJE=T BraDBF=F KetDBF=T FulRan=T
         wScrn=  0.000000 ICntrl=       500 IOpCl=  0 I1Cent=   200000004 NGrid=           0
         NMat0=    1 NMatS0=      1 NMatT0=    0 NMatD0=    1 NMtDS0=    0 NMtDT0=    0
 Petite list used in FoFCou.
 Initial guess orbital symmetries:
       Occupied  (A1) (E) (E) (A1) (A1) (E) (E) (A1) (A1) (E) (E)
                 (E) (E) (E) (E) (A2) (A1)
       Virtual   (A1) (E) (E) (A1) (E) (E) (A1) (A1) (A1) (E) (E)
                 (E) (E) (A1) (A2) (E) (E) (A1) (E) (E) (E) (E)
                 (A1) (A1) (A1) (E) (E) (E) (E) (A1) (E) (E) (A2)
                 (E) (E) (A1) (A2) (E) (E) (A1) (E) (E) (E) (E)
                 (E) (E) (A1) (A1) (A1) (A2) (E) (E) (E) (E) (A1)
                 (E) (E) (A1) (E) (E) (E) (E) (A1) (A2) (E) (E)
                 (E) (E) (A1) (E) (E) (E) (E) (A2) (A1) (E) (E)
                 (A2) (A1) (E) (E) (E) (E) (A1) (E) (E) (A1) (E)
                 (E) (E) (E) (A1) (E) (E) (A1) (A1) (A2) (E) (E)
                 (A1) (E) (E) (E) (E) (A2) (E) (E) (A1) (A2) (E)
                 (E) (E) (E) (A1) (A1) (E) (E)
 The electronic state of the initial guess is 1-A1.
 Keep R1 ints in memory in symmetry-blocked form, NReq=61429929.
 Requested convergence on RMS density matrix=1.00D-08 within 128 cycles.
 Requested convergence on MAX density matrix=1.00D-06.
 Requested convergence on             energy=1.00D-06.
 No special actions if energy rises.
 Integral accuracy reduced to 1.0D-05 until final iterations.
 Initial convergence to 1.0D-05 achieved.  Increase integral accuracy.
 SCF Done:  E(RB3LYP) =  -338.379124201     A.U. after   10 cycles
            NFock= 10  Conv=0.63D-08     -V/T= 2.0011

 **********************************************************************

            Population analysis using the SCF Density.

 **********************************************************************

 Orbital symmetries:
       Occupied  (E) (E) (A1) (A1) (A1) (E) (E) (A1) (A1) (E) (E)
                 (E) (E) (E) (E) (A2) (A1)
       Virtual   (A1) (E) (E) (A1) (A1) (E) (E) (A1) (A1) (E) (E)
                 (E) (E) (A1) (A2) (E) (E) (A1) (E) (E) (E) (E)
                 (A1) (A1) (A1) (E) (E) (E) (E) (A1) (E) (E) (A2)
                 (E) (E) (A1) (A2) (E) (E) (A1) (E) (E) (E) (E)
                 (A1) (E) (E) (A1) (A1) (A2) (E) (E) (E) (E) (A1)
                 (E) (E) (A1) (E) (E) (E) (E) (A1) (A2) (E) (E)
                 (E) (E) (A1) (E) (E) (E) (E) (A2) (A1) (E) (E)
                 (A2) (A1) (E) (E) (E) (E) (A1) (E) (E) (A1) (E)
                 (E) (E) (E) (A1) (E) (E) (A1) (A1) (A2) (E) (E)
                 (A1) (E) (E) (E) (E) (A2) (E) (E) (A1) (A2) (E)
                 (E) (E) (E) (A1) (A1) (E) (E)
 The electronic state is 1-A1.
 Alpha  occ. eigenvalues --  -24.72273 -24.72273 -24.72273 -10.41782  -1.35226
 Alpha  occ. eigenvalues --   -1.25650  -1.25650  -0.74222  -0.64174  -0.62075
 Alpha  occ. eigenvalues --   -0.62075  -0.49314  -0.49314  -0.45702  -0.45702
 Alpha  occ. eigenvalues --   -0.43147  -0.40801
 Alpha virt. eigenvalues --    0.02849   0.09783   0.09783   0.11404   0.24146
 Alpha virt. eigenvalues --    0.24848   0.24848   0.27665   0.33355   0.38999
 Alpha virt. eigenvalues --    0.38999   0.44107   0.44107   0.45602   0.56820
 Alpha virt. eigenvalues --    0.60757   0.60757   0.67172   0.81879   0.81879
 Alpha virt. eigenvalues --    0.85461   0.85461   0.91698   0.95171   1.05153
 Alpha virt. eigenvalues --    1.10189   1.10189   1.27459   1.27459   1.48016
 Alpha virt. eigenvalues --    1.64323   1.64323   1.79600   1.82075   1.82075
 Alpha virt. eigenvalues --    1.96283   2.05952   2.08351   2.08351   2.12641
 Alpha virt. eigenvalues --    2.18174   2.18174   2.34882   2.34882   2.42109
 Alpha virt. eigenvalues --    2.43147   2.43147   2.49795   2.61485   2.82444
 Alpha virt. eigenvalues --    2.88654   2.88654   3.07856   3.07856   3.10406
 Alpha virt. eigenvalues --    3.40488   3.40488   3.46559   3.55522   3.55522
 Alpha virt. eigenvalues --    3.68493   3.68493   3.78042   3.80517   3.83688
 Alpha virt. eigenvalues --    3.83688   4.10076   4.10076   4.18950   4.21881
 Alpha virt. eigenvalues --    4.21881   4.31934   4.31934   4.35312   4.35421
 Alpha virt. eigenvalues --    4.35778   4.35778   4.42599   4.44395   4.49743
 Alpha virt. eigenvalues --    4.49743   4.67239   4.67239   4.81321   4.89593
 Alpha virt. eigenvalues --    4.89593   5.27288   5.30988   5.30988   5.53929
 Alpha virt. eigenvalues --    5.53929   5.54701   5.72144   5.72144   5.80917
 Alpha virt. eigenvalues --    5.99896   6.05259   6.08401   6.08401   6.28296
 Alpha virt. eigenvalues --    6.34908   6.34908   7.52182   7.52182   7.53322
 Alpha virt. eigenvalues --    7.67016   7.67016   7.69480   7.90378   8.03172
 Alpha virt. eigenvalues --    8.03172   8.12891   8.12891   8.17893   8.22128
 Alpha virt. eigenvalues --    8.44091   8.44091
          Condensed to atoms (all electrons):
               1          2          3          4          5
     1  C    3.834932   0.443835   0.305887   0.305887   0.305887
     2  H    0.443835   0.802570  -0.063372  -0.063372  -0.063372
     3  F    0.305887  -0.063372   9.132760  -0.063090  -0.063090
     4  F    0.305887  -0.063372  -0.063090   9.132760  -0.063090
     5  F    0.305887  -0.063372  -0.063090  -0.063090   9.132760
 Mulliken charges:
               1
     1  C    0.803571
     2  H   -0.056288
     3  F   -0.249095
     4  F   -0.249095
     5  F   -0.249095
 Sum of Mulliken charges =  -0.00000
 Mulliken charges with hydrogens summed into heavy atoms:
               1
     1  C    0.747284
     3  F   -0.249095
     4  F   -0.249095
     5  F   -0.249095
 Electronic spatial extent (au):  <R**2>=            202.2605
 Charge=             -0.0000 electrons
 Dipole moment (field-independent basis, Debye):
    X=             -0.0000    Y=             -0.0000    Z=              1.4195  Tot=              1.4195
 Quadrupole moment (field-independent basis, Debye-Ang):
   XX=            -22.2276   YY=            -22.2276   ZZ=            -18.9794
   XY=             -0.0000   XZ=              0.0000   YZ=             -0.0000
 Traceless Quadrupole moment (field-independent basis, Debye-Ang):
   XX=             -1.0827   YY=             -1.0827   ZZ=              2.1655
   XY=             -0.0000   XZ=              0.0000   YZ=             -0.0000
 Octapole moment (field-independent basis, Debye-Ang**2):
  XXX=              0.0000  YYY=             -1.2837  ZZZ=             -0.2727  XYY=              0.0000
  XXY=              1.2837  XXZ=             -0.3834  XZZ=              0.0000  YZZ=              0.0000
  YYZ=             -0.3834  XYZ=             -0.0000
 Hexadecapole moment (field-independent basis, Debye-Ang**3):
 XXXX=            -83.0215 YYYY=            -83.0215 ZZZZ=            -23.2122 XXXY=              0.0000
 XXXZ=              0.0000 YYYX=              0.0000 YYYZ=             -0.3048 ZZZX=             -0.0000
 ZZZY=             -0.0000 XXYY=            -27.6738 XXZZ=            -17.7132 YYZZ=            -17.7132
 XXYZ=              0.3048 YYXZ=             -0.0000 ZZXY=              0.0000
 N-N= 1.371158406427D+02 E-N=-1.079735087989D+03  KE= 3.380065771359D+02
 Symmetry A'   KE= 2.296171340075D+02
 Symmetry A"   KE= 1.083894431284D+02
 Calling FoFJK, ICntrl=      2127 FMM=F ISym2X=1 I1Cent= 0 IOpClX= 0 NMat=1 NMatS=1 NMatT=0.
 ***** Axes restored to original set *****
 -------------------------------------------------------------------
 Center     Atomic                   Forces (Hartrees/Bohr)
 Number     Number              X              Y              Z
 -------------------------------------------------------------------
      1        6           0.000000000    0.000000000   -0.016570002
      2        1          -0.000000000   -0.000000000    0.079434185
      3        9           0.040474611   -0.000000000   -0.020954728
      4        9          -0.020237306   -0.035052042   -0.020954728
      5        9          -0.020237306    0.035052042   -0.020954728
 -------------------------------------------------------------------
 Cartesian Forces:  Max     0.079434185 RMS     0.029230394

 GradGradGradGradGradGradGradGradGradGradGradGradGradGradGradGradGradGrad
 Berny optimization.
 FormGI is forming the generalized inverse of G from B-inverse, IUseBI=4.
 Internal  Forces:  Max     0.079434185 RMS     0.029967154
 Search for a local minimum.
 Step number   1 out of a maximum of   24
 All quantities printed in internal units (Hartrees-Bohrs-Radians)
 Mixed Optimization -- RFO/linear search
 Second derivative matrix not updated -- first step.
 The second derivative matrix:
                          R1        R2        R3        R4        A1
           R1           0.47688
           R2           0.00000   0.67193
           R3           0.00000   0.00000   0.67193
           R4           0.00000   0.00000   0.00000   0.67193
           A1           0.00000   0.00000   0.00000   0.00000   0.16000
           A2           0.00000   0.00000   0.00000   0.00000   0.00000
           A3           0.00000   0.00000   0.00000   0.00000   0.00000
           A4           0.00000   0.00000   0.00000   0.00000   0.00000
           A5           0.00000   0.00000   0.00000   0.00000   0.00000
           A6           0.00000   0.00000   0.00000   0.00000   0.00000
           D1           0.00000   0.00000   0.00000   0.00000   0.00000
           D2           0.00000   0.00000   0.00000   0.00000   0.00000
           D3           0.00000   0.00000   0.00000   0.00000   0.00000
           D4           0.00000   0.00000   0.00000   0.00000   0.00000
                          A2        A3        A4        A5        A6
           A2           0.16000
           A3           0.00000   0.16000
           A4           0.00000   0.00000   0.25000
           A5           0.00000   0.00000   0.00000   0.25000
           A6           0.00000   0.00000   0.00000   0.00000   0.25000
           D1           0.00000   0.00000   0.00000   0.00000   0.00000
           D2           0.00000   0.00000   0.00000   0.00000   0.00000
           D3           0.00000   0.00000   0.00000   0.00000   0.00000
           D4           0.00000   0.00000   0.00000   0.00000   0.00000
                          D1        D2        D3        D4
           D1           0.02750
           D2           0.00000   0.02750
           D3           0.00000   0.00000   0.02750
           D4           0.00000   0.00000   0.00000   0.02750
 ITU=  0
     Eigenvalues ---    0.07173   0.08710   0.11242   0.21434   0.23583
     Eigenvalues ---    0.47688   0.67193   0.67193   0.67193
 RFO step:  Lambda=-2.27019014D-02 EMin= 7.17332387D-02
 Linear search not attempted -- first point.
 Iteration  1 RMS(Cart)=  0.05922369 RMS(Int)=  0.00121970
 Iteration  2 RMS(Cart)=  0.00091751 RMS(Int)=  0.00057820
 Iteration  3 RMS(Cart)=  0.00000121 RMS(Int)=  0.00057819
 Iteration  4 RMS(Cart)=  0.00000000 RMS(Int)=  0.00057819
 ClnCor:  largest displacement from symmetrization is 8.41D-03 for atom     5.
 Variable       Old X    -DE/DX   Delta X   Delta X   Delta X     New X
                                 (Linear)    (Quad)   (Total)
    R1        1.88973   0.07943   0.00000   0.15900   0.15899   2.04872
    R2        2.45664   0.04509   0.00000   0.06491   0.06428   2.52092
    R3        2.45664   0.04509   0.00000   0.06491   0.06428   2.52092
    R4        2.45664   0.04509   0.00000   0.06491   0.06428   2.52092
    A1        1.90241   0.00177   0.00000   0.02207   0.02521   1.92762
    A2        1.90241   0.00278   0.00000   0.02569   0.02521   1.92762
    A3        1.90241   0.00545   0.00000   0.03141   0.02521   1.92762
    A4        1.91879  -0.00064   0.00000  -0.02120  -0.02544   1.89334
    A5        1.91879  -0.00431   0.00000  -0.02806  -0.02544   1.89334
    A6        1.91879  -0.00486   0.00000  -0.02852  -0.02544   1.89334
    D1       -2.08425  -0.00347   0.00000  -0.02992  -0.03064  -2.11489
    D2        2.08425   0.00290   0.00000   0.02930   0.03064   2.11489
    D3       -2.08425  -0.00380   0.00000  -0.03345  -0.03064  -2.11489
    D4        2.11469  -0.00670   0.00000  -0.06274  -0.06128   2.05341
         Item               Value     Threshold  Converged?
 Maximum Force            0.079434     0.000450     NO 
 RMS     Force            0.029967     0.000300     NO 
 Maximum Displacement     0.177756     0.001800     NO 
 RMS     Displacement     0.058625     0.001200     NO 
 Predicted change in Energy=-1.187065D-02
 GradGradGradGradGradGradGradGradGradGradGradGradGradGradGradGradGradGrad

                          Input orientation:                          
 ---------------------------------------------------------------------
 Center     Atomic      Atomic             Coordinates (Angstroms)
 Number     Number       Type             X           Y           Z
 ---------------------------------------------------------------------
      1          6           0        0.000000   -0.000000    0.009930
      2          1           0        0.000000    0.000000    1.094064
      3          9           0        1.249985   -0.000000   -0.456042
      4          9           0       -0.624992   -1.082519   -0.456042
      5          9           0       -0.624992    1.082519   -0.456042
 ---------------------------------------------------------------------
                    Distance matrix (angstroms):
                    1          2          3          4          5
     1  C    0.000000
     2  H    1.084134   0.000000
     3  F    1.334014   1.991304   0.000000
     4  F    1.334014   1.991304   2.165037   0.000000
     5  F    1.334014   1.991304   2.165037   2.165037   0.000000
 Stoichiometry    CHF3
 Framework group  C3V[C3(CH),3SGV(F)]
 Deg. of freedom     3
 Full point group                 C3V     NOp   6
 Largest Abelian subgroup         CS      NOp   2
 Largest concise Abelian subgroup CS      NOp   2
                         Standard orientation:                         
 ---------------------------------------------------------------------
 Center     Atomic      Atomic             Coordinates (Angstroms)
 Number     Number       Type             X           Y           Z
 ---------------------------------------------------------------------
      1          6           0        0.000000    0.000000    0.338151
      2          1           0        0.000000    0.000000    1.422284
      3          9           0        0.000000    1.249985   -0.127822
      4          9           0        1.082519   -0.624992   -0.127822
      5          9           0       -1.082519   -0.624992   -0.127822
 ---------------------------------------------------------------------
 Rotational constants (GHZ):          10.3513478          10.3513478           5.6750457
 Basis read from rwf:  (5D, 7F)
 There are    94 symmetry adapted cartesian basis functions of A'  symmetry.
 There are    61 symmetry adapted cartesian basis functions of A"  symmetry.
 There are    80 symmetry adapted basis functions of A'  symmetry.
 There are    54 symmetry adapted basis functions of A"  symmetry.
   134 basis functions,   222 primitive gaussians,   155 cartesian basis functions
    17 alpha electrons       17 beta electrons
       nuclear repulsion energy       133.7599262591 Hartrees.
 NAtoms=    5 NActive=    5 NUniq=    3 SFac= 2.78D+00 NAtFMM=   60 NAOKFM=F Big=F
 Integral buffers will be    131072 words long.
 Raffenetti 2 integral format.
 Two-electron integral symmetry is turned on.
 One-electron integrals computed using PRISM.
 NBasis=   134 RedAO= T EigKep=  2.18D-03  NBF=    80    54
 NBsUse=   134 1.00D-06 EigRej= -1.00D+00 NBFU=    80    54
 Initial guess from the checkpoint file:  "/wrk/irikura/Gau-16008.chk"
 B after Tr=    -0.000000   -0.000000    0.000000
         Rot=    1.000000   -0.000000   -0.000000   -0.000000 Ang=   0.00 deg.
 Initial guess orbital symmetries:
       Occupied  (E) (E) (A1) (A1) (A1) (E) (E) (A1) (A1) (E) (E)
                 (E) (E) (E) (E) (A2) (A1)
       Virtual   (A1) (E) (E) (A1) (A1) (E) (E) (A1) (A1) (E) (E)
                 (E) (E) (A1) (A2) (E) (E) (A1) (E) (E) (E) (E)
                 (A1) (A1) (A1) (E) (E) (E) (E) (A1) (E) (E) (A2)
                 (E) (E) (A1) (A2) (E) (E) (A1) (E) (E) (E) (E)
                 (A1) (E) (E) (A1) (A1) (A2) (E) (E) (E) (E) (A1)
                 (E) (E) (A1) (E) (E) (E) (E) (A1) (A2) (E) (E)
                 (E) (E) (A1) (E) (E) (E) (E) (A2) (A1) (E) (E)
                 (A2) (A1) (E) (E) (E) (E) (A1) (E) (E) (A1) (E)
                 (E) (E) (E) (A1) (E) (E) (A1) (A1) (A2) (E) (E)
                 (A1) (E) (E) (E) (E) (A2) (E) (E) (A1) (A2) (E)
                 (E) (E) (E) (A1) (A1) (E) (E)
 ExpMin= 7.42D-02 ExpMax= 1.75D+04 ExpMxC= 5.96D+02 IAcc=3 IRadAn=         5 AccDes= 0.00D+00
 Harris functional with IExCor=  402 and IRadAn=       5 diagonalized for initial guess.
 HarFok:  IExCor=  402 AccDes= 0.00D+00 IRadAn=         5 IDoV= 1 UseB2=F ITyADJ=14
 ICtDFT=  3500011 ScaDFX=  1.000000  1.000000  1.000000  1.000000
 FoFCou: FMM=F IPFlag=           0 FMFlag=      100000 FMFlg1=           0
         NFxFlg=           0 DoJE=T BraDBF=F KetDBF=T FulRan=T
         wScrn=  0.000000 ICntrl=       500 IOpCl=  0 I1Cent=   200000004 NGrid=           0
         NMat0=    1 NMatS0=      1 NMatT0=    0 NMatD0=    1 NMtDS0=    0 NMtDT0=    0
 Petite list used in FoFCou.
 Keep R1 ints in memory in symmetry-blocked form, NReq=61429929.
 Requested convergence on RMS density matrix=1.00D-08 within 128 cycles.
 Requested convergence on MAX density matrix=1.00D-06.
 Requested convergence on             energy=1.00D-06.
 No special actions if energy rises.
 Integral accuracy reduced to 1.0D-05 until final iterations.
 Initial convergence to 1.0D-05 achieved.  Increase integral accuracy.
 SCF Done:  E(RB3LYP) =  -338.390640331     A.U. after    9 cycles
            NFock=  9  Conv=0.42D-08     -V/T= 2.0024
 Calling FoFJK, ICntrl=      2127 FMM=F ISym2X=1 I1Cent= 0 IOpClX= 0 NMat=1 NMatS=1 NMatT=0.
 ***** Axes restored to original set *****
 -------------------------------------------------------------------
 Center     Atomic                   Forces (Hartrees/Bohr)
 Number     Number              X              Y              Z
 -------------------------------------------------------------------
      1        6           0.000000000    0.000000000    0.002154630
      2        1          -0.000000000   -0.000000000    0.003477458
      3        9           0.006197089   -0.000000000   -0.001877363
      4        9          -0.003098544   -0.005366836   -0.001877363
      5        9          -0.003098544    0.005366836   -0.001877363
 -------------------------------------------------------------------
 Cartesian Forces:  Max     0.006197089 RMS     0.003082427

 GradGradGradGradGradGradGradGradGradGradGradGradGradGradGradGradGradGrad
 Berny optimization.
 Using GEDIIS/GDIIS optimizer.
 FormGI is forming the generalized inverse of G from B-inverse, IUseBI=4.
 Internal  Forces:  Max     0.006462502 RMS     0.003140179
 Search for a local minimum.
 Step number   2 out of a maximum of   24
 All quantities printed in internal units (Hartrees-Bohrs-Radians)
 Mixed Optimization -- RFO/linear search
 Update second derivatives using D2CorX and points    1    2
 DE= -1.15D-02 DEPred=-1.19D-02 R= 9.70D-01
 TightC=F SS=  1.41D+00  RLast= 2.19D-01 DXNew= 5.0454D-01 6.5790D-01
 Trust test= 9.70D-01 RLast= 2.19D-01 DXMaxT set to 5.05D-01
 The second derivative matrix:
                          R1        R2        R3        R4        A1
           R1           0.48470
           R2          -0.01246   0.65623
           R3          -0.01246  -0.01570   0.65623
           R4          -0.01246  -0.01570  -0.01570   0.65623
           A1          -0.00746  -0.00467  -0.00467  -0.00467   0.15941
           A2          -0.00353  -0.00267  -0.00267  -0.00267  -0.00049
           A3           0.00683   0.00260   0.00260   0.00260  -0.00024
           A4           0.02004   0.01157   0.01157   0.01157   0.00114
           A5           0.00579   0.00432   0.00432   0.00432   0.00079
           A6           0.00367   0.00325   0.00325   0.00325   0.00073
           D1          -0.01046  -0.00514  -0.00514  -0.00514  -0.00017
           D2           0.00821   0.00399   0.00399   0.00399   0.00012
           D3          -0.01172  -0.00578  -0.00578  -0.00578  -0.00021
           D4          -0.01993  -0.00977  -0.00977  -0.00977  -0.00032
                          A2        A3        A4        A5        A6
           A2           0.15966
           A3           0.00006   0.16085
           A4           0.00110   0.00101   0.24813
           A5           0.00055  -0.00008  -0.00174   0.24912
           A6           0.00047  -0.00024  -0.00172  -0.00075   0.24940
           D1          -0.00036  -0.00087  -0.00013   0.00056   0.00067
           D2           0.00028   0.00070   0.00015  -0.00043  -0.00051
           D3          -0.00041  -0.00096  -0.00012   0.00064   0.00075
           D4          -0.00069  -0.00166  -0.00026   0.00107   0.00127
                          D1        D2        D3        D4
           D1           0.02812
           D2          -0.00051   0.02792
           D3           0.00068  -0.00056   0.02825
           D4           0.00119  -0.00098   0.00131   0.02979
 ITU=  1  0
 Use linear search instead of GDIIS.
     Eigenvalues ---    0.07131   0.09409   0.11096   0.21274   0.23456
     Eigenvalues ---    0.48222   0.62818   0.67193   0.67193
 RFO step:  Lambda=-7.61985691D-05 EMin= 7.13078607D-02
 Quartic linear search produced a step of  0.10193.
 Iteration  1 RMS(Cart)=  0.00611008 RMS(Int)=  0.00005135
 Iteration  2 RMS(Cart)=  0.00000427 RMS(Int)=  0.00005124
 Iteration  3 RMS(Cart)=  0.00000000 RMS(Int)=  0.00005124
 ClnCor:  largest displacement from symmetrization is 2.43D-03 for atom     5.
 Variable       Old X    -DE/DX   Delta X   Delta X   Delta X     New X
                                 (Linear)    (Quad)   (Total)
    R1        2.04872   0.00348   0.01621  -0.00536   0.01085   2.05956
    R2        2.52092   0.00646   0.00655   0.00488   0.01164   2.53256
    R3        2.52092   0.00646   0.00655   0.00488   0.01164   2.53256
    R4        2.52092   0.00646   0.00655   0.00488   0.01164   2.53256
    A1        1.92762  -0.00012   0.00257  -0.00190  -0.00007   1.92755
    A2        1.92762  -0.00018   0.00257  -0.00294  -0.00007   1.92755
    A3        1.92762  -0.00035   0.00257  -0.00436  -0.00007   1.92755
    A4        1.89334   0.00006  -0.00259   0.00203   0.00007   1.89341
    A5        1.89334   0.00029  -0.00259   0.00371   0.00007   1.89341
    A6        1.89334   0.00033  -0.00259   0.00378   0.00007   1.89341
    D1       -2.11489   0.00022  -0.00312   0.00286   0.00008  -2.11481
    D2        2.11489  -0.00018   0.00312  -0.00266  -0.00008   2.11481
    D3       -2.11489   0.00023  -0.00312   0.00389   0.00008  -2.11481
    D4        2.05341   0.00041  -0.00625   0.00655   0.00016   2.05357
         Item               Value     Threshold  Converged?
 Maximum Force            0.006463     0.000450     NO 
 RMS     Force            0.003140     0.000300     NO 
 Maximum Displacement     0.010963     0.001800     NO 
 RMS     Displacement     0.006128     0.001200     NO 
 Predicted change in Energy=-1.128978D-04
 GradGradGradGradGradGradGradGradGradGradGradGradGradGradGradGradGradGrad

                          Input orientation:                          
 ---------------------------------------------------------------------
 Center     Atomic      Atomic             Coordinates (Angstroms)
 Number     Number       Type             X           Y           Z
 ---------------------------------------------------------------------
      1          6           0        0.000000    0.000000    0.009692
      2          1           0        0.000000    0.000000    1.099567
      3          9           0        1.255786   -0.000000   -0.458345
      4          9           0       -0.627893   -1.087543   -0.458345
      5          9           0       -0.627893    1.087543   -0.458345
 ---------------------------------------------------------------------
                    Distance matrix (angstroms):
                    1          2          3          4          5
     1  C    0.000000
     2  H    1.089874   0.000000
     3  F    1.340171   2.001022   0.000000
     4  F    1.340171   2.001022   2.175085   0.000000
     5  F    1.340171   2.001022   2.175085   2.175085   0.000000
 Stoichiometry    CHF3
 Framework group  C3V[C3(CH),3SGV(F)]
 Deg. of freedom     3
 Full point group                 C3V     NOp   6
 Largest Abelian subgroup         CS      NOp   2
 Largest concise Abelian subgroup CS      NOp   2
                         Standard orientation:                         
 ---------------------------------------------------------------------
 Center     Atomic      Atomic             Coordinates (Angstroms)
 Number     Number       Type             X           Y           Z
 ---------------------------------------------------------------------
      1          6           0        0.000000    0.000000    0.339622
      2          1           0        0.000000    0.000000    1.429496
      3          9           0        0.000000    1.255786   -0.128416
      4          9           0        1.087543   -0.627893   -0.128416
      5          9           0       -1.087543   -0.627893   -0.128416
 ---------------------------------------------------------------------
 Rotational constants (GHZ):          10.2557323          10.2557323           5.6227327
 Basis read from rwf:  (5D, 7F)
 There are    94 symmetry adapted cartesian basis functions of A'  symmetry.
 There are    61 symmetry adapted cartesian basis functions of A"  symmetry.
 There are    80 symmetry adapted basis functions of A'  symmetry.
 There are    54 symmetry adapted basis functions of A"  symmetry.
   134 basis functions,   222 primitive gaussians,   155 cartesian basis functions
    17 alpha electrons       17 beta electrons
       nuclear repulsion energy       133.1400190346 Hartrees.
 NAtoms=    5 NActive=    5 NUniq=    3 SFac= 2.78D+00 NAtFMM=   60 NAOKFM=F Big=F
 Integral buffers will be    131072 words long.
 Raffenetti 2 integral format.
 Two-electron integral symmetry is turned on.
 One-electron integrals computed using PRISM.
 NBasis=   134 RedAO= T EigKep=  2.22D-03  NBF=    80    54
 NBsUse=   134 1.00D-06 EigRej= -1.00D+00 NBFU=    80    54
 Initial guess from the checkpoint file:  "/wrk/irikura/Gau-16008.chk"
 B after Tr=    -0.000000    0.000000   -0.000000
         Rot=    1.000000   -0.000000    0.000000   -0.000000 Ang=   0.00 deg.
 Initial guess orbital symmetries:
       Occupied  (E) (E) (A1) (A1) (A1) (E) (E) (A1) (A1) (E) (E)
                 (E) (E) (E) (E) (A2) (A1)
       Virtual   (A1) (E) (E) (A1) (E) (E) (A1) (A1) (A1) (E) (E)
                 (E) (E) (A1) (A2) (E) (E) (A1) (E) (E) (E) (E)
                 (A1) (A1) (A1) (E) (E) (E) (E) (A1) (E) (E) (A2)
                 (A1) (E) (E) (A2) (E) (E) (E) (E) (A1) (E) (E)
                 (A1) (E) (E) (A1) (A1) (A2) (E) (E) (E) (E) (A1)
                 (E) (E) (A1) (E) (E) (E) (E) (A1) (A2) (E) (E)
                 (E) (E) (A1) (E) (E) (E) (E) (A2) (A1) (E) (E)
                 (A1) (A2) (E) (E) (E) (E) (E) (E) (A1) (A1) (E)
                 (E) (A1) (E) (E) (E) (E) (A1) (A2) (A1) (E) (E)
                 (A1) (E) (E) (E) (E) (A2) (A1) (E) (E) (A2) (E)
                 (E) (E) (E) (A1) (A1) (E) (E)
 Keep R1 ints in memory in symmetry-blocked form, NReq=61429929.
 Requested convergence on RMS density matrix=1.00D-08 within 128 cycles.
 Requested convergence on MAX density matrix=1.00D-06.
 Requested convergence on             energy=1.00D-06.
 No special actions if energy rises.
 SCF Done:  E(RB3LYP) =  -338.390771916     A.U. after    7 cycles
            NFock=  7  Conv=0.28D-08     -V/T= 2.0026
 Calling FoFJK, ICntrl=      2127 FMM=F ISym2X=1 I1Cent= 0 IOpClX= 0 NMat=1 NMatS=1 NMatT=0.
 ***** Axes restored to original set *****
 -------------------------------------------------------------------
 Center     Atomic                   Forces (Hartrees/Bohr)
 Number     Number              X              Y              Z
 -------------------------------------------------------------------
      1        6           0.000000000    0.000000000    0.000860559
      2        1          -0.000000000   -0.000000000   -0.000773562
      3        9           0.000286042   -0.000000000   -0.000028999
      4        9          -0.000143021   -0.000247719   -0.000028999
      5        9          -0.000143021    0.000247719   -0.000028999
 -------------------------------------------------------------------
 Cartesian Forces:  Max     0.000860559 RMS     0.000325263

 GradGradGradGradGradGradGradGradGradGradGradGradGradGradGradGradGradGrad
 Berny optimization.
 Using GEDIIS/GDIIS optimizer.
 FormGI is forming the generalized inverse of G from B-inverse, IUseBI=4.
 Internal  Forces:  Max     0.000773562 RMS     0.000246709
 Search for a local minimum.
 Step number   3 out of a maximum of   24
 All quantities printed in internal units (Hartrees-Bohrs-Radians)
 Mixed Optimization -- En-DIIS/RFO-DIIS
 Update second derivatives using D2CorX and points    1    2    3
 DE= -1.32D-04 DEPred=-1.13D-04 R= 1.17D+00
 TightC=F SS=  1.41D+00  RLast= 2.29D-02 DXNew= 8.4853D-01 6.8668D-02
 Trust test= 1.17D+00 RLast= 2.29D-02 DXMaxT set to 5.05D-01
 The second derivative matrix:
                          R1        R2        R3        R4        A1
           R1           0.47779
           R2          -0.02672   0.63329
           R3          -0.02672  -0.03864   0.63329
           R4          -0.02672  -0.03864  -0.03864   0.63329
           A1          -0.00463  -0.00100  -0.00100  -0.00100   0.15927
           A2          -0.00360  -0.00284  -0.00284  -0.00284  -0.00053
           A3          -0.00087  -0.00768  -0.00768  -0.00768  -0.00003
           A4           0.00960  -0.00213  -0.00213  -0.00213   0.00155
           A5           0.00583   0.00450   0.00450   0.00450   0.00085
           A6           0.00530   0.00551   0.00551   0.00551   0.00075
           D1          -0.00223   0.00577   0.00577   0.00577  -0.00043
           D2           0.00174  -0.00460  -0.00460  -0.00460   0.00032
           D3          -0.00268   0.00622   0.00622   0.00622  -0.00049
           D4          -0.00441   0.01082   0.01082   0.01082  -0.00081
                          A2        A3        A4        A5        A6
           A2           0.15968
           A3           0.00024   0.16095
           A4           0.00129   0.00061   0.24702
           A5           0.00052  -0.00037  -0.00205   0.24917
           A6           0.00040  -0.00051  -0.00191  -0.00065   0.24954
           D1          -0.00054  -0.00082   0.00046   0.00085   0.00090
           D2           0.00041   0.00066  -0.00032  -0.00065  -0.00070
           D3          -0.00060  -0.00090   0.00055   0.00095   0.00101
           D4          -0.00102  -0.00156   0.00086   0.00160   0.00171
                          D1        D2        D3        D4
           D1           0.02791
           D2          -0.00035   0.02779
           D3           0.00044  -0.00037   0.02797
           D4           0.00079  -0.00067   0.00085   0.02902
 ITU=  1  1  0
 Use linear search instead of GDIIS.
     Eigenvalues ---    0.07130   0.09358   0.11092   0.21251   0.23453
     Eigenvalues ---    0.45702   0.57911   0.67193   0.67193
 RFO step:  Lambda=-1.69465759D-06 EMin= 7.12975358D-02
 Quartic linear search produced a step of  0.00528.
 Iteration  1 RMS(Cart)=  0.00057924 RMS(Int)=  0.00000010
 Iteration  2 RMS(Cart)=  0.00000006 RMS(Int)=  0.00000007
 ClnCor:  largest displacement from symmetrization is 5.05D-05 for atom     5.
 Variable       Old X    -DE/DX   Delta X   Delta X   Delta X     New X
                                 (Linear)    (Quad)   (Total)
    R1        2.05956  -0.00077   0.00006  -0.00162  -0.00156   2.05800
    R2        2.53256   0.00028   0.00006   0.00033   0.00039   2.53295
    R3        2.53256   0.00028   0.00006   0.00033   0.00039   2.53295
    R4        2.53256   0.00028   0.00006   0.00033   0.00039   2.53295
    A1        1.92755  -0.00002  -0.00000  -0.00028  -0.00030   1.92726
    A2        1.92755  -0.00003  -0.00000  -0.00030  -0.00030   1.92726
    A3        1.92755  -0.00006  -0.00000  -0.00033  -0.00030   1.92726
    A4        1.89341   0.00001   0.00000   0.00029   0.00031   1.89372
    A5        1.89341   0.00005   0.00000   0.00033   0.00031   1.89372
    A6        1.89341   0.00006   0.00000   0.00033   0.00031   1.89372
    D1       -2.11481   0.00004   0.00000   0.00035   0.00035  -2.11445
    D2        2.11481  -0.00003  -0.00000  -0.00034  -0.00035   2.11445
    D3       -2.11481   0.00004   0.00000   0.00037   0.00035  -2.11445
    D4        2.05357   0.00007   0.00000   0.00071   0.00071   2.05428
         Item               Value     Threshold  Converged?
 Maximum Force            0.000774     0.000450     NO 
 RMS     Force            0.000247     0.000300     YES
 Maximum Displacement     0.001603     0.001800     YES
 RMS     Displacement     0.000574     0.001200     YES
 Predicted change in Energy=-8.508586D-07
 GradGradGradGradGradGradGradGradGradGradGradGradGradGradGradGradGradGrad

                          Input orientation:                          
 ---------------------------------------------------------------------
 Center     Atomic      Atomic             Coordinates (Angstroms)
 Number     Number       Type             X           Y           Z
 ---------------------------------------------------------------------
      1          6           0       -0.000000    0.000000    0.009670
      2          1           0       -0.000000    0.000000    1.098718
      3          9           0        1.256121   -0.000000   -0.458066
      4          9           0       -0.628060   -1.087833   -0.458066
      5          9           0       -0.628060    1.087833   -0.458066
 ---------------------------------------------------------------------
                    Distance matrix (angstroms):
                    1          2          3          4          5
     1  C    0.000000
     2  H    1.089049   0.000000
     3  F    1.340379   2.000354   0.000000
     4  F    1.340379   2.000354   2.175665   0.000000
     5  F    1.340379   2.000354   2.175665   2.175665   0.000000
 Stoichiometry    CHF3
 Framework group  C3V[C3(CH),3SGV(F)]
 Deg. of freedom     3
 Full point group                 C3V     NOp   6
 Largest Abelian subgroup         CS      NOp   2
 Largest concise Abelian subgroup CS      NOp   2
                         Standard orientation:                         
 ---------------------------------------------------------------------
 Center     Atomic      Atomic             Coordinates (Angstroms)
 Number     Number       Type             X           Y           Z
 ---------------------------------------------------------------------
      1          6           0        0.000000    0.000000    0.339406
      2          1           0        0.000000    0.000000    1.428455
      3          9           0        0.000000    1.256121   -0.128329
      4          9           0        1.087833   -0.628060   -0.128329
      5          9           0       -1.087833   -0.628060   -0.128329
 ---------------------------------------------------------------------
 Rotational constants (GHZ):          10.2519852          10.2519852           5.6197359
 Basis read from rwf:  (5D, 7F)
 There are    94 symmetry adapted cartesian basis functions of A'  symmetry.
 There are    61 symmetry adapted cartesian basis functions of A"  symmetry.
 There are    80 symmetry adapted basis functions of A'  symmetry.
 There are    54 symmetry adapted basis functions of A"  symmetry.
   134 basis functions,   222 primitive gaussians,   155 cartesian basis functions
    17 alpha electrons       17 beta electrons
       nuclear repulsion energy       133.1189132452 Hartrees.
 NAtoms=    5 NActive=    5 NUniq=    3 SFac= 2.78D+00 NAtFMM=   60 NAOKFM=F Big=F
 Integral buffers will be    131072 words long.
 Raffenetti 2 integral format.
 Two-electron integral symmetry is turned on.
 One-electron integrals computed using PRISM.
 NBasis=   134 RedAO= T EigKep=  2.22D-03  NBF=    80    54
 NBsUse=   134 1.00D-06 EigRej= -1.00D+00 NBFU=    80    54
 Initial guess from the checkpoint file:  "/wrk/irikura/Gau-16008.chk"
 B after Tr=     0.000000    0.000000   -0.000000
         Rot=    1.000000   -0.000000   -0.000000   -0.000000 Ang=   0.00 deg.
 Initial guess orbital symmetries:
       Occupied  (E) (E) (A1) (A1) (A1) (E) (E) (A1) (A1) (E) (E)
                 (E) (E) (E) (E) (A2) (A1)
       Virtual   (A1) (E) (E) (A1) (A1) (E) (E) (A1) (A1) (E) (E)
                 (E) (E) (A1) (A2) (E) (E) (A1) (E) (E) (E) (E)
                 (A1) (A1) (A1) (E) (E) (E) (E) (A1) (E) (E) (A2)
                 (A1) (E) (E) (A2) (E) (E) (E) (E) (A1) (E) (E)
                 (A1) (E) (E) (A1) (A1) (A2) (E) (E) (E) (E) (A1)
                 (E) (E) (A1) (E) (E) (E) (E) (A1) (A2) (E) (E)
                 (E) (E) (A1) (E) (E) (E) (E) (A1) (A2) (E) (E)
                 (A2) (A1) (E) (E) (E) (E) (E) (E) (A1) (A1) (E)
                 (E) (A1) (E) (E) (E) (E) (A1) (A2) (A1) (E) (E)
                 (A1) (E) (E) (E) (E) (A2) (A1) (E) (E) (A2) (E)
                 (E) (E) (E) (A1) (A1) (E) (E)
 Keep R1 ints in memory in symmetry-blocked form, NReq=61429929.
 Requested convergence on RMS density matrix=1.00D-08 within 128 cycles.
 Requested convergence on MAX density matrix=1.00D-06.
 Requested convergence on             energy=1.00D-06.
 No special actions if energy rises.
 SCF Done:  E(RB3LYP) =  -338.390772963     A.U. after    6 cycles
            NFock=  6  Conv=0.39D-08     -V/T= 2.0026
 Calling FoFJK, ICntrl=      2127 FMM=F ISym2X=1 I1Cent= 0 IOpClX= 0 NMat=1 NMatS=1 NMatT=0.
 ***** Axes restored to original set *****
 -------------------------------------------------------------------
 Center     Atomic                   Forces (Hartrees/Bohr)
 Number     Number              X              Y              Z
 -------------------------------------------------------------------
      1        6           0.000000000    0.000000000    0.000421890
      2        1          -0.000000000   -0.000000000   -0.000244552
      3        9           0.000059874   -0.000000000   -0.000059113
      4        9          -0.000029937   -0.000051853   -0.000059113
      5        9          -0.000029937    0.000051853   -0.000059113
 -------------------------------------------------------------------
 Cartesian Forces:  Max     0.000421890 RMS     0.000131411

 GradGradGradGradGradGradGradGradGradGradGradGradGradGradGradGradGradGrad
 Berny optimization.
 Using GEDIIS/GDIIS optimizer.
 FormGI is forming the generalized inverse of G from B-inverse, IUseBI=4.
 Internal  Forces:  Max     0.000244552 RMS     0.000076687
 Search for a local minimum.
 Step number   4 out of a maximum of   24
 All quantities printed in internal units (Hartrees-Bohrs-Radians)
 Mixed Optimization -- En-DIIS/RFO-DIIS
 Swapping is turned off.
 Update second derivatives using D2CorX and points    1    2    3    4
 DE= -1.05D-06 DEPred=-8.51D-07 R= 1.23D+00
 TightC=F SS=  1.41D+00  RLast= 2.08D-03 DXNew= 8.4853D-01 6.2440D-03
 Trust test= 1.23D+00 RLast= 2.08D-03 DXMaxT set to 5.05D-01
 The second derivative matrix:
                          R1        R2        R3        R4        A1
           R1           0.34227
           R2           0.01990   0.61824
           R3           0.01990  -0.05369   0.61824
           R4           0.01990  -0.05369  -0.05369   0.61824
           A1          -0.01117   0.00088   0.00088   0.00088   0.15884
           A2          -0.00542  -0.00296  -0.00296  -0.00296  -0.00059
           A3           0.00962  -0.01302  -0.01302  -0.01302   0.00091
           A4           0.02966  -0.00919  -0.00919  -0.00919   0.00300
           A5           0.00908   0.00455   0.00455   0.00455   0.00096
           A6           0.00588   0.00671   0.00671   0.00671   0.00064
           D1          -0.01500   0.01136   0.01136   0.01136  -0.00148
           D2           0.01116  -0.00876  -0.00876  -0.00876   0.00111
           D3          -0.01619   0.01212   0.01212   0.01212  -0.00161
           D4          -0.02734   0.02087   0.02087   0.02087  -0.00272
                          A2        A3        A4        A5        A6
           A2           0.16022
           A3           0.00235   0.16613
           A4           0.00259   0.00149   0.24438
           A5          -0.00033  -0.00369  -0.00412   0.25048
           A6          -0.00078  -0.00449  -0.00389   0.00119   0.25198
           D1          -0.00232  -0.00454   0.00064   0.00367   0.00414
           D2           0.00179   0.00358  -0.00038  -0.00282  -0.00320
           D3          -0.00250  -0.00485   0.00075   0.00395   0.00445
           D4          -0.00430  -0.00843   0.00112   0.00677   0.00765
                          D1        D2        D3        D4
           D1           0.03035
           D2          -0.00228   0.02933
           D3           0.00303  -0.00243   0.03071
           D4           0.00531  -0.00426   0.00564   0.03740
 ITU=  1  1  1  0
     Eigenvalues ---    0.07152   0.10461   0.11346   0.21598   0.23502
     Eigenvalues ---    0.34072   0.52355   0.67193   0.67193
 En-DIIS/RFO-DIIS/Sim-DIIS IScMMF=       -3 using points:     4    3
 RFO step:  Lambda=-2.94429326D-07.
 DidBck=F Rises=F RFO-DIIS coefs:    1.13762   -0.13762
 Iteration  1 RMS(Cart)=  0.00015743 RMS(Int)=  0.00000006
 Iteration  2 RMS(Cart)=  0.00000004 RMS(Int)=  0.00000004
 ClnCor:  largest displacement from symmetrization is 6.92D-05 for atom     5.
 Variable       Old X    -DE/DX   Delta X   Delta X   Delta X     New X
                                 (Linear)    (Quad)   (Total)
    R1        2.05800  -0.00024  -0.00021  -0.00057  -0.00079   2.05721
    R2        2.53295   0.00008   0.00005   0.00017   0.00022   2.53317
    R3        2.53295   0.00008   0.00005   0.00017   0.00022   2.53317
    R4        2.53295   0.00008   0.00005   0.00017   0.00022   2.53317
    A1        1.92726   0.00001  -0.00004   0.00020   0.00018   1.92744
    A2        1.92726   0.00002  -0.00004   0.00023   0.00018   1.92744
    A3        1.92726   0.00003  -0.00004   0.00027   0.00018   1.92744
    A4        1.89372  -0.00000   0.00004  -0.00021  -0.00019   1.89353
    A5        1.89372  -0.00002   0.00004  -0.00026  -0.00019   1.89353
    A6        1.89372  -0.00003   0.00004  -0.00026  -0.00019   1.89353
    D1       -2.11445  -0.00002   0.00005  -0.00026  -0.00022  -2.11467
    D2        2.11445   0.00002  -0.00005   0.00025   0.00022   2.11467
    D3       -2.11445  -0.00002   0.00005  -0.00028  -0.00022  -2.11467
    D4        2.05428  -0.00003   0.00010  -0.00053  -0.00043   2.05385
         Item               Value     Threshold  Converged?
 Maximum Force            0.000245     0.000450     YES
 RMS     Force            0.000077     0.000300     YES
 Maximum Displacement     0.000479     0.001800     YES
 RMS     Displacement     0.000154     0.001200     YES
 Predicted change in Energy=-1.466577D-07
 Optimization completed.
    -- Stationary point found.
                           ----------------------------
                           !   Optimized Parameters   !
                           ! (Angstroms and Degrees)  !
 --------------------------                            --------------------------
 ! Name  Definition              Value          Derivative Info.                !
 --------------------------------------------------------------------------------
 ! R1    R(1,2)                  1.089          -DE/DX =   -0.0002              !
 ! R2    R(1,3)                  1.3404         -DE/DX =    0.0001              !
 ! R3    R(1,4)                  1.3404         -DE/DX =    0.0001              !
 ! R4    R(1,5)                  1.3404         -DE/DX =    0.0001              !
 ! A1    A(2,1,3)              110.4236         -DE/DX =    0.0                 !
 ! A2    A(2,1,4)              110.4236         -DE/DX =    0.0                 !
 ! A3    A(2,1,5)              110.4236         -DE/DX =    0.0                 !
 ! A4    A(3,1,4)              108.5023         -DE/DX =    0.0                 !
 ! A5    A(3,1,5)              108.5023         -DE/DX =    0.0                 !
 ! A6    A(4,1,5)              108.5023         -DE/DX =    0.0                 !
 ! D1    D(2,1,4,3)           -121.1493         -DE/DX =    0.0                 !
 ! D2    D(2,1,5,3)            121.1493         -DE/DX =    0.0                 !
 ! D3    D(2,1,5,4)           -121.1493         -DE/DX =    0.0                 !
 ! D4    D(3,1,5,4)            117.7014         -DE/DX =    0.0                 !
 --------------------------------------------------------------------------------
 GradGradGradGradGradGradGradGradGradGradGradGradGradGradGradGradGradGrad

                          Input orientation:                          
 ---------------------------------------------------------------------
 Center     Atomic      Atomic             Coordinates (Angstroms)
 Number     Number       Type             X           Y           Z
 ---------------------------------------------------------------------
      1          6           0       -0.000000    0.000000    0.009670
      2          1           0       -0.000000    0.000000    1.098718
      3          9           0        1.256121   -0.000000   -0.458066
      4          9           0       -0.628060   -1.087833   -0.458066
      5          9           0       -0.628060    1.087833   -0.458066
 ---------------------------------------------------------------------
                    Distance matrix (angstroms):
                    1          2          3          4          5
     1  C    0.000000
     2  H    1.089049   0.000000
     3  F    1.340379   2.000354   0.000000
     4  F    1.340379   2.000354   2.175665   0.000000
     5  F    1.340379   2.000354   2.175665   2.175665   0.000000
 Stoichiometry    CHF3
 Framework group  C3V[C3(CH),3SGV(F)]
 Deg. of freedom     3
 Full point group                 C3V     NOp   6
 Largest Abelian subgroup         CS      NOp   2
 Largest concise Abelian subgroup CS      NOp   2
                         Standard orientation:                         
 ---------------------------------------------------------------------
 Center     Atomic      Atomic             Coordinates (Angstroms)
 Number     Number       Type             X           Y           Z
 ---------------------------------------------------------------------
      1          6           0        0.000000    0.000000    0.339406
      2          1           0        0.000000    0.000000    1.428455
      3          9           0        0.000000    1.256121   -0.128329
      4          9           0        1.087833   -0.628060   -0.128329
      5          9           0       -1.087833   -0.628060   -0.128329
 ---------------------------------------------------------------------
 Rotational constants (GHZ):          10.2519852          10.2519852           5.6197359

 **********************************************************************

            Population analysis using the SCF Density.

 **********************************************************************

 Orbital symmetries:
       Occupied  (E) (E) (A1) (A1) (A1) (E) (E) (A1) (A1) (E) (E)
                 (E) (E) (E) (E) (A2) (A1)
       Virtual   (A1) (E) (E) (A1) (A1) (E) (E) (A1) (A1) (E) (E)
                 (E) (E) (A1) (A2) (E) (E) (A1) (E) (E) (E) (E)
                 (A1) (A1) (A1) (E) (E) (E) (E) (A1) (E) (E) (A2)
                 (A1) (E) (E) (A2) (E) (E) (E) (E) (A1) (E) (E)
                 (A1) (E) (E) (A1) (A1) (A2) (E) (E) (E) (E) (A1)
                 (E) (E) (A1) (E) (E) (E) (E) (A1) (A2) (E) (E)
                 (E) (E) (A1) (E) (E) (E) (E) (A1) (A2) (E) (E)
                 (A2) (A1) (E) (E) (E) (E) (E) (E) (A1) (A1) (E)
                 (E) (A1) (E) (E) (E) (E) (A1) (A2) (A1) (E) (E)
                 (A1) (E) (E) (E) (E) (A2) (A1) (E) (E) (A2) (E)
                 (E) (E) (E) (A1) (A1) (E) (E)
 The electronic state is 1-A1.
 Alpha  occ. eigenvalues --  -24.72439 -24.72439 -24.72438 -10.43801  -1.32977
 Alpha  occ. eigenvalues --   -1.24331  -1.24331  -0.73482  -0.62172  -0.60873
 Alpha  occ. eigenvalues --   -0.60873  -0.48712  -0.48712  -0.45219  -0.45219
 Alpha  occ. eigenvalues --   -0.43054  -0.41317
 Alpha virt. eigenvalues --    0.02136   0.08195   0.08195   0.10698   0.21624
 Alpha virt. eigenvalues --    0.21824   0.21824   0.26140   0.29102   0.39171
 Alpha virt. eigenvalues --    0.39171   0.43751   0.43751   0.44803   0.56846
 Alpha virt. eigenvalues --    0.60465   0.60465   0.67839   0.81569   0.81569
 Alpha virt. eigenvalues --    0.83464   0.83464   0.90308   0.95480   1.05534
 Alpha virt. eigenvalues --    1.07425   1.07425   1.24437   1.24437   1.47133
 Alpha virt. eigenvalues --    1.63485   1.63485   1.78783   1.81134   1.81766
 Alpha virt. eigenvalues --    1.81766   2.02360   2.04208   2.04208   2.15875
 Alpha virt. eigenvalues --    2.15875   2.16998   2.30749   2.30749   2.37041
 Alpha virt. eigenvalues --    2.40527   2.40527   2.46724   2.48381   2.81782
 Alpha virt. eigenvalues --    2.86575   2.86575   3.00212   3.00212   3.06886
 Alpha virt. eigenvalues --    3.35121   3.35121   3.38566   3.50896   3.50896
 Alpha virt. eigenvalues --    3.67334   3.67334   3.69031   3.72896   3.85556
 Alpha virt. eigenvalues --    3.85556   4.05933   4.05933   4.11529   4.16653
 Alpha virt. eigenvalues --    4.16653   4.31547   4.31547   4.35129   4.35335
 Alpha virt. eigenvalues --    4.35458   4.35458   4.40684   4.41304   4.41859
 Alpha virt. eigenvalues --    4.41859   4.58221   4.58221   4.79452   4.79452
 Alpha virt. eigenvalues --    4.81771   5.06456   5.15864   5.15864   5.28299
 Alpha virt. eigenvalues --    5.38740   5.38740   5.56899   5.56899   5.64081
 Alpha virt. eigenvalues --    5.83312   5.85073   5.90131   5.90131   6.09297
 Alpha virt. eigenvalues --    6.22672   6.22672   7.51217   7.51217   7.52812
 Alpha virt. eigenvalues --    7.61628   7.64307   7.64307   7.87412   7.98087
 Alpha virt. eigenvalues --    7.98087   8.10846   8.10846   8.13549   8.14850
 Alpha virt. eigenvalues --    8.32852   8.32852
          Condensed to atoms (all electrons):
               1          2          3          4          5
     1  C    3.956312   0.427849   0.290957   0.290957   0.290957
     2  H    0.427849   0.724533  -0.051736  -0.051736  -0.051736
     3  F    0.290957  -0.051736   9.126140  -0.058382  -0.058382
     4  F    0.290957  -0.051736  -0.058382   9.126140  -0.058382
     5  F    0.290957  -0.051736  -0.058382  -0.058382   9.126140
 Mulliken charges:
               1
     1  C    0.742967
     2  H    0.002826
     3  F   -0.248598
     4  F   -0.248598
     5  F   -0.248598
 Sum of Mulliken charges =  -0.00000
 Mulliken charges with hydrogens summed into heavy atoms:
               1
     1  C    0.745793
     3  F   -0.248598
     4  F   -0.248598
     5  F   -0.248598
 Electronic spatial extent (au):  <R**2>=            210.9114
 Charge=              0.0000 electrons
 Dipole moment (field-independent basis, Debye):
    X=              0.0000    Y=             -0.0000    Z=              1.6599  Tot=              1.6599
 Quadrupole moment (field-independent basis, Debye-Ang):
   XX=            -22.5160   YY=            -22.5160   ZZ=            -18.7701
   XY=             -0.0000   XZ=             -0.0000   YZ=             -0.0000
 Traceless Quadrupole moment (field-independent basis, Debye-Ang):
   XX=             -1.2486   YY=             -1.2486   ZZ=              2.4973
   XY=             -0.0000   XZ=             -0.0000   YZ=             -0.0000
 Octapole moment (field-independent basis, Debye-Ang**2):
  XXX=              0.0000  YYY=             -1.3050  ZZZ=              0.1209  XYY=             -0.0000
  XXY=              1.3050  XXZ=             -0.5894  XZZ=              0.0000  YZZ=              0.0000
  YYZ=             -0.5894  XYZ=              0.0000
 Hexadecapole moment (field-independent basis, Debye-Ang**3):
 XXXX=            -86.6536 YYYY=            -86.6536 ZZZZ=            -24.4783 XXXY=              0.0000
 XXXZ=             -0.0000 YYYX=              0.0000 YYYZ=             -0.3762 ZZZX=             -0.0000
 ZZZY=             -0.0000 XXYY=            -28.8845 XXZZ=            -18.7670 YYZZ=            -18.7670
 XXYZ=              0.3762 YYXZ=              0.0000 ZZXY=              0.0000
 N-N= 1.331189132452D+02 E-N=-1.071530294711D+03  KE= 3.375259078638D+02
 Symmetry A'   KE= 2.292602760026D+02
 Symmetry A"   KE= 1.082656318612D+02
 B after Tr=     0.000000   -0.000000    0.043553
         Rot=    1.000000    0.000000    0.000000   -0.000000 Ang=   0.00 deg.
 Atom   2 needs constant  BL=   1.0000000000 but is    1.0890486378
 Input z-matrix variables are not compatible with final structure.
 1\1\GINC-GAMBA\FOpt\RB3LYP\Gen\C1H1F3\IRIKURA\02-Feb-2022\0\\# b3lyp/g
 en opt freq\\CHF3, B3LYP/pcseg-2\\0,1\C,0.,0.,0.0096695233\H,0.,0.,1.0
 987181611\F,1.2561209758,0.,-0.4580662213\F,-0.6280604879,-1.087832675
 3,-0.4580662213\F,-0.6280604879,1.0878326753,-0.4580662213\\Version=ES
 64L-G16RevB.01\State=1-A1\HF=-338.390773\RMSD=3.916e-09\RMSF=1.314e-04
 \Dipole=0.,0.,0.6530435\Quadrupole=-0.9283364,-0.9283364,1.8566728,0.,
 0.,0.\PG=C03V [C3(C1H1),3SGV(F1)]\\@


 NATURE GIVES TO EVERY TIME AND SEASON SOME BEAUTY OF ITS OWN.

                                                    --DICKENS
 Job cpu time:       0 days  0 hours  1 minutes  5.3 seconds.
 Elapsed time:       0 days  0 hours  1 minutes  4.9 seconds.
 File lengths (MBytes):  RWF=     15 Int=      0 D2E=      0 Chk=      2 Scr=      1
 Normal termination of Gaussian 16 at Wed Feb  2 18:06:51 2022.
 Link1:  Proceeding to internal job step number  2.
 ------------------------------------------------------------------
 #N Geom=AllCheck Guess=TCheck SCRF=Check GenChk RB3LYP/ChkBas Freq
 ------------------------------------------------------------------
 1/10=4,29=7,30=1,38=1,40=1/1,3;
 2/12=2,40=1/2;
 3/5=7,6=2,11=2,14=-4,25=1,30=1,67=1,70=2,71=2,74=-5,82=7,116=1,140=1/1,2,3;
 4/5=101/1;
 5/5=2,38=6,98=1/2;
 8/6=4,10=90,11=11/1;
 11/6=1,8=1,9=11,15=111,16=1/1,2,10;
 10/6=1/2;
 6/7=2,8=2,9=2,10=2,28=1/1;
 7/8=1,10=1,25=1/1,2,3,16;
 1/10=4,30=1/3;
 99//99;
 Structure from the checkpoint file:  "/wrk/irikura/Gau-16008.chk"
 -------------------
 CHF3, B3LYP/pcseg-2
 -------------------
 Charge =  0 Multiplicity = 1
 Redundant internal coordinates found in file.  (old form).
 C,0,0.,0.,0.0096695233
 H,0,0.,0.,1.0987181611
 F,0,1.2561209758,0.,-0.4580662213
 F,0,-0.6280604879,-1.0878326753,-0.4580662213
 F,0,-0.6280604879,1.0878326753,-0.4580662213
 Recover connectivity data from disk.

 GradGradGradGradGradGradGradGradGradGradGradGradGradGradGradGradGradGrad
 Berny optimization.
 Initialization pass.
                           ----------------------------
                           !    Initial Parameters    !
                           ! (Angstroms and Degrees)  !
 --------------------------                            --------------------------
 ! Name  Definition              Value          Derivative Info.                !
 --------------------------------------------------------------------------------
 ! R1    R(1,2)                  1.089          calculate D2E/DX2 analytically  !
 ! R2    R(1,3)                  1.3404         calculate D2E/DX2 analytically  !
 ! R3    R(1,4)                  1.3404         calculate D2E/DX2 analytically  !
 ! R4    R(1,5)                  1.3404         calculate D2E/DX2 analytically  !
 ! A1    A(2,1,3)              110.4236         calculate D2E/DX2 analytically  !
 ! A2    A(2,1,4)              110.4236         calculate D2E/DX2 analytically  !
[...]
 Octapole moment (field-independent basis, Debye-Ang**2):
  XXX=             -0.0000  YYY=             -1.3050  ZZZ=              0.1209  XYY=              0.0000
  XXY=              1.3050  XXZ=             -0.5894  XZZ=              0.0000  YZZ=              0.0000
  YYZ=             -0.5894  XYZ=              0.0000
 Hexadecapole moment (field-independent basis, Debye-Ang**3):
 XXXX=            -86.6536 YYYY=            -86.6536 ZZZZ=            -24.4783 XXXY=              0.0000
 XXXZ=             -0.0000 YYYX=              0.0000 YYYZ=             -0.3762 ZZZX=             -0.0000
 ZZZY=             -0.0000 XXYY=            -28.8845 XXZZ=            -18.7670 YYZZ=            -18.7670
 XXYZ=              0.3762 YYXZ=             -0.0000 ZZXY=              0.0000
 N-N= 1.331189132452D+02 E-N=-1.071530296191D+03  KE= 3.375259084526D+02
 Symmetry A'   KE= 2.292602764512D+02
 Symmetry A"   KE= 1.082656320013D+02
  Exact polarizability:  16.855   0.000  16.855  -0.000   0.000  15.404
 Approx polarizability:  21.615  -0.000  21.615  -0.000  -0.000  18.941
 Calling FoFJK, ICntrl=    100127 FMM=F ISym2X=1 I1Cent= 0 IOpClX= 0 NMat=1 NMatS=1 NMatT=0.
 Full mass-weighted force constant matrix:
 Low frequencies ---   -7.2300   -4.1195   -4.0996   -0.0027    0.0281    0.0694
 Low frequencies ---  500.9764  500.9764  692.9175
 Diagonal vibrational polarizability:
        7.4180258       7.4177709       2.9698904
 Harmonic frequencies (cm**-1), IR intensities (KM/Mole), Raman scattering
 activities (A**4/AMU), depolarization ratios for plane and unpolarized
 incident light, reduced masses (AMU), force constants (mDyne/A),
 and normal coordinates:
                      1                      2                      3
                      E                      E                     A1
 Frequencies --    500.9764               500.9764               692.9175
 Red. masses --     13.8161                13.8161                13.6407
 Frc consts  --      2.0430                 2.0430                 3.8588
 IR Inten    --      2.0233                 2.0234                13.1942
  Atom  AN      X      Y      Z        X      Y      Z        X      Y      Z
     1   6    -0.00   0.25   0.00    -0.25  -0.00  -0.00    -0.00  -0.00  -0.44
     2   1    -0.00   0.51   0.00    -0.51  -0.00  -0.00    -0.00  -0.00  -0.47
     3   9     0.00   0.41   0.06     0.53  -0.00  -0.00     0.00   0.43   0.10
     4   9    -0.41  -0.30  -0.03    -0.17   0.41  -0.05     0.37  -0.21   0.10
     5   9     0.41  -0.30  -0.03    -0.17  -0.41   0.05    -0.37  -0.21   0.10
                      4                      5                      6
                     ?A                     ?A                     ?A
 Frequencies --   1132.4016              1134.4023              1134.4115
 Red. masses --      8.4537                 6.0583                 6.0579
 Frc consts  --      6.3870                 4.5934                 4.5932
 IR Inten    --    102.1297               315.2621               315.2528
  Atom  AN      X      Y      Z        X      Y      Z        X      Y      Z
     1   6    -0.00   0.00   0.64     0.54  -0.00   0.00     0.00   0.54  -0.00
     2   1    -0.00   0.00   0.65     0.78  -0.00   0.00     0.00   0.78  -0.00
     3   9     0.00   0.19  -0.15    -0.03   0.00  -0.00    -0.00  -0.23   0.12
     4   9     0.16  -0.09  -0.15    -0.18   0.09   0.10     0.09  -0.08  -0.06
     5   9    -0.16  -0.09  -0.15    -0.18  -0.09  -0.10    -0.09  -0.08  -0.06
                      7                      8                      9
                      E                      E                     A1
 Frequencies --   1389.6371              1389.6410              3123.3996
 Red. masses --      1.2043                 1.2043                 1.0895
 Frc consts  --      1.3702                 1.3702                 6.2625
 IR Inten    --     43.6469                43.6499                31.5646
  Atom  AN      X      Y      Z        X      Y      Z        X      Y      Z
     1   6    -0.13   0.00  -0.00    -0.00  -0.13   0.00    -0.00  -0.00  -0.09
     2   1     0.99  -0.00  -0.00     0.00   0.99   0.00     0.00   0.00   1.00
     3   9     0.01  -0.00  -0.00     0.00   0.00   0.02     0.00   0.00   0.00
     4   9     0.01   0.00   0.02     0.00   0.01  -0.01     0.00  -0.00   0.00
     5   9     0.01  -0.00  -0.02    -0.00   0.01  -0.01    -0.00  -0.00   0.00

 -------------------
 - Thermochemistry -
 -------------------
 Temperature   298.150 Kelvin.  Pressure   1.00000 Atm.
 Atom     1 has atomic number  6 and mass  12.00000
 Atom     2 has atomic number  1 and mass   1.00783
 Atom     3 has atomic number  9 and mass  18.99840
 Atom     4 has atomic number  9 and mass  18.99840
 Atom     5 has atomic number  9 and mass  18.99840
 Molecular mass:    70.00303 amu.
 Principal axes and moments of inertia in atomic units:
                           1         2         3
     Eigenvalues --   176.03822 176.03822 321.14342
           X            0.75926   0.65079   0.00000
           Y           -0.65079   0.75926   0.00000
           Z           -0.00000  -0.00000   1.00000
 This molecule is an oblate symmetric top.
 Rotational symmetry number  3.
 Rotational temperatures (Kelvin)      0.49202     0.49202     0.26970
 Rotational constants (GHZ):          10.25199    10.25199     5.61974
 Zero-point vibrational energy      65787.2 (Joules/Mol)
                                   15.72352 (Kcal/Mol)
 Warning -- explicit consideration of   2 degrees of freedom as
           vibrations may cause significant error
 Vibrational temperatures:    720.79   720.79   996.95  1629.27  1632.15
          (Kelvin)           1632.17  1999.38  1999.38  4493.88
 
 Zero-point correction=                           0.025057 (Hartree/Particle)
 Thermal correction to Energy=                    0.028533
 Thermal correction to Enthalpy=                  0.029477
 Thermal correction to Gibbs Free Energy=        -0.000034
 Sum of electronic and zero-point Energies=           -338.365716
 Sum of electronic and thermal Energies=              -338.362240
 Sum of electronic and thermal Enthalpies=            -338.361296
 Sum of electronic and thermal Free Energies=         -338.390807
 
                     E (Thermal)             CV                S
                      KCal/Mol        Cal/Mol-Kelvin    Cal/Mol-Kelvin
 Total                   17.905             10.277             62.111
 Electronic               0.000              0.000              0.000
 Translational            0.889              2.981             38.655
 Rotational               0.889              2.981             21.630
 Vibrational             16.127              4.315              1.826
 Vibration     1          0.856              1.248              0.656
 Vibration     2          0.856              1.248              0.656
                       Q            Log10(Q)             Ln(Q)
 Total Bot       0.103669D+01          0.015649          0.036034
 Total V=0       0.347593D+12         11.541071         26.574299
 Vib (Bot)       0.378303D-11        -11.422161        -26.300497
 Vib (Bot)    1  0.327781D+00         -0.484417         -1.115411
 Vib (Bot)    2  0.327781D+00         -0.484417         -1.115411
 Vib (V=0)       0.126841D+01          0.103261          0.237768
 Vib (V=0)    1  0.109786D+01          0.040548          0.093366
 Vib (V=0)    2  0.109786D+01          0.040548          0.093366
 Electronic      0.100000D+01          0.000000          0.000000
 Translational   0.230213D+08          7.362129         16.951929
 Rotational      0.119037D+05          4.075681          9.384602
 ***** Axes restored to original set *****
 -------------------------------------------------------------------
 Center     Atomic                   Forces (Hartrees/Bohr)
 Number     Number              X              Y              Z
 -------------------------------------------------------------------
      1        6          -0.000000000    0.000000000    0.000421865
      2        1          -0.000000000   -0.000000000   -0.000244526
      3        9           0.000059887    0.000000000   -0.000059113
      4        9          -0.000029944   -0.000051864   -0.000059113
      5        9          -0.000029944    0.000051864   -0.000059113
 -------------------------------------------------------------------
 Cartesian Forces:  Max     0.000421865 RMS     0.000131404
 FormGI is forming the generalized inverse of G from B-inverse, IUseBI=4.

 GradGradGradGradGradGradGradGradGradGradGradGradGradGradGradGradGradGrad
 Berny optimization.
 Internal  Forces:  Max     0.000244526 RMS     0.000076684
 Search for a local minimum.
 Step number   1 out of a maximum of    2
 All quantities printed in internal units (Hartrees-Bohrs-Radians)
 Second derivative matrix not updated -- analytic derivatives used.
 The second derivative matrix:
                          R1        R2        R3        R4        A1
           R1           0.34441
           R2           0.01330   0.39187
           R3           0.01330   0.05771   0.39187
           R4           0.01330   0.05771   0.05771   0.39187
           A1           0.00111   0.00663  -0.00465  -0.01050   0.03023
           A2           0.00173  -0.00271   0.01219  -0.02275  -0.01110
           A3           0.00335  -0.01923  -0.02106   0.01459  -0.01173
           A4          -0.00054   0.01276   0.01397  -0.02257  -0.01333
           A5          -0.00276   0.02503  -0.02139   0.01752  -0.03015
           A6          -0.00310  -0.02194   0.02140   0.02436   0.03582
           D1          -0.00209  -0.01462  -0.01069   0.04134  -0.02191
           D2           0.00167   0.01227  -0.03233   0.00721   0.01081
           D3          -0.00222   0.02917  -0.01569   0.00352  -0.00193
           D4          -0.00389   0.01690   0.01664  -0.00369  -0.01274
                          A2        A3        A4        A5        A6
           A2           0.05959
           A3          -0.02103   0.11709
           A4           0.00342   0.03464   0.08388
           A5           0.03217  -0.06701  -0.04775   0.17035
           A6          -0.06400  -0.05488  -0.06172  -0.05537   0.20303
           D1          -0.02522   0.00533  -0.03914   0.04776   0.03463
           D2          -0.00613   0.01498  -0.02551   0.03014  -0.02497
           D3          -0.01968  -0.01124   0.01378   0.03693  -0.01673
           D4          -0.01355  -0.02622   0.03929   0.00679   0.00824
                          D1        D2        D3        D4
           D1           0.06748
           D2           0.00672   0.04176
           D3           0.00571   0.01424   0.04183
           D4          -0.00100  -0.02752   0.02760   0.05511
 ITU=  0
     Eigenvalues ---    0.05800   0.10294   0.12609   0.25031   0.26648
     Eigenvalues ---    0.34227   0.36219   0.36806   0.51402
 Angle between quadratic step and forces=  22.86 degrees.
 Linear search not attempted -- first point.
 Iteration  1 RMS(Cart)=  0.00014317 RMS(Int)=  0.00000003
 Iteration  2 RMS(Cart)=  0.00000002 RMS(Int)=  0.00000002
 ClnCor:  largest displacement from symmetrization is 6.24D-09 for atom     1.
 Variable       Old X    -DE/DX   Delta X   Delta X   Delta X     New X
                                 (Linear)    (Quad)   (Total)
    R1        2.05800  -0.00024   0.00000  -0.00074  -0.00074   2.05726
    R2        2.53295   0.00008   0.00000   0.00019   0.00019   2.53314
    R3        2.53295   0.00008   0.00000   0.00019   0.00019   2.53314
    R4        2.53295   0.00008   0.00000   0.00019   0.00019   2.53314
    A1        1.92726   0.00001   0.00000   0.00014   0.00014   1.92740
    A2        1.92726   0.00002   0.00000   0.00014   0.00014   1.92740
    A3        1.92726   0.00003   0.00000   0.00014   0.00014   1.92740
    A4        1.89372  -0.00000   0.00000  -0.00015  -0.00015   1.89357
    A5        1.89372  -0.00002   0.00000  -0.00015  -0.00015   1.89357
    A6        1.89372  -0.00003   0.00000  -0.00015  -0.00015   1.89357
    D1       -2.11445  -0.00002   0.00000  -0.00017  -0.00017  -2.11462
    D2        2.11445   0.00002   0.00000   0.00017   0.00017   2.11462
    D3       -2.11445  -0.00002   0.00000  -0.00017  -0.00017  -2.11462
    D4        2.05428  -0.00003   0.00000  -0.00034  -0.00034   2.05394
         Item               Value     Threshold  Converged?
 Maximum Force            0.000245     0.000450     YES
 RMS     Force            0.000077     0.000300     YES
 Maximum Displacement     0.000393     0.001800     YES
 RMS     Displacement     0.000143     0.001200     YES
 Predicted change in Energy=-1.318881D-07
 Optimization completed.
    -- Stationary point found.
                           ----------------------------
                           !   Optimized Parameters   !
                           ! (Angstroms and Degrees)  !
 --------------------------                            --------------------------
 ! Name  Definition              Value          Derivative Info.                !
 --------------------------------------------------------------------------------
 ! R1    R(1,2)                  1.089          -DE/DX =   -0.0002              !
 ! R2    R(1,3)                  1.3404         -DE/DX =    0.0001              !
 ! R3    R(1,4)                  1.3404         -DE/DX =    0.0001              !
 ! R4    R(1,5)                  1.3404         -DE/DX =    0.0001              !
 ! A1    A(2,1,3)              110.4236         -DE/DX =    0.0                 !
 ! A2    A(2,1,4)              110.4236         -DE/DX =    0.0                 !
 ! A3    A(2,1,5)              110.4236         -DE/DX =    0.0                 !
 ! A4    A(3,1,4)              108.5023         -DE/DX =    0.0                 !
 ! A5    A(3,1,5)              108.5023         -DE/DX =    0.0                 !
 ! A6    A(4,1,5)              108.5023         -DE/DX =    0.0                 !
 ! D1    D(2,1,4,3)           -121.1493         -DE/DX =    0.0                 !
 ! D2    D(2,1,5,3)            121.1493         -DE/DX =    0.0                 !
 ! D3    D(2,1,5,4)           -121.1493         -DE/DX =    0.0                 !
 ! D4    D(3,1,5,4)            117.7014         -DE/DX =    0.0                 !
 --------------------------------------------------------------------------------
 GradGradGradGradGradGradGradGradGradGradGradGradGradGradGradGradGradGrad


 ----------------------------------------------------------------------

 Electric dipole moment (input orientation):
 (Debye = 10**-18 statcoulomb cm , SI units = C m)
                  (au)            (Debye)         (10**-30 SI)
   Tot        0.653043D+00      0.165987D+01      0.553673D+01
   x          0.000000D+00      0.000000D+00      0.000000D+00
   y          0.000000D+00      0.000000D+00      0.000000D+00
   z          0.653043D+00      0.165987D+01      0.553673D+01

 Dipole polarizability, Alpha (input orientation).
 (esu units = cm**3 , SI units = C**2 m**2 J**-1)
 Alpha(0;0):
               (au)            (10**-24 esu)      (10**-40 SI)
   iso        0.163712D+02      0.242596D+01      0.269924D+01
   aniso      0.145124D+01      0.215051D+00      0.239277D+00
   xx         0.168550D+02      0.249766D+01      0.277902D+01
   yx         0.000000D+00      0.000000D+00      0.000000D+00
   yy         0.168548D+02      0.249763D+01      0.277899D+01
   zx         0.100341D-03      0.148689D-04      0.165439D-04
   zy         0.000000D+00      0.000000D+00      0.000000D+00
   zz         0.154037D+02      0.228259D+01      0.253973D+01

 ----------------------------------------------------------------------

 Dipole orientation:
     6         -0.00000000          0.00000000          0.01827275
     1          0.00000000          0.00000000          2.07627641
     9          2.37372462         -0.00000000         -0.86561971
     9         -1.18686231         -2.05570583         -0.86561971
     9         -1.18686231          2.05570583         -0.86561971

 Electric dipole moment (dipole orientation):
 (Debye = 10**-18 statcoulomb cm , SI units = C m)
                  (au)            (Debye)         (10**-30 SI)
   Tot        0.653043D+00      0.165987D+01      0.553673D+01
   x          0.000000D+00      0.000000D+00      0.000000D+00
   y          0.000000D+00      0.000000D+00      0.000000D+00
   z          0.653043D+00      0.165987D+01      0.553673D+01

 Dipole polarizability, Alpha (dipole orientation).
 (esu units = cm**3 , SI units = C**2 m**2 J**-1)
 Alpha(0;0):
               (au)            (10**-24 esu)      (10**-40 SI)
   iso        0.163712D+02      0.242596D+01      0.269924D+01
   aniso      0.145124D+01      0.215051D+00      0.239277D+00
   xx         0.168550D+02      0.249766D+01      0.277902D+01
   yx         0.000000D+00      0.000000D+00      0.000000D+00
   yy         0.168548D+02      0.249763D+01      0.277899D+01
   zx         0.100341D-03      0.148689D-04      0.165439D-04
   zy         0.000000D+00      0.000000D+00      0.000000D+00
   zz         0.154037D+02      0.228259D+01      0.253973D+01

 ----------------------------------------------------------------------
 1\1\GINC-GAMBA\Freq\RB3LYP\Gen\C1H1F3\IRIKURA\02-Feb-2022\0\\#N Geom=A
 llCheck Guess=TCheck SCRF=Check GenChk RB3LYP/ChkBas Freq\\CHF3, B3LYP
 /pcseg-2\\0,1\C,0.,0.,0.0096695233\H,0.,0.,1.0987181611\F,1.2561209758
 ,0.,-0.4580662213\F,-0.6280604879,-1.0878326753,-0.4580662213\F,-0.628
 0604879,1.0878326753,-0.4580662213\\Version=ES64L-G16RevB.01\State=1-A
 1\HF=-338.390773\RMSD=7.394e-10\RMSF=1.314e-04\ZeroPoint=0.025057\Ther
 mal=0.0285329\Dipole=0.,0.,0.6530432\DipoleDeriv=1.8635317,0.,0.000044
 6,0.,1.863548,0.,0.0000369,0.,1.1952907,0.0050594,0.,0.000002,0.,0.005
 0551,0.,-0.0000074,0.,-0.0846817,-0.9374329,0.,0.1344905,0.,-0.3082621
 ,0.,0.283371,0.,-0.37019,-0.465567,-0.2724476,-0.0672569,-0.2724569,-0
 .7801553,-0.1164906,-0.1416929,-0.2454102,-0.3701997,-0.465567,0.27244
 76,-0.0672569,0.2724569,-0.7801553,0.1164906,-0.1416929,0.2454102,-0.3
 701997\Polar=16.8550124,0.,16.8548469,0.0001003,0.,15.4036931\Quadrupo
 le=-0.9283366,-0.9283366,1.8566731,0.,0.,0.\PG=C03V [C3(C1H1),3SGV(F1)
 ]\NImag=0\\0.48612835,0.,0.48611495,-0.00000416,0.,0.73455357,-0.04982
 488,0.,-0.00000034,0.06570976,0.,-0.04982401,0.,0.,0.06570970,-0.00000
 034,0.,-0.31969642,0.00000031,0.,0.34441057,-0.21805777,0.,0.09377195,
 -0.02041006,0.,0.01112152,0.35298014,0.,-0.07281175,0.,0.,0.00981989,0
 .,0.,0.07625004,0.07963290,0.,-0.13828690,0.04185429,0.,-0.00823772,-0
 .10597432,0.,0.10315557,-0.10912305,-0.06289167,-0.04688485,0.00226249
 ,-0.01309004,-0.00556075,-0.05725652,-0.04787178,-0.00775603,0.1454325
 7,-0.06289216,-0.18174293,-0.08120718,-0.01308988,-0.01285268,-0.00963
 151,-0.03981813,-0.00662873,0.00385333,0.11982765,0.28379761,-0.039815
 33,-0.06896212,-0.13828601,-0.02092714,-0.03624695,-0.00823797,0.00054
 093,0.00864358,0.02168453,0.05298716,0.09177645,0.10315557,-0.10912305
 ,0.06289167,-0.04688485,0.00226249,0.01309004,-0.00556075,-0.05725652,
 0.04787178,-0.00775603,0.01868517,-0.00402682,0.00721510,0.14543257,0.
 06289216,-0.18174293,0.08120718,0.01308988,-0.01285268,0.00963151,0.03
 981813,-0.00662873,-0.00385333,0.00402682,-0.08257042,0.00479026,-0.11
 982765,0.28379761,-0.03981533,0.06896212,-0.13828601,-0.02092714,0.036
 24695,-0.00823797,0.00054093,-0.00864358,0.02168453,0.00721510,-0.0047
 9026,0.02168453,0.05298716,-0.09177645,0.10315557\\0.,0.,-0.00042187,0
 .,0.,0.00024453,-0.00005989,0.,0.00005911,0.00002994,0.00005186,0.0000
 5911,0.00002994,-0.00005186,0.00005911\\\@


 Everything starts as somebody's daydream.
                           -- Larry Niven
 Job cpu time:       0 days  0 hours  1 minutes 36.9 seconds.
 Elapsed time:       0 days  0 hours  1 minutes 36.7 seconds.
 File lengths (MBytes):  RWF=     15 Int=      0 D2E=      0 Chk=      3 Scr=      1
 Normal termination of Gaussian 16 at Wed Feb  2 18:08:28 2022.
