 Entering Gaussian System, Link 0=g16
 AtFile(1): pcseg2.gbs
            -H     0
            S   4   1.00
                  0.754732D+02           0.427821D-02
                  0.113575D+02           0.328672D-01
                  0.260081D+01           0.159578D+00
                  0.735503D+00           0.500000D+00
            S   1   1.00
                  0.231761D+00           1.0000000
            S   1   1.00
                  0.741675D-01           1.0000000
            P   1   1.00
                  0.160000D+01           1.0000000
            P   1   1.00
                  0.450000D+00           1.0000000
            D   1   1.00
                  0.125000D+01           1.0000000
            ****
            -C     0
            S   7   1.00
                  0.731999D+04           0.695369D-03
                  0.109818D+04           0.537138D-02
                  0.250014D+03           0.274734D-01
                  0.707586D+02           0.105078D+00
                  0.228595D+02           0.291262D+00
                  0.803936D+01           0.500000D+00
                  0.289309D+01           0.362224D+00
            S   2   1.00
                  0.521640D+01          -0.957844D-01
                  0.556124D+00           0.500000D+00
            S   1   1.00
                  0.228813D+00           1.0000000
            S   1   1.00
                  0.936338D-01           1.0000000
            P   4   1.00
                  0.339855D+02           0.818395D-02
                  0.772957D+01           0.586921D-01
                  0.224954D+01           0.222514D+00
                  0.767681D+00           0.500000D+00
            P   1   1.00
                  0.263283D+00           1.0000000
            P   1   1.00
                  0.848744D-01           1.0000000
            D   1   1.00
                  0.140000D+01           1.0000000
            D   1   1.00
                  0.450000D+00           1.0000000
            F   1   1.00
                  0.950000D+00           1.0000000
            ****
            -O     0
            S   7   1.00
                  0.135887D+05           0.665492D-03
                  0.203847D+04           0.514222D-02
                  0.464041D+03           0.263472D-01
                  0.131339D+03           0.101500D+00
                  0.425340D+02           0.285877D+00
                  0.150429D+02           0.500000D+00
                  0.546616D+01           0.368211D+00
            S   2   1.00
                  0.100915D+02          -0.100084D+00
                  0.110429D+01           0.500000D+00
            S   1   1.00
                  0.448082D+00           1.0000000
            S   1   1.00
                  0.175325D+00           1.0000000
            P   4   1.00
                  0.608220D+02           0.908253D-02
                  0.140332D+02           0.645878D-01
                  0.418244D+01           0.241502D+00
                  0.142490D+01           0.500000D+00
            P   1   1.00
                  0.478741D+00           1.0000000
            P   1   1.00
                  0.146257D+00           1.0000000
            D   1   1.00
                  0.220000D+01           1.0000000
            D   1   1.00
                  0.650000D+00           1.0000000
            F   1   1.00
                  0.110000D+01           1.0000000
            ****
            -N     0
            S   7   1.00
                  0.101643D+05           0.682757D-03
                  0.152481D+04           0.527488D-02
                  0.347119D+03           0.270037D-01
                  0.982389D+02           0.103673D+00
                  0.317799D+02           0.289575D+00
                  0.112240D+02           0.500000D+00
                  0.406611D+01           0.364621D+00
            S   2   1.00
                  0.747898D+01          -0.975681D-01
                  0.805040D+00           0.500000D+00
            S   1   1.00
                  0.324626D+00           1.0000000
            S   1   1.00
                  0.128132D+00           1.0000000
            P   4   1.00
                  0.482704D+02           0.829547D-02
                  0.110815D+02           0.596223D-01
                  0.326643D+01           0.227889D+00
                  0.111680D+01           0.500000D+00
            P   1   1.00
                  0.382049D+00           1.0000000
            P   1   1.00
                  0.121222D+00           1.0000000
            D   1   1.00
                  0.180000D+01           1.0000000
            D   1   1.00
                  0.550000D+00           1.0000000
            F   1   1.00
                  0.102000D+01           1.0000000
            ****
            -F     0
            S   7   1.00
                  0.174507D+05           0.655972D-03
                  0.261768D+04           0.506944D-02
                  0.595857D+03           0.259899D-01
                  0.168651D+03           0.100353D+00
                  0.546654D+02           0.284095D+00
                  0.193717D+02           0.500000D+00
                  0.706202D+01           0.370721D+00
            S   2   1.00
                  0.131197D+02          -0.101997D+00
                  0.145046D+01           0.500000D+00
            S   1   1.00
                  0.588255D+00           1.0000000
            S   1   1.00
                  0.227960D+00           1.0000000
            P   4   1.00
                  0.779407D+02           0.931135D-02
                  0.180425D+02           0.663964D-01
                  0.542342D+01           0.246386D+00
                  0.184876D+01           0.500000D+00
            P   1   1.00
                  0.617455D+00           1.0000000
            P   1   1.00
                  0.185496D+00           1.0000000
            D   1   1.00
                  0.280000D+01           1.0000000
            D   1   1.00
                  0.800000D+00           1.0000000
            F   1   1.00
                  0.120000D+01           1.0000000
            ****
            -Cl     0
            S   8   1.00
                  0.154272D+06           0.222473D-03
                  0.231232D+05           0.172590D-02
                  0.526257D+04           0.899286D-02
                  0.148995D+04           0.367724D-01
                  0.485417D+03           0.121446D+00
                  0.174634D+03           0.304148D+00
                  0.672393D+02           0.500000D+00
                  0.265780D+02           0.360252D+00
            S   3   1.00
                  0.131826D+03          -0.531330D-01
                  0.400703D+02          -0.233346D+00
                  0.789448D+01           0.500000D+00
            S   2   1.00
                  0.427711D+01           0.500000D+00
                  0.196233D+01           0.370517D+00
            S   1   1.00
                  0.520793D+00           1.0000000
            S   1   1.00
                  0.181633D+00           1.0000000
            P   7   1.00
                  0.124440D+04           0.988206D-03
                  0.295109D+03           0.829674D-02
                  0.947224D+02           0.430906D-01
                  0.352588D+02           0.148443D+00
                  0.144211D+02           0.344744D+00
                  0.610371D+01           0.500000D+00
                  0.258886D+01           0.348278D+00
            P   2   1.00
                  0.109447D+02          -0.196768D-01
                  0.104413D+01           0.500000D+00
            P   1   1.00
                  0.376184D+00           1.0000000
            P   1   1.00
                  0.120613D+00           1.0000000
            D   1   1.00
                  0.231000D+01           1.0000000
            D   1   1.00
                  0.520000D+00           1.0000000
            F   1   1.00
                  0.720000D+00           1.0000000
            ****
            -S     0
            S   8   1.00
                  0.134700D+06           0.226231D-03
                  0.201904D+05           0.175488D-02
                  0.459528D+04           0.914190D-02
                  0.130109D+04           0.373551D-01
                  0.423902D+03           0.123121D+00
                  0.152485D+03           0.306801D+00
                  0.586925D+02           0.500000D+00
                  0.231461D+02           0.354358D+00
            S   3   1.00
                  0.116327D+03          -0.491772D-01
                  0.352841D+02          -0.215962D+00
                  0.677831D+01           0.500000D+00
            S   2   1.00
                  0.360404D+01           0.500000D+00
                  0.164871D+01           0.366278D+00
            S   1   1.00
                  0.421821D+00           1.0000000
            S   1   1.00
                  0.147554D+00           1.0000000
            P   7   1.00
                  0.104863D+04           0.105273D-02
                  0.248717D+03           0.879338D-02
                  0.797887D+02           0.453358D-01
                  0.296023D+02           0.154476D+00
                  0.120627D+02           0.352366D+00
                  0.507628D+01           0.500000D+00
                  0.213375D+01           0.346429D+00
            P   2   1.00
                  0.928958D+01          -0.185932D-01
                  0.837819D+00           0.500000D+00
            P   1   1.00
                  0.301495D+00           1.0000000
            P   1   1.00
                  0.974740D-01           1.0000000
            D   1   1.00
                  0.210000D+01           1.0000000
            D   1   1.00
                  0.480000D+00           1.0000000
            F   1   1.00
                  0.660000D+00           1.0000000
            ****
            -Br     0
            S    10   1.00
                  0.233625D+07           0.532336D-04
                  0.349961D+06           0.413715D-03
                  0.796444D+05           0.217123D-02
                  0.225555D+05           0.910109D-02
                  0.735546D+04           0.323789D-01
                  0.265352D+04           0.988755D-01
                  0.103517D+04           0.248138D+00
                  0.422205D+03           0.474328D+00
                  0.180035D+03           0.500000D+00
                  0.793308D+02           0.187769D+00
            S    4   1.00
                  0.620834D+03          -0.226511D-01
                  0.190829D+03          -0.109497D+00
                  0.312505D+02           0.500000D+00
                  0.135270D+02           0.492812D+00
            S    2   1.00
                  0.216097D+02          -0.165418D+00
                  0.372566D+01           0.500000D+00
            S    1   1.00
                  0.169770D+01           1.0000000
            S    1   1.00
                  0.489332D+00           1.0000000
            S    1   1.00
                  0.175712D+00           1.0000000
            P    8   1.00
                  0.960829D+04           0.478974D-03
                  0.227618D+04           0.417853D-02
                  0.736723D+03           0.229315D-01
                  0.281579D+03           0.892653D-01
                  0.118395D+03           0.255288D+00
                  0.527481D+02           0.479074D+00
                  0.245098D+02           0.500000D+00
                  0.112009D+02           0.200944D+00
            P    4   1.00
                  0.587849D+02          -0.189674D-01
                  0.918962D+01           0.264104D+00
                  0.413895D+01           0.500000D+00
                  0.184225D+01           0.319316D+00
            P    1   1.00
                  0.713862D+00           1.0000000
            P    1   1.00
                  0.274232D+00           1.0000000
            P    1   1.00
                  0.944411D-01           1.0000000
            D    7   1.00
                  0.398470D+03           0.204066D-02
                  0.118967D+03           0.175171D-01
                  0.450197D+02           0.829708D-01
                  0.190320D+02           0.236284D+00
                  0.855686D+01           0.428468D+00
                  0.382950D+01           0.500000D+00
                  0.166291D+01           0.349360D+00
            D    1   1.00
                  0.672953D+00           1.0000000
            D    1   1.00
                  0.252000D+00           1.0000000
            F    1   1.00
                  0.530000D+00           1.0000000
            ****
            -Si     0
            S    8   1.00
                  0.996133D+05           0.235546D-03
                  0.149311D+05           0.182707D-02
                  0.339820D+04           0.951425D-02
                  0.962140D+03           0.388172D-01
                  0.313430D+03           0.127328D+00
                  0.112683D+03           0.313522D+00
                  0.433372D+02           0.500000D+00
                  0.170029D+02           0.340347D+00
            S    3   1.00
                  0.884208D+02          -0.404451D-01
                  0.266756D+02          -0.178059D+00
                  0.479640D+01           0.500000D+00
            S    2   1.00
                  0.239385D+01           0.500000D+00
                  0.108333D+01           0.338016D+00
            S    1   1.00
                  0.252420D+00           1.0000000
            S    1   1.00
                  0.891210D-01           1.0000000
            P    7   1.00
                  0.709901D+03           0.123028D-02
                  0.168426D+03           0.101366D-01
                  0.539946D+02           0.511840D-01
                  0.198646D+02           0.169967D+00
                  0.801369D+01           0.370717D+00
                  0.331870D+01           0.500000D+00
                  0.136112D+01           0.344128D+00
            P    2   1.00
                  0.622158D+01          -0.166609D-01
                  0.503049D+00           0.500000D+00
            P    1   1.00
                  0.179848D+00           1.0000000
            P    1   1.00
                  0.591912D-01           1.0000000
            D    1   1.00
                  0.168000D+01           1.0000000
            D    1   1.00
                  0.380000D+00           1.0000000
            F    1   1.00
                  0.540000D+00           1.0000000
            ****
            -P     0
            S    8   1.00
                  0.116416D+06           0.230715D-03
                  0.174500D+05           0.178960D-02
                  0.397149D+04           0.932116D-02
                  0.112447D+04           0.380591D-01
                  0.366347D+03           0.125148D+00
                  0.131757D+03           0.310022D+00
                  0.506988D+02           0.500000D+00
                  0.199436D+02           0.347528D+00
            S    3   1.00
                  0.101878D+03          -0.446755D-01
                  0.308249D+02          -0.196376D+00
                  0.573688D+01           0.500000D+00
            S    2   1.00
                  0.296868D+01           0.500000D+00
                  0.135315D+01           0.355098D+00
            S    1   1.00
                  0.332196D+00           1.0000000
            S    1   1.00
                  0.116229D+00           1.0000000
            P    7   1.00
                  0.873928D+03           0.112375D-02
                  0.207298D+03           0.933330D-02
                  0.664628D+02           0.477213D-01
                  0.245665D+02           0.160733D+00
                  0.996820D+01           0.359760D+00
                  0.416536D+01           0.500000D+00
                  0.173022D+01           0.346593D+00
            P    2   1.00
                  0.772530D+01          -0.175718D-01
                  0.657252D+00           0.500000D+00
            P    1   1.00
                  0.239903D+00           1.0000000
            P    1   1.00
                  0.800988D-01           1.0000000
            D    1   1.00
                  0.189000D+01           1.0000000
            D    1   1.00
                  0.430000D+00           1.0000000
            F    1   1.00
                  0.600000D+00           1.0000000
            ****
            
 Initial command:
 /usr/local/apps/g16_b01_avx/g16/l1.exe "/wrk/irikura/Gau-22041.inp" -scrdir="/wrk/irikura/"
 Entering Link 1 = /usr/local/apps/g16_b01_avx/g16/l1.exe PID=     22043.
  
 Copyright (c) 1988-2017, Gaussian, Inc.  All Rights Reserved.
  
 This is part of the Gaussian(R) 16 program.  It is based on
 the Gaussian(R) 09 system (copyright 2009, Gaussian, Inc.),
 the Gaussian(R) 03 system (copyright 2003, Gaussian, Inc.),
 the Gaussian(R) 98 system (copyright 1998, Gaussian, Inc.),
 the Gaussian(R) 94 system (copyright 1995, Gaussian, Inc.),
 the Gaussian 92(TM) system (copyright 1992, Gaussian, Inc.),
 the Gaussian 90(TM) system (copyright 1990, Gaussian, Inc.),
 the Gaussian 88(TM) system (copyright 1988, Gaussian, Inc.),
 the Gaussian 86(TM) system (copyright 1986, Carnegie Mellon
 University), and the Gaussian 82(TM) system (copyright 1983,
 Carnegie Mellon University). Gaussian is a federally registered
 trademark of Gaussian, Inc.
  
 This software contains proprietary and confidential information,
 including trade secrets, belonging to Gaussian, Inc.
  
 This software is provided under written license and may be
 used, copied, transmitted, or stored only in accord with that
 written license.
  
 The following legend is applicable only to US Government
 contracts under FAR:
  
                    RESTRICTED RIGHTS LEGEND
  
 Use, reproduction and disclosure by the US Government is
 subject to restrictions as set forth in subparagraphs (a)
 and (c) of the Commercial Computer Software - Restricted
 Rights clause in FAR 52.227-19.
  
 Gaussian, Inc.
 340 Quinnipiac St., Bldg. 40, Wallingford CT 06492
  
  
 ---------------------------------------------------------------
 Warning -- This program may not be used in any manner that
 competes with the business of Gaussian, Inc. or will provide
 assistance to any competitor of Gaussian, Inc.  The licensee
 of this program is prohibited from giving any competitor of
 Gaussian, Inc. access to this program.  By using this program,
 the user acknowledges that Gaussian, Inc. is engaged in the
 business of creating and licensing software in the field of
 computational chemistry and represents and warrants to the
 licensee that it is not a competitor of Gaussian, Inc. and that
 it will not use this program in any manner prohibited above.
 ---------------------------------------------------------------
  

 Cite this work as:
 Gaussian 16, Revision B.01,
 M. J. Frisch, G. W. Trucks, H. B. Schlegel, G. E. Scuseria, 
 M. A. Robb, J. R. Cheeseman, G. Scalmani, V. Barone, 
 G. A. Petersson, H. Nakatsuji, X. Li, M. Caricato, A. V. Marenich, 
 J. Bloino, B. G. Janesko, R. Gomperts, B. Mennucci, H. P. Hratchian, 
 J. V. Ortiz, A. F. Izmaylov, J. L. Sonnenberg, D. Williams-Young, 
 F. Ding, F. Lipparini, F. Egidi, J. Goings, B. Peng, A. Petrone, 
 T. Henderson, D. Ranasinghe, V. G. Zakrzewski, J. Gao, N. Rega, 
 G. Zheng, W. Liang, M. Hada, M. Ehara, K. Toyota, R. Fukuda, 
 J. Hasegawa, M. Ishida, T. Nakajima, Y. Honda, O. Kitao, H. Nakai, 
 T. Vreven, K. Throssell, J. A. Montgomery, Jr., J. E. Peralta, 
 F. Ogliaro, M. J. Bearpark, J. J. Heyd, E. N. Brothers, K. N. Kudin, 
 V. N. Staroverov, T. A. Keith, R. Kobayashi, J. Normand, 
 K. Raghavachari, A. P. Rendell, J. C. Burant, S. S. Iyengar, 
 J. Tomasi, M. Cossi, J. M. Millam, M. Klene, C. Adamo, R. Cammi, 
 J. W. Ochterski, R. L. Martin, K. Morokuma, O. Farkas, 
 J. B. Foresman, and D. J. Fox, Gaussian, Inc., Wallingford CT, 2016.
 
 ******************************************
 Gaussian 16:  ES64L-G16RevB.01 20-Dec-2017
                17-Jun-2022 
 ******************************************
 %mem=1000mw
 %nprocs=12
 Will use up to   12 processors via shared memory.
 --------------------
 # b3lyp/gen opt freq
 --------------------
 1/18=20,19=15,26=3,38=1/1,3;
 2/9=110,12=2,17=6,18=5,40=1/2;
 3/5=7,11=2,25=1,30=1,71=1,74=-5/1,2,3;
 4//1;
 5/5=2,38=5/2;
 6/7=2,8=2,9=2,10=2,28=1/1;
 7//1,2,3,16;
 1/18=20,19=15,26=3/3(2);
 2/9=110/2;
 99//99;
 2/9=110/2;
 3/5=7,6=1,11=2,25=1,30=1,71=1,74=-5,82=7/1,2,3;
 4/5=5,16=3,69=1/1;
 5/5=2,38=5/2;
 7//1,2,3,16;
 1/18=20,19=15,26=3/3(-5);
 2/9=110/2;
 6/7=2,8=2,9=2,10=2,19=2,28=1/1;
 99/9=1/99;
 ------------------------------
 fluoromethylene, B3LYP/pcseg-2
 ------------------------------
 Symbolic Z-matrix:
 Charge =  0 Multiplicity = 1
 H                    -1.03086   0.95767   0. 
 C                     0.06872   0.72374   0. 
 F                     0.06872  -0.5889    0. 
 

 GradGradGradGradGradGradGradGradGradGradGradGradGradGradGradGradGradGrad
 Berny optimization.
 Initialization pass.
                           ----------------------------
                           !    Initial Parameters    !
                           ! (Angstroms and Degrees)  !
 --------------------------                            --------------------------
 ! Name  Definition              Value          Derivative Info.                !
 --------------------------------------------------------------------------------
 ! R1    R(1,2)                  1.1242         estimate D2E/DX2                !
 ! R2    R(2,3)                  1.3126         estimate D2E/DX2                !
 ! A1    A(1,2,3)              102.0101         estimate D2E/DX2                !
 --------------------------------------------------------------------------------
 Trust Radius=3.00D-01 FncErr=1.00D-07 GrdErr=1.00D-06 EigMax=2.50D+02 EigMin=1.00D-04
 Number of steps in this run=     20 maximum allowed number of steps=    100.
 GradGradGradGradGradGradGradGradGradGradGradGradGradGradGradGradGradGrad

                          Input orientation:                          
 ---------------------------------------------------------------------
 Center     Atomic      Atomic             Coordinates (Angstroms)
 Number     Number       Type             X           Y           Z
 ---------------------------------------------------------------------
      1          1           0       -1.030857    0.957667    0.000000
      2          6           0        0.068724    0.723741    0.000000
      3          9           0        0.068724   -0.588902    0.000000
 ---------------------------------------------------------------------
                    Distance matrix (angstroms):
                    1          2          3
     1  H    0.000000
     2  C    1.124188   0.000000
     3  F    1.897618   1.312643   0.000000
 Stoichiometry    CHF
 Framework group  CS[SG(CHF)]
 Deg. of freedom     3
 Full point group                 CS      NOp   2
 Largest Abelian subgroup         CS      NOp   2
 Largest concise Abelian subgroup C1      NOp   1
                         Standard orientation:                         
 ---------------------------------------------------------------------
 Center     Atomic      Atomic             Coordinates (Angstroms)
 Number     Number       Type             X           Y           Z
 ---------------------------------------------------------------------
      1          1           0       -1.030857    0.957667    0.000000
      2          6           0        0.068724    0.723741    0.000000
      3          9           0        0.068724   -0.588902    0.000000
 ---------------------------------------------------------------------
 Rotational constants (GHZ):         467.1138761          36.5607361          33.9068651
 General basis read from cards:  (5D, 7F)
 There are    59 symmetry adapted cartesian basis functions of A'  symmetry.
 There are    26 symmetry adapted cartesian basis functions of A"  symmetry.
 There are    50 symmetry adapted basis functions of A'  symmetry.
 There are    24 symmetry adapted basis functions of A"  symmetry.
    74 basis functions,   120 primitive gaussians,    85 cartesian basis functions
     8 alpha electrons        8 beta electrons
       nuclear repulsion energy        27.1035816930 Hartrees.
 NAtoms=    3 NActive=    3 NUniq=    3 SFac= 1.00D+00 NAtFMM=   60 NAOKFM=F Big=F
 Integral buffers will be    131072 words long.
 Raffenetti 2 integral format.
 Two-electron integral symmetry is turned on.
 One-electron integrals computed using PRISM.
 NBasis=    74 RedAO= T EigKep=  3.13D-03  NBF=    50    24
 NBsUse=    74 1.00D-06 EigRej= -1.00D+00 NBFU=    50    24
 ExpMin= 7.42D-02 ExpMax= 1.75D+04 ExpMxC= 5.96D+02 IAcc=3 IRadAn=         5 AccDes= 0.00D+00
 Harris functional with IExCor=  402 and IRadAn=       5 diagonalized for initial guess.
 HarFok:  IExCor=  402 AccDes= 0.00D+00 IRadAn=         5 IDoV= 1 UseB2=F ITyADJ=14
 ICtDFT=  3500011 ScaDFX=  1.000000  1.000000  1.000000  1.000000
 FoFCou: FMM=F IPFlag=           0 FMFlag=      100000 FMFlg1=           0
         NFxFlg=           0 DoJE=T BraDBF=F KetDBF=T FulRan=T
         wScrn=  0.000000 ICntrl=       500 IOpCl=  0 I1Cent=   200000004 NGrid=           0
         NMat0=    1 NMatS0=      1 NMatT0=    0 NMatD0=    1 NMtDS0=    0 NMtDT0=    0
 Petite list used in FoFCou.
 Initial guess orbital symmetries:
       Occupied  (A') (A') (A') (A') (A') (A") (A') (A')
       Virtual   (A") (A') (A') (A') (A") (A') (A') (A') (A') (A')
                 (A") (A") (A') (A') (A') (A") (A') (A') (A") (A")
                 (A') (A') (A') (A") (A') (A') (A") (A') (A') (A')
                 (A") (A') (A") (A') (A") (A') (A') (A') (A") (A')
                 (A') (A') (A") (A") (A") (A') (A") (A') (A') (A")
                 (A') (A') (A") (A') (A") (A') (A') (A") (A') (A')
                 (A') (A") (A') (A") (A') (A')
 The electronic state of the initial guess is 1-A'.
 Keep R1 ints in memory in symmetry-blocked form, NReq=14777634.
 Requested convergence on RMS density matrix=1.00D-08 within 128 cycles.
 Requested convergence on MAX density matrix=1.00D-06.
 Requested convergence on             energy=1.00D-06.
 No special actions if energy rises.
 Integral accuracy reduced to 1.0D-05 until final iterations.
 Initial convergence to 1.0D-05 achieved.  Increase integral accuracy.
 SCF Done:  E(RB3LYP) =  -138.467838669     A.U. after   11 cycles
            NFock= 11  Conv=0.57D-08     -V/T= 2.0028

 **********************************************************************

            Population analysis using the SCF Density.

 **********************************************************************

 Orbital symmetries:
       Occupied  (A') (A') (A') (A') (A') (A") (A') (A')
       Virtual   (A") (A') (A') (A") (A') (A') (A') (A') (A') (A')
                 (A") (A") (A') (A') (A') (A") (A') (A') (A") (A")
                 (A') (A') (A') (A") (A') (A') (A") (A') (A') (A')
                 (A") (A') (A") (A') (A") (A') (A') (A') (A") (A')
                 (A') (A') (A") (A") (A") (A') (A") (A') (A') (A")
                 (A') (A') (A") (A') (A") (A') (A') (A") (A') (A')
                 (A') (A") (A') (A") (A') (A')
 The electronic state is 1-A'.
 Alpha  occ. eigenvalues --  -24.75341 -10.31070  -1.29265  -0.69688  -0.55142
 Alpha  occ. eigenvalues --   -0.51976  -0.47811  -0.26247
 Alpha virt. eigenvalues --   -0.11668   0.02765   0.07466   0.17227   0.17558
 Alpha virt. eigenvalues --    0.22496   0.29665   0.30884   0.40210   0.46889
 Alpha virt. eigenvalues --    0.47079   0.68771   0.76952   0.83736   0.99615
 Alpha virt. eigenvalues --    1.01052   1.05628   1.13441   1.18568   1.27204
 Alpha virt. eigenvalues --    1.31054   1.37339   1.55145   1.82660   1.83428
 Alpha virt. eigenvalues --    2.04593   2.16638   2.20525   2.25362   2.36755
 Alpha virt. eigenvalues --    2.77720   2.86327   3.13592   3.19475   3.19610
 Alpha virt. eigenvalues --    3.35164   3.51874   3.55206   3.59331   3.81167
 Alpha virt. eigenvalues --    3.91860   3.98390   3.99134   4.06812   4.17962
 Alpha virt. eigenvalues --    4.17992   4.27822   4.30423   4.36521   4.39831
 Alpha virt. eigenvalues --    4.43976   4.67675   4.75907   5.10260   5.12546
 Alpha virt. eigenvalues --    5.33693   5.39182   5.46267   5.56886   5.78925
 Alpha virt. eigenvalues --    5.90573   7.49064   7.51423   7.93810   8.02292
 Alpha virt. eigenvalues --    8.11373
          Condensed to atoms (all electrons):
               1          2          3
     1  H    0.834382   0.185797  -0.041632
     2  C    0.185797   5.560904   0.121503
     3  F   -0.041632   0.121503   9.073376
 Mulliken charges:
               1
     1  H    0.021452
     2  C    0.131795
     3  F   -0.153248
 Sum of Mulliken charges =  -0.00000
 Mulliken charges with hydrogens summed into heavy atoms:
               1
     2  C    0.153248
     3  F   -0.153248
 Electronic spatial extent (au):  <R**2>=             56.0129
 Charge=             -0.0000 electrons
 Dipole moment (field-independent basis, Debye):
    X=             -1.5157    Y=             -0.1944    Z=              0.0000  Tot=              1.5281
 Quadrupole moment (field-independent basis, Debye-Ang):
   XX=            -12.0625   YY=            -12.8522   ZZ=            -10.4874
   XY=             -1.8233   XZ=              0.0000   YZ=              0.0000
 Traceless Quadrupole moment (field-independent basis, Debye-Ang):
   XX=             -0.2618   YY=             -1.0515   ZZ=              1.3133
   XY=             -1.8233   XZ=              0.0000   YZ=              0.0000
 Octapole moment (field-independent basis, Debye-Ang**2):
  XXX=             -1.8056  YYY=             -9.1187  ZZZ=              0.0000  XYY=             -2.4307
  XXY=             -3.1596  XXZ=              0.0000  XZZ=             -0.4508  YZZ=             -1.9610
  YYZ=              0.0000  XYZ=              0.0000
 Hexadecapole moment (field-independent basis, Debye-Ang**3):
 XXXX=            -18.4677 YYYY=            -47.5529 ZZZZ=             -8.9487 XXXY=             -0.4539
 XXXZ=              0.0000 YYYX=             -1.9066 YYYZ=              0.0000 ZZZX=              0.0000
 ZZZY=              0.0000 XXYY=            -11.5593 XXZZ=             -4.7021 YYZZ=             -8.8852
 XXYZ=              0.0000 YYXZ=              0.0000 ZZXY=              0.0179
 N-N= 2.710358169302D+01 E-N=-3.821220834601D+02  KE= 1.380813544053D+02
 Symmetry A'   KE= 1.322142084287D+02
 Symmetry A"   KE= 5.867145976603D+00
 Calling FoFJK, ICntrl=      2127 FMM=F ISym2X=1 I1Cent= 0 IOpClX= 0 NMat=1 NMatS=1 NMatT=0.
 ***** Axes restored to original set *****
 -------------------------------------------------------------------
 Center     Atomic                   Forces (Hartrees/Bohr)
 Number     Number              X              Y              Z
 -------------------------------------------------------------------
      1        1           0.001269796   -0.000039610   -0.000000000
      2        6          -0.001463065   -0.001591853   -0.000000000
      3        9           0.000193269    0.001631463   -0.000000000
 -------------------------------------------------------------------
 Cartesian Forces:  Max     0.001631463 RMS     0.000999307

 GradGradGradGradGradGradGradGradGradGradGradGradGradGradGradGradGradGrad
 Berny optimization.
 FormGI is forming the generalized inverse of G from B-inverse, IUseBI=4.
 Internal  Forces:  Max     0.001631428 RMS     0.001218522
 Search for a local minimum.
 Step number   1 out of a maximum of   20
 All quantities printed in internal units (Hartrees-Bohrs-Radians)
 Mixed Optimization -- RFO/linear search
 Second derivative matrix not updated -- first step.
 The second derivative matrix:
                          R1        R2        A1
           R1           0.31143
           R2           0.00000   0.63801
           A1           0.00000   0.00000   0.16000
 ITU=  0
     Eigenvalues ---    0.16000   0.31143   0.63801
 RFO step:  Lambda=-1.06262782D-05 EMin= 1.60000000D-01
 Linear search not attempted -- first point.
 Iteration  1 RMS(Cart)=  0.00229499 RMS(Int)=  0.00000330
 Iteration  2 RMS(Cart)=  0.00000434 RMS(Int)=  0.00000000
 Iteration  3 RMS(Cart)=  0.00000000 RMS(Int)=  0.00000000
 ClnCor:  largest displacement from symmetrization is 2.22D-16 for atom     2.
 Variable       Old X    -DE/DX   Delta X   Delta X   Delta X     New X
                                 (Linear)    (Quad)   (Total)
    R1        2.12441  -0.00125   0.00000  -0.00401  -0.00401   2.12039
    R2        2.48054  -0.00163   0.00000  -0.00256  -0.00256   2.47798
    A1        1.78041   0.00048   0.00000   0.00299   0.00299   1.78341
         Item               Value     Threshold  Converged?
 Maximum Force            0.001631     0.000450     NO 
 RMS     Force            0.001219     0.000300     NO 
 Maximum Displacement     0.002752     0.001800     NO 
 RMS     Displacement     0.002295     0.001200     NO 
 Predicted change in Energy=-5.313139D-06
 GradGradGradGradGradGradGradGradGradGradGradGradGradGradGradGradGradGrad

                          Input orientation:                          
 ---------------------------------------------------------------------
 Center     Atomic      Atomic             Coordinates (Angstroms)
 Number     Number       Type             X           Y           Z
 ---------------------------------------------------------------------
      1          1           0       -1.029880    0.958031    0.000000
      2          6           0        0.067267    0.722881    0.000000
      3          9           0        0.069203   -0.588407    0.000000
 ---------------------------------------------------------------------
                    Distance matrix (angstroms):
                    1          2          3
     1  H    0.000000
     2  C    1.122064   0.000000
     3  F    1.897223   1.311290   0.000000
 Stoichiometry    CHF
 Framework group  CS[SG(CHF)]
 Deg. of freedom     3
 Full point group                 CS      NOp   2
 Largest Abelian subgroup         CS      NOp   2
 Largest concise Abelian subgroup C1      NOp   1
                         Standard orientation:                         
 ---------------------------------------------------------------------
 Center     Atomic      Atomic             Coordinates (Angstroms)
 Number     Number       Type             X           Y           Z
 ---------------------------------------------------------------------
      1          1           0       -1.028249    0.959572    0.000000
      2          6           0        0.068550    0.722802    0.000000
      3          9           0        0.068550   -0.588487    0.000000
 ---------------------------------------------------------------------
 Rotational constants (GHZ):         469.7066407          36.6190630          33.9706575
 Basis read from rwf:  (5D, 7F)
 There are    59 symmetry adapted cartesian basis functions of A'  symmetry.
 There are    26 symmetry adapted cartesian basis functions of A"  symmetry.
 There are    50 symmetry adapted basis functions of A'  symmetry.
 There are    24 symmetry adapted basis functions of A"  symmetry.
    74 basis functions,   120 primitive gaussians,    85 cartesian basis functions
     8 alpha electrons        8 beta electrons
       nuclear repulsion energy        27.1319150573 Hartrees.
 NAtoms=    3 NActive=    3 NUniq=    3 SFac= 1.00D+00 NAtFMM=   60 NAOKFM=F Big=F
 Integral buffers will be    131072 words long.
 Raffenetti 2 integral format.
 Two-electron integral symmetry is turned on.
 One-electron integrals computed using PRISM.
 NBasis=    74 RedAO= T EigKep=  3.12D-03  NBF=    50    24
 NBsUse=    74 1.00D-06 EigRej= -1.00D+00 NBFU=    50    24
 Initial guess from the checkpoint file:  "/wrk/irikura/Gau-22043.chk"
 B after Tr=     0.000000   -0.000000    0.000000
         Rot=    1.000000    0.000000    0.000000    0.000286 Ang=   0.03 deg.
 Initial guess orbital symmetries:
       Occupied  (A') (A') (A') (A') (A') (A") (A') (A')
       Virtual   (A") (A') (A') (A") (A') (A') (A') (A') (A') (A')
                 (A") (A") (A') (A') (A') (A") (A') (A') (A") (A")
                 (A') (A') (A') (A") (A') (A') (A") (A') (A') (A')
                 (A") (A') (A") (A') (A") (A') (A') (A') (A") (A')
                 (A') (A') (A") (A") (A") (A') (A") (A') (A') (A")
                 (A') (A') (A") (A') (A") (A') (A') (A") (A') (A')
                 (A') (A") (A') (A") (A') (A')
 Keep R1 ints in memory in symmetry-blocked form, NReq=14777634.
 Requested convergence on RMS density matrix=1.00D-08 within 128 cycles.
 Requested convergence on MAX density matrix=1.00D-06.
 Requested convergence on             energy=1.00D-06.
 No special actions if energy rises.
 SCF Done:  E(RB3LYP) =  -138.467844884     A.U. after    7 cycles
            NFock=  7  Conv=0.39D-08     -V/T= 2.0028
 Calling FoFJK, ICntrl=      2127 FMM=F ISym2X=1 I1Cent= 0 IOpClX= 0 NMat=1 NMatS=1 NMatT=0.
 ***** Axes restored to original set *****
 -------------------------------------------------------------------
 Center     Atomic                   Forces (Hartrees/Bohr)
 Number     Number              X              Y              Z
 -------------------------------------------------------------------
      1        1           0.000118308   -0.000119866   -0.000000000
      2        6          -0.000038322   -0.000589774   -0.000000000
      3        9          -0.000079985    0.000709640   -0.000000000
 -------------------------------------------------------------------
 Cartesian Forces:  Max     0.000709640 RMS     0.000314051

 GradGradGradGradGradGradGradGradGradGradGradGradGradGradGradGradGradGrad
 Berny optimization.
 Using GEDIIS/GDIIS optimizer.
 FormGI is forming the generalized inverse of G from B-inverse, IUseBI=4.
 Internal  Forces:  Max     0.000709727 RMS     0.000432776
 Search for a local minimum.
 Step number   2 out of a maximum of   20
 All quantities printed in internal units (Hartrees-Bohrs-Radians)
 Mixed Optimization -- En-DIIS/RFO-DIIS
 Update second derivatives using D2CorX and points    1    2
 DE= -6.22D-06 DEPred=-5.31D-06 R= 1.17D+00
 TightC=F SS=  1.41D+00  RLast= 5.62D-03 DXNew= 5.0454D-01 1.6870D-02
 Trust test= 1.17D+00 RLast= 5.62D-03 DXMaxT set to 3.00D-01
 The second derivative matrix:
                          R1        R2        A1
           R1           0.30368
           R2          -0.07618   0.48372
           A1          -0.02841   0.00313   0.18998
 ITU=  1  0
 Use linear search instead of GDIIS.
     Eigenvalues ---    0.18246   0.28279   0.51213
 RFO step:  Lambda=-1.14449164D-06 EMin= 1.82463869D-01
 Quartic linear search produced a step of  0.20210.
 Iteration  1 RMS(Cart)=  0.00151377 RMS(Int)=  0.00000048
 Iteration  2 RMS(Cart)=  0.00000040 RMS(Int)=  0.00000000
 ClnCor:  largest displacement from symmetrization is 2.05D-15 for atom     1.
 Variable       Old X    -DE/DX   Delta X   Delta X   Delta X     New X
                                 (Linear)    (Quad)   (Total)
    R1        2.12039  -0.00014  -0.00081  -0.00016  -0.00097   2.11942
    R2        2.47798  -0.00071  -0.00052  -0.00109  -0.00161   2.47637
    A1        1.78341  -0.00020   0.00061  -0.00176  -0.00115   1.78225
         Item               Value     Threshold  Converged?
 Maximum Force            0.000710     0.000450     NO 
 RMS     Force            0.000433     0.000300     NO 
 Maximum Displacement     0.001566     0.001800     YES
 RMS     Displacement     0.001514     0.001200     NO 
 Predicted change in Energy=-7.538960D-07
 GradGradGradGradGradGradGradGradGradGradGradGradGradGradGradGradGradGrad

                          Input orientation:                          
 ---------------------------------------------------------------------
 Center     Atomic      Atomic             Coordinates (Angstroms)
 Number     Number       Type             X           Y           Z
 ---------------------------------------------------------------------
      1          1           0       -1.029405    0.957225    0.000000
      2          6           0        0.067383    0.722859    0.000000
      3          9           0        0.068613   -0.587578    0.000000
 ---------------------------------------------------------------------
                    Distance matrix (angstroms):
                    1          2          3
     1  H    0.000000
     2  C    1.121550   0.000000
     3  F    1.895274   1.310437   0.000000
 Stoichiometry    CHF
 Framework group  CS[SG(CHF)]
 Deg. of freedom     3
 Full point group                 CS      NOp   2
 Largest Abelian subgroup         CS      NOp   2
 Largest concise Abelian subgroup C1      NOp   1
                         Standard orientation:                         
 ---------------------------------------------------------------------
 Center     Atomic      Atomic             Coordinates (Angstroms)
 Number     Number       Type             X           Y           Z
 ---------------------------------------------------------------------
      1          1           0       -1.028033    0.957805    0.000000
      2          6           0        0.068536    0.722409    0.000000
      3          9           0        0.068536   -0.588029    0.000000
 ---------------------------------------------------------------------
 Rotational constants (GHZ):         469.8158558          36.6736272          34.0181823
 Basis read from rwf:  (5D, 7F)
 There are    59 symmetry adapted cartesian basis functions of A'  symmetry.
 There are    26 symmetry adapted cartesian basis functions of A"  symmetry.
 There are    50 symmetry adapted basis functions of A'  symmetry.
 There are    24 symmetry adapted basis functions of A"  symmetry.
    74 basis functions,   120 primitive gaussians,    85 cartesian basis functions
     8 alpha electrons        8 beta electrons
       nuclear repulsion energy        27.1499756959 Hartrees.
 NAtoms=    3 NActive=    3 NUniq=    3 SFac= 1.00D+00 NAtFMM=   60 NAOKFM=F Big=F
 Integral buffers will be    131072 words long.
 Raffenetti 2 integral format.
 Two-electron integral symmetry is turned on.
 One-electron integrals computed using PRISM.
 NBasis=    74 RedAO= T EigKep=  3.11D-03  NBF=    50    24
 NBsUse=    74 1.00D-06 EigRej= -1.00D+00 NBFU=    50    24
 Initial guess from the checkpoint file:  "/wrk/irikura/Gau-22043.chk"
 B after Tr=    -0.000000    0.000000    0.000000
         Rot=    1.000000   -0.000000   -0.000000   -0.000104 Ang=  -0.01 deg.
 Initial guess orbital symmetries:
       Occupied  (A') (A') (A') (A') (A') (A") (A') (A')
       Virtual   (A") (A') (A') (A") (A') (A') (A') (A') (A') (A')
                 (A") (A") (A') (A') (A') (A") (A') (A') (A") (A")
                 (A') (A') (A') (A") (A') (A') (A") (A') (A') (A')
                 (A") (A') (A") (A') (A") (A') (A') (A') (A") (A')
                 (A') (A') (A") (A") (A') (A") (A") (A') (A') (A")
                 (A') (A') (A") (A') (A") (A') (A') (A") (A') (A')
                 (A') (A") (A') (A") (A') (A')
 Keep R1 ints in memory in symmetry-blocked form, NReq=14777634.
 Requested convergence on RMS density matrix=1.00D-08 within 128 cycles.
 Requested convergence on MAX density matrix=1.00D-06.
 Requested convergence on             energy=1.00D-06.
 No special actions if energy rises.
 SCF Done:  E(RB3LYP) =  -138.467845313     A.U. after    7 cycles
            NFock=  7  Conv=0.21D-08     -V/T= 2.0027
 Calling FoFJK, ICntrl=      2127 FMM=F ISym2X=1 I1Cent= 0 IOpClX= 0 NMat=1 NMatS=1 NMatT=0.
 ***** Axes restored to original set *****
 -------------------------------------------------------------------
 Center     Atomic                   Forces (Hartrees/Bohr)
 Number     Number              X              Y              Z
 -------------------------------------------------------------------
      1        1          -0.000136762    0.000173291   -0.000000000
      2        6           0.000015969   -0.000085413   -0.000000000
      3        9           0.000120793   -0.000087878   -0.000000000
 -------------------------------------------------------------------
 Cartesian Forces:  Max     0.000173291 RMS     0.000093451

 GradGradGradGradGradGradGradGradGradGradGradGradGradGradGradGradGradGrad
 Berny optimization.
 Using GEDIIS/GDIIS optimizer.
 FormGI is forming the generalized inverse of G from B-inverse, IUseBI=4.
 Internal  Forces:  Max     0.000298738 RMS     0.000204829
 Search for a local minimum.
 Step number   3 out of a maximum of   20
 All quantities printed in internal units (Hartrees-Bohrs-Radians)
 Mixed Optimization -- En-DIIS/RFO-DIIS
 Swapping is turned off.
 Update second derivatives using D2CorX and points    1    2    3
 DE= -4.28D-07 DEPred=-7.54D-07 R= 5.68D-01
 Trust test= 5.68D-01 RLast= 2.21D-03 DXMaxT set to 3.00D-01
 The second derivative matrix:
                          R1        R2        A1
           R1           0.34550
           R2          -0.04064   0.44368
           A1           0.03497   0.10601   0.25108
 ITU=  0  1  0
     Eigenvalues ---    0.18901   0.35689   0.49436
 En-DIIS/RFO-DIIS/Sim-DIIS IScMMF=       -3 using points:     3    2
 RFO step:  Lambda=-4.04537572D-07.
 DidBck=T Rises=F RFO-DIIS coefs:    0.66694    0.33306
 Iteration  1 RMS(Cart)=  0.00089554 RMS(Int)=  0.00000034
 Iteration  2 RMS(Cart)=  0.00000024 RMS(Int)=  0.00000000
 ClnCor:  largest displacement from symmetrization is 2.24D-16 for atom     3.
 Variable       Old X    -DE/DX   Delta X   Delta X   Delta X     New X
                                 (Linear)    (Quad)   (Total)
    R1        2.11942   0.00017   0.00032   0.00005   0.00037   2.11979
    R2        2.47637   0.00009   0.00054  -0.00058  -0.00004   2.47632
    A1        1.78225   0.00030   0.00038   0.00077   0.00116   1.78341
         Item               Value     Threshold  Converged?
 Maximum Force            0.000299     0.000450     YES
 RMS     Force            0.000205     0.000300     YES
 Maximum Displacement     0.001006     0.001800     YES
 RMS     Displacement     0.000895     0.001200     YES
 Predicted change in Energy=-2.022688D-07
 Optimization completed.
    -- Stationary point found.
                           ----------------------------
                           !   Optimized Parameters   !
                           ! (Angstroms and Degrees)  !
 --------------------------                            --------------------------
 ! Name  Definition              Value          Derivative Info.                !
 --------------------------------------------------------------------------------
 ! R1    R(1,2)                  1.1215         -DE/DX =    0.0002              !
 ! R2    R(2,3)                  1.3104         -DE/DX =    0.0001              !
 ! A1    A(1,2,3)              102.1156         -DE/DX =    0.0003              !
 --------------------------------------------------------------------------------
 GradGradGradGradGradGradGradGradGradGradGradGradGradGradGradGradGradGrad

                          Input orientation:                          
 ---------------------------------------------------------------------
 Center     Atomic      Atomic             Coordinates (Angstroms)
 Number     Number       Type             X           Y           Z
 ---------------------------------------------------------------------
      1          1           0       -1.029405    0.957225    0.000000
      2          6           0        0.067383    0.722859    0.000000
      3          9           0        0.068613   -0.587578    0.000000
 ---------------------------------------------------------------------
                    Distance matrix (angstroms):
                    1          2          3
     1  H    0.000000
     2  C    1.121550   0.000000
     3  F    1.895274   1.310437   0.000000
 Stoichiometry    CHF
 Framework group  CS[SG(CHF)]
 Deg. of freedom     3
 Full point group                 CS      NOp   2
 Largest Abelian subgroup         CS      NOp   2
 Largest concise Abelian subgroup C1      NOp   1
                         Standard orientation:                         
 ---------------------------------------------------------------------
 Center     Atomic      Atomic             Coordinates (Angstroms)
 Number     Number       Type             X           Y           Z
 ---------------------------------------------------------------------
      1          1           0       -1.028033    0.957805    0.000000
      2          6           0        0.068536    0.722409    0.000000
      3          9           0        0.068536   -0.588029    0.000000
 ---------------------------------------------------------------------
 Rotational constants (GHZ):         469.8158558          36.6736272          34.0181823

 **********************************************************************

            Population analysis using the SCF Density.

 **********************************************************************

 Orbital symmetries:
       Occupied  (A') (A') (A') (A') (A') (A") (A') (A')
       Virtual   (A") (A') (A') (A") (A') (A') (A') (A') (A') (A')
                 (A") (A") (A') (A') (A') (A") (A') (A') (A") (A")
                 (A') (A') (A') (A") (A') (A') (A") (A') (A') (A')
                 (A") (A') (A") (A') (A") (A') (A') (A') (A") (A')
                 (A') (A') (A") (A") (A') (A") (A") (A') (A') (A")
                 (A') (A') (A") (A') (A") (A') (A') (A") (A') (A')
                 (A') (A") (A') (A") (A') (A')
 The electronic state is 1-A'.
 Alpha  occ. eigenvalues --  -24.75380 -10.31001  -1.29380  -0.69740  -0.55228
 Alpha  occ. eigenvalues --   -0.52051  -0.47858  -0.26192
 Alpha virt. eigenvalues --   -0.11624   0.02787   0.07510   0.17228   0.17562
 Alpha virt. eigenvalues --    0.22554   0.29803   0.31000   0.40181   0.46902
 Alpha virt. eigenvalues --    0.47071   0.68823   0.76999   0.83760   0.99535
 Alpha virt. eigenvalues --    1.01109   1.05605   1.13485   1.18630   1.27229
 Alpha virt. eigenvalues --    1.31210   1.37345   1.55370   1.82694   1.83515
 Alpha virt. eigenvalues --    2.04650   2.16752   2.20782   2.25497   2.36913
 Alpha virt. eigenvalues --    2.77754   2.86401   3.13604   3.19556   3.19765
 Alpha virt. eigenvalues --    3.35500   3.52147   3.55456   3.59480   3.81160
 Alpha virt. eigenvalues --    3.91792   3.98545   3.99234   4.06959   4.17963
 Alpha virt. eigenvalues --    4.17997   4.27853   4.30506   4.36650   4.39971
 Alpha virt. eigenvalues --    4.44338   4.68009   4.76304   5.10763   5.12987
 Alpha virt. eigenvalues --    5.34329   5.39189   5.46949   5.57705   5.79610
 Alpha virt. eigenvalues --    5.91236   7.49068   7.51444   7.93916   8.02461
 Alpha virt. eigenvalues --    8.11567
          Condensed to atoms (all electrons):
               1          2          3
     1  H    0.835638   0.185151  -0.041717
     2  C    0.185151   5.562007   0.121637
     3  F   -0.041717   0.121637   9.072212
 Mulliken charges:
               1
     1  H    0.020928
     2  C    0.131204
     3  F   -0.152132
 Sum of Mulliken charges =   0.00000
 Mulliken charges with hydrogens summed into heavy atoms:
               1
     2  C    0.152132
     3  F   -0.152132
 Electronic spatial extent (au):  <R**2>=             55.9148
 Charge=              0.0000 electrons
 Dipole moment (field-independent basis, Debye):
    X=             -1.5203    Y=             -0.2048    Z=              0.0000  Tot=              1.5340
 Quadrupole moment (field-independent basis, Debye-Ang):
   XX=            -12.0633   YY=            -12.8519   ZZ=            -10.4835
   XY=             -1.8289   XZ=              0.0000   YZ=              0.0000
 Traceless Quadrupole moment (field-independent basis, Debye-Ang):
   XX=             -0.2637   YY=             -1.0524   ZZ=              1.3161
   XY=             -1.8289   XZ=              0.0000   YZ=              0.0000
 Octapole moment (field-independent basis, Debye-Ang**2):
  XXX=             -1.8166  YYY=             -9.1165  ZZZ=              0.0000  XYY=             -2.4393
  XXY=             -3.1630  XXZ=              0.0000  XZZ=             -0.4573  YZZ=             -1.9622
  YYZ=              0.0000  XYZ=              0.0000
 Hexadecapole moment (field-independent basis, Debye-Ang**3):
 XXXX=            -18.4390 YYYY=            -47.4526 ZZZZ=             -8.9457 XXXY=             -0.4693
 XXXZ=              0.0000 YYYX=             -1.9286 YYYZ=              0.0000 ZZZX=              0.0000
 ZZZY=              0.0000 XXYY=            -11.5379 XXZZ=             -4.6947 YYZZ=             -8.8699
 XXYZ=              0.0000 YYXZ=              0.0000 ZZXY=              0.0103
 N-N= 2.714997569588D+01 E-N=-3.822154340705D+02  KE= 1.380887999774D+02
 Symmetry A'   KE= 1.322221308915D+02
 Symmetry A"   KE= 5.866669085957D+00
 1\1\GINC-GAMBA\FOpt\RB3LYP\Gen\C1H1F1\IRIKURA\17-Jun-2022\0\\# b3lyp/g
 en opt freq\\fluoromethylene, B3LYP/pcseg-2\\0,1\H,-1.0294053673,0.957
 2254702,0.\C,0.0673834289,0.7228585586,0.\F,0.0686129384,-0.5875780287
 ,0.\\Version=ES64L-G16RevB.01\State=1-A'\HF=-138.4678453\RMSD=2.116e-0
 9\RMSF=9.345e-05\Dipole=-0.5980512,-0.0811407,0.\Quadrupole=-0.1935296
 ,-0.7849493,0.9784789,-1.3591687,0.,0.\PG=CS [SG(C1H1F1)]\\@


 SOME THINGS ARE EASY, THEY ARE ONLY HARD TO DO.
            -- A. EINSTEIN TO J. O. HIRSCHFELDER
 THE ONLY TROUBLE WITH A SURE THING IS THE UNCERTAINTY.
     -- FROM A TEABAG (BELONGING TO W.H.?)
 Job cpu time:       0 days  0 hours  1 minutes 19.4 seconds.
 Elapsed time:       0 days  0 hours  0 minutes  6.8 seconds.
 File lengths (MBytes):  RWF=      6 Int=      0 D2E=      0 Chk=      2 Scr=      1
 Normal termination of Gaussian 16 at Fri Jun 17 16:25:52 2022.
 Link1:  Proceeding to internal job step number  2.
 ------------------------------------------------------------------
 #N Geom=AllCheck Guess=TCheck SCRF=Check GenChk RB3LYP/ChkBas Freq
 ------------------------------------------------------------------
 1/10=4,29=7,30=1,38=1,40=1/1,3;
 2/12=2,40=1/2;
 3/5=7,6=2,11=2,14=-4,25=1,30=1,67=1,70=2,71=2,74=-5,82=7,116=1,140=1/1,2,3;
 4/5=101/1;
 5/5=2,38=6,98=1/2;
 8/6=4,10=90,11=11/1;
 11/6=1,8=1,9=11,15=111,16=1/1,2,10;
 10/6=1/2;
 6/7=2,8=2,9=2,10=2,28=1/1;
 7/8=1,10=1,25=1/1,2,3,16;
 1/10=4,30=1/3;
 99//99;
 Structure from the checkpoint file:  "/wrk/irikura/Gau-22043.chk"
 ------------------------------
 fluoromethylene, B3LYP/pcseg-2
 ------------------------------
 Charge =  0 Multiplicity = 1
 Redundant internal coordinates found in file.  (old form).
 H,0,-1.0294053673,0.9572254702,0.
 C,0,0.0673834289,0.7228585586,0.
 F,0,0.0686129384,-0.5875780287,0.
 Recover connectivity data from disk.

 GradGradGradGradGradGradGradGradGradGradGradGradGradGradGradGradGradGrad
 Berny optimization.
 Initialization pass.
                           ----------------------------
                           !    Initial Parameters    !
                           ! (Angstroms and Degrees)  !
 --------------------------                            --------------------------
 ! Name  Definition              Value          Derivative Info.                !
 --------------------------------------------------------------------------------
 ! R1    R(1,2)                  1.1215         calculate D2E/DX2 analytically  !
 ! R2    R(2,3)                  1.3104         calculate D2E/DX2 analytically  !
 ! A1    A(1,2,3)              102.1156         calculate D2E/DX2 analytically  !
 --------------------------------------------------------------------------------
 Trust Radius=3.00D-01 FncErr=1.00D-07 GrdErr=1.00D-07 EigMax=2.50D+02 EigMin=1.00D-04
 Number of steps in this run=      2 maximum allowed number of steps=      2.
 GradGradGradGradGradGradGradGradGradGradGradGradGradGradGradGradGradGrad

                          Input orientation:                          
 ---------------------------------------------------------------------
 Center     Atomic      Atomic             Coordinates (Angstroms)
 Number     Number       Type             X           Y           Z
 ---------------------------------------------------------------------
      1          1           0       -1.029405    0.957225    0.000000
      2          6           0        0.067383    0.722859    0.000000
      3          9           0        0.068613   -0.587578    0.000000
 ---------------------------------------------------------------------
                    Distance matrix (angstroms):
                    1          2          3
     1  H    0.000000
     2  C    1.121550   0.000000
     3  F    1.895274   1.310437   0.000000
 Stoichiometry    CHF
 Framework group  CS[SG(CHF)]
 Deg. of freedom     3
 Full point group                 CS      NOp   2
 Largest Abelian subgroup         CS      NOp   2
 Largest concise Abelian subgroup C1      NOp   1
                         Standard orientation:                         
 ---------------------------------------------------------------------
 Center     Atomic      Atomic             Coordinates (Angstroms)
 Number     Number       Type             X           Y           Z
 ---------------------------------------------------------------------
      1          1           0       -1.028033    0.957805    0.000000
      2          6           0        0.068536    0.722409    0.000000
      3          9           0        0.068536   -0.588029    0.000000
 ---------------------------------------------------------------------
 Rotational constants (GHZ):         469.8158558          36.6736272          34.0181823
 Basis read from chk: "/wrk/irikura/Gau-22043.chk" (5D, 7F)
 There are    59 symmetry adapted cartesian basis functions of A'  symmetry.
 There are    26 symmetry adapted cartesian basis functions of A"  symmetry.
 There are    50 symmetry adapted basis functions of A'  symmetry.
 There are    24 symmetry adapted basis functions of A"  symmetry.
    74 basis functions,   120 primitive gaussians,    85 cartesian basis functions
     8 alpha electrons        8 beta electrons
       nuclear repulsion energy        27.1499756959 Hartrees.
 NAtoms=    3 NActive=    3 NUniq=    3 SFac= 1.00D+00 NAtFMM=   60 NAOKFM=F Big=F
 Integral buffers will be    131072 words long.
 Raffenetti 2 integral format.
 Two-electron integral symmetry is turned on.
 One-electron integrals computed using PRISM.
 NBasis=    74 RedAO= T EigKep=  3.11D-03  NBF=    50    24
 NBsUse=    74 1.00D-06 EigRej= -1.00D+00 NBFU=    50    24
 Initial guess from the checkpoint file:  "/wrk/irikura/Gau-22043.chk"
 B after Tr=     0.000000    0.000000    0.000000
         Rot=    1.000000    0.000000    0.000000    0.000000 Ang=   0.00 deg.
 Initial guess orbital symmetries:
       Occupied  (A') (A') (A') (A') (A') (A") (A') (A')
       Virtual   (A") (A') (A') (A") (A') (A') (A') (A') (A') (A')
                 (A") (A") (A') (A') (A') (A") (A') (A') (A") (A")
                 (A') (A') (A') (A") (A') (A') (A") (A') (A') (A')
                 (A") (A') (A") (A') (A") (A') (A') (A') (A") (A')
                 (A') (A') (A") (A") (A') (A") (A") (A') (A') (A")
                 (A') (A') (A") (A') (A") (A') (A') (A") (A') (A')
                 (A') (A") (A') (A") (A') (A')
 Keep R1 ints in memory in symmetry-blocked form, NReq=14777634.
 Requested convergence on RMS density matrix=1.00D-08 within 128 cycles.
 Requested convergence on MAX density matrix=1.00D-06.
 Requested convergence on             energy=1.00D-06.
 No special actions if energy rises.
 SCF Done:  E(RB3LYP) =  -138.467845313     A.U. after    1 cycles
            NFock=  1  Conv=0.46D-09     -V/T= 2.0027
 DoSCS=F DFT=T ScalE2(SS,OS)=  1.000000  1.000000
 Range of M.O.s used for correlation:     1    74
 NBasis=    74 NAE=     8 NBE=     8 NFC=     0 NFV=     0
 NROrb=     74 NOA=     8 NOB=     8 NVA=    66 NVB=    66
 Symmetrizing basis deriv contribution to polar:
 IMax=3 JMax=2 DiffMx= 0.00D+00
 G2DrvN: will do     4 centers at a time, making    1 passes.
 Calling FoFCou, ICntrl=  3107 FMM=F I1Cent=   0 AccDes= 0.00D+00.
 End of G2Drv F.D. properties file   721 does not exist.
 End of G2Drv F.D. properties file   722 does not exist.
 End of G2Drv F.D. properties file   788 does not exist.
          IDoAtm=111
          Differentiating once with respect to electric field.
                with respect to dipole field.
          Differentiating once with respect to nuclear coordinates.
 Keep R1 ints in memory in symmetry-blocked form, NReq=14738554.
          There are    12 degrees of freedom in the 1st order CPHF.  IDoFFX=6 NUNeed=     3.
      9 vectors produced by pass  0 Test12= 4.40D-15 8.33D-09 XBig12= 1.37D+01 3.05D+00.
 AX will form     9 AO Fock derivatives at one time.
      9 vectors produced by pass  1 Test12= 4.40D-15 8.33D-09 XBig12= 2.95D+00 6.29D-01.
      9 vectors produced by pass  2 Test12= 4.40D-15 8.33D-09 XBig12= 5.09D-02 6.79D-02.
      9 vectors produced by pass  3 Test12= 4.40D-15 8.33D-09 XBig12= 2.61D-04 4.69D-03.
      9 vectors produced by pass  4 Test12= 4.40D-15 8.33D-09 XBig12= 5.76D-07 2.86D-04.
      9 vectors produced by pass  5 Test12= 4.40D-15 8.33D-09 XBig12= 9.49D-10 6.38D-06.
      3 vectors produced by pass  6 Test12= 4.40D-15 8.33D-09 XBig12= 6.02D-13 2.55D-07.
 InvSVY:  IOpt=1 It=  1 EMax= 4.44D-16
 Solved reduced A of dimension    57 with     9 vectors.
 Isotropic polarizability for W=    0.000000       14.50 Bohr**3.
 End of Minotr F.D. properties file   721 does not exist.
 End of Minotr F.D. properties file   722 does not exist.
 End of Minotr F.D. properties file   788 does not exist.

 **********************************************************************

            Population analysis using the SCF Density.

 **********************************************************************

 Orbital symmetries:
       Occupied  (A') (A') (A') (A') (A') (A") (A') (A')
       Virtual   (A") (A') (A') (A") (A') (A') (A') (A') (A') (A')
                 (A") (A") (A') (A') (A') (A") (A') (A') (A") (A")
                 (A') (A') (A') (A") (A') (A') (A") (A') (A') (A')
                 (A") (A') (A") (A') (A") (A') (A') (A') (A") (A')
                 (A') (A') (A") (A") (A') (A") (A") (A') (A') (A")
                 (A') (A') (A") (A') (A") (A') (A') (A") (A') (A')
                 (A') (A") (A') (A") (A') (A')
 The electronic state is 1-A'.
 Alpha  occ. eigenvalues --  -24.75380 -10.31001  -1.29380  -0.69740  -0.55228
 Alpha  occ. eigenvalues --   -0.52051  -0.47858  -0.26192
 Alpha virt. eigenvalues --   -0.11624   0.02787   0.07510   0.17228   0.17562
 Alpha virt. eigenvalues --    0.22554   0.29803   0.31000   0.40181   0.46902
 Alpha virt. eigenvalues --    0.47071   0.68823   0.76999   0.83760   0.99535
 Alpha virt. eigenvalues --    1.01109   1.05605   1.13485   1.18630   1.27229
 Alpha virt. eigenvalues --    1.31210   1.37345   1.55370   1.82694   1.83515
 Alpha virt. eigenvalues --    2.04650   2.16752   2.20782   2.25497   2.36913
 Alpha virt. eigenvalues --    2.77754   2.86401   3.13604   3.19556   3.19765
 Alpha virt. eigenvalues --    3.35500   3.52147   3.55456   3.59480   3.81160
 Alpha virt. eigenvalues --    3.91792   3.98545   3.99234   4.06959   4.17963
 Alpha virt. eigenvalues --    4.17997   4.27853   4.30506   4.36650   4.39971
 Alpha virt. eigenvalues --    4.44338   4.68009   4.76304   5.10763   5.12987
 Alpha virt. eigenvalues --    5.34329   5.39189   5.46949   5.57705   5.79610
 Alpha virt. eigenvalues --    5.91236   7.49068   7.51444   7.93916   8.02461
 Alpha virt. eigenvalues --    8.11567
          Condensed to atoms (all electrons):
               1          2          3
     1  H    0.835638   0.185151  -0.041717
     2  C    0.185151   5.562007   0.121637
     3  F   -0.041717   0.121637   9.072212
 Mulliken charges:
               1
     1  H    0.020928
     2  C    0.131204
     3  F   -0.152132
 Sum of Mulliken charges =   0.00000
 Mulliken charges with hydrogens summed into heavy atoms:
               1
     2  C    0.152132
     3  F   -0.152132
 APT charges:
               1
     1  H   -0.014658
     2  C    0.414170
     3  F   -0.399512
 Sum of APT charges =   0.00000
 APT charges with hydrogens summed into heavy atoms:
               1
     2  C    0.399512
     3  F   -0.399512
 Electronic spatial extent (au):  <R**2>=             55.9148
 Charge=              0.0000 electrons
 Dipole moment (field-independent basis, Debye):
    X=             -1.5203    Y=             -0.2048    Z=              0.0000  Tot=              1.5340
 Quadrupole moment (field-independent basis, Debye-Ang):
   XX=            -12.0633   YY=            -12.8519   ZZ=            -10.4835
   XY=             -1.8289   XZ=              0.0000   YZ=              0.0000
 Traceless Quadrupole moment (field-independent basis, Debye-Ang):
   XX=             -0.2637   YY=             -1.0524   ZZ=              1.3161
   XY=             -1.8289   XZ=              0.0000   YZ=              0.0000
 Octapole moment (field-independent basis, Debye-Ang**2):
  XXX=             -1.8166  YYY=             -9.1165  ZZZ=              0.0000  XYY=             -2.4393
  XXY=             -3.1630  XXZ=              0.0000  XZZ=             -0.4573  YZZ=             -1.9622
  YYZ=              0.0000  XYZ=              0.0000
 Hexadecapole moment (field-independent basis, Debye-Ang**3):
 XXXX=            -18.4390 YYYY=            -47.4526 ZZZZ=             -8.9457 XXXY=             -0.4693
 XXXZ=              0.0000 YYYX=             -1.9286 YYYZ=              0.0000 ZZZX=              0.0000
 ZZZY=              0.0000 XXYY=            -11.5379 XXZZ=             -4.6947 YYZZ=             -8.8699
 XXYZ=              0.0000 YYXZ=              0.0000 ZZXY=              0.0103
 N-N= 2.714997569588D+01 E-N=-3.822154344866D+02  KE= 1.380888001857D+02
 Symmetry A'   KE= 1.322221310185D+02
 Symmetry A"   KE= 5.866669167189D+00
  Exact polarizability:  16.441  -1.624  15.277   0.000  -0.000  11.778
 Approx polarizability:  19.170  -2.867  20.803  -0.000  -0.000  16.945
 Calling FoFJK, ICntrl=    100127 FMM=F ISym2X=1 I1Cent= 0 IOpClX= 0 NMat=1 NMatS=1 NMatT=0.
 Full mass-weighted force constant matrix:
 Low frequencies ---  -39.2212  -16.8037   -0.0022   -0.0019   -0.0002   12.1691
 Low frequencies --- 1199.5425 1442.5965 2772.1520
 Diagonal vibrational polarizability:
        0.9181536       3.3158164       0.0000000
 Harmonic frequencies (cm**-1), IR intensities (KM/Mole), Raman scattering
 activities (A**4/AMU), depolarization ratios for plane and unpolarized
 incident light, reduced masses (AMU), force constants (mDyne/A),
 and normal coordinates:
                      1                      2                      3
                     A'                     A'                     A'
 Frequencies --   1199.5425              1442.5964              2772.1520
 Red. masses --     13.5526                 1.1511                 1.0838
 Frc consts  --     11.4896                 1.4115                 4.9071
 IR Inten    --    175.5191                25.5545               177.2921
  Atom  AN      X      Y      Z        X      Y      Z        X      Y      Z
     1   1    -0.06   0.19   0.00     0.13   0.99   0.00     0.98  -0.21   0.00
     2   6    -0.01   0.82   0.00    -0.08  -0.04   0.00    -0.08   0.01   0.00
     3   9     0.01  -0.53   0.00     0.05  -0.02   0.00     0.00   0.00   0.00

 -------------------
 - Thermochemistry -
 -------------------
 Temperature   298.150 Kelvin.  Pressure   1.00000 Atm.
 Atom     1 has atomic number  1 and mass   1.00783
 Atom     2 has atomic number  6 and mass  12.00000
 Atom     3 has atomic number  9 and mass  18.99840
 Molecular mass:    32.00623 amu.
 Principal axes and moments of inertia in atomic units:
                           1         2         3
     Eigenvalues --     3.84138  49.21087  53.05225
           X           -0.08783   0.99614   0.00000
           Y            0.99614   0.08783   0.00000
           Z           -0.00000   0.00000   1.00000
 This molecule is an asymmetric top.
 Rotational symmetry number  1.
 Rotational temperatures (Kelvin)     22.54761     1.76006     1.63262
 Rotational constants (GHZ):         469.81586    36.67363    34.01818
 Zero-point vibrational energy      32384.7 (Joules/Mol)
                                    7.74012 (Kcal/Mol)
 Vibrational temperatures:   1725.87  2075.57  3988.51
          (Kelvin)
 
 Zero-point correction=                           0.012335 (Hartree/Particle)
 Thermal correction to Energy=                    0.015190
 Thermal correction to Enthalpy=                  0.016134
 Thermal correction to Gibbs Free Energy=        -0.009207
 Sum of electronic and zero-point Energies=           -138.455511
 Sum of electronic and thermal Energies=              -138.452655
 Sum of electronic and thermal Enthalpies=            -138.451711
 Sum of electronic and thermal Free Energies=         -138.477052
 
                     E (Thermal)             CV                S
                      KCal/Mol        Cal/Mol-Kelvin    Cal/Mol-Kelvin
 Total                    9.532              6.259             53.336
 Electronic               0.000              0.000              0.000
 Translational            0.889              2.981             36.322
 Rotational               0.889              2.981             16.957
 Vibrational              7.755              0.297              0.056
                       Q            Log10(Q)             Ln(Q)
 Total Bot       0.171781D+05          4.234976          9.751392
 Total V=0       0.810068D+10          9.908522         22.815214
 Vib (Bot)       0.212911D-05         -5.671801        -13.059805
 Vib (V=0)       0.100402D+01          0.001744          0.004017
 Electronic      0.100000D+01          0.000000          0.000000
 Translational   0.711714D+07          6.852306         15.778017
 Rotational      0.113363D+04          3.054472          7.033181
 ***** Axes restored to original set *****
 -------------------------------------------------------------------
 Center     Atomic                   Forces (Hartrees/Bohr)
 Number     Number              X              Y              Z
 -------------------------------------------------------------------
      1        1          -0.000136757    0.000173288   -0.000000000
      2        6           0.000015965   -0.000085396   -0.000000000
      3        9           0.000120792   -0.000087892   -0.000000000
 -------------------------------------------------------------------
 Cartesian Forces:  Max     0.000173288 RMS     0.000093449
 FormGI is forming the generalized inverse of G from B-inverse, IUseBI=4.

 GradGradGradGradGradGradGradGradGradGradGradGradGradGradGradGradGradGrad
 Berny optimization.
 Internal  Forces:  Max     0.000298734 RMS     0.000204828
 Search for a local minimum.
 Step number   1 out of a maximum of    2
 All quantities printed in internal units (Hartrees-Bohrs-Radians)
 Second derivative matrix not updated -- analytic derivatives used.
 The second derivative matrix:
                          R1        R2        A1
           R1           0.27111
           R2           0.02305   0.42422
           A1           0.00922   0.08164   0.30762
 ITU=  0
     Eigenvalues ---    0.26419   0.26944   0.46932
 Angle between quadratic step and forces=  14.98 degrees.
 Linear search not attempted -- first point.
 Iteration  1 RMS(Cart)=  0.00081800 RMS(Int)=  0.00000026
 Iteration  2 RMS(Cart)=  0.00000018 RMS(Int)=  0.00000000
 ClnCor:  largest displacement from symmetrization is 2.22D-16 for atom     1.
 Variable       Old X    -DE/DX   Delta X   Delta X   Delta X     New X
                                 (Linear)    (Quad)   (Total)
    R1        2.11942   0.00017   0.00000   0.00059   0.00059   2.12002
    R2        2.47637   0.00009   0.00000  -0.00001  -0.00001   2.47636
    A1        1.78225   0.00030   0.00000   0.00096   0.00096   1.78321
         Item               Value     Threshold  Converged?
 Maximum Force            0.000299     0.000450     YES
 RMS     Force            0.000205     0.000300     YES
 Maximum Displacement     0.000918     0.001800     YES
 RMS     Displacement     0.000818     0.001200     YES
 Predicted change in Energy=-1.928996D-07
 Optimization completed.
    -- Stationary point found.
                           ----------------------------
                           !   Optimized Parameters   !
                           ! (Angstroms and Degrees)  !
 --------------------------                            --------------------------
 ! Name  Definition              Value          Derivative Info.                !
 --------------------------------------------------------------------------------
 ! R1    R(1,2)                  1.1215         -DE/DX =    0.0002              !
 ! R2    R(2,3)                  1.3104         -DE/DX =    0.0001              !
 ! A1    A(1,2,3)              102.1156         -DE/DX =    0.0003              !
 --------------------------------------------------------------------------------
 GradGradGradGradGradGradGradGradGradGradGradGradGradGradGradGradGradGrad


 ----------------------------------------------------------------------

 Electric dipole moment (input orientation):
 (Debye = 10**-18 statcoulomb cm , SI units = C m)
                  (au)            (Debye)         (10**-30 SI)
   Tot        0.603531D+00      0.153402D+01      0.511695D+01
   x         -0.598051D+00     -0.152009D+01     -0.507049D+01
   y         -0.811406D-01     -0.206239D+00     -0.687939D+00
   z          0.000000D+00      0.000000D+00      0.000000D+00

 Dipole polarizability, Alpha (input orientation).
 (esu units = cm**3 , SI units = C**2 m**2 J**-1)
 Alpha(0;0):
               (au)            (10**-24 esu)      (10**-40 SI)
   iso        0.144986D+02      0.214847D+01      0.239049D+01
   aniso      0.505727D+01      0.749409D+00      0.833830D+00
   xx         0.164437D+02      0.243671D+01      0.271120D+01
   yx        -0.162286D+01     -0.240483D+00     -0.267573D+00
   yy         0.152736D+02      0.226331D+01      0.251827D+01
   zx         0.000000D+00      0.000000D+00      0.000000D+00
   zy         0.000000D+00      0.000000D+00      0.000000D+00
   zz         0.117785D+02      0.174539D+01      0.194201D+01

 ----------------------------------------------------------------------

 Dipole orientation:
     1         -0.27614695          2.03535560          1.68443981
     6         -0.17968125          1.32435010         -0.30983033
     9          0.15026897         -1.10756538          0.02079813

 Electric dipole moment (dipole orientation):
 (Debye = 10**-18 statcoulomb cm , SI units = C m)
                  (au)            (Debye)         (10**-30 SI)
   Tot        0.603531D+00      0.153402D+01      0.511695D+01
   x          0.000000D+00      0.000000D+00      0.000000D+00
   y          0.000000D+00      0.000000D+00      0.000000D+00
   z          0.603531D+00      0.153402D+01      0.511695D+01

 Dipole polarizability, Alpha (dipole orientation).
 (esu units = cm**3 , SI units = C**2 m**2 J**-1)
 Alpha(0;0):
               (au)            (10**-24 esu)      (10**-40 SI)
   iso        0.144986D+02      0.214847D+01      0.239049D+01
   aniso      0.505727D+01      0.749409D+00      0.833830D+00
   xx         0.118498D+02      0.175596D+01      0.195377D+01
   yx        -0.526054D+00     -0.779532D-01     -0.867346D-01
   yy         0.156558D+02      0.231995D+01      0.258129D+01
   zx        -0.231253D+00     -0.342682D-01     -0.381285D-01
   zy         0.170446D+01      0.252576D+00      0.281028D+00
   zz         0.159902D+02      0.236950D+01      0.263642D+01

 ----------------------------------------------------------------------
 1\1\GINC-GAMBA\Freq\RB3LYP\Gen\C1H1F1\IRIKURA\17-Jun-2022\0\\#N Geom=A
 llCheck Guess=TCheck SCRF=Check GenChk RB3LYP/ChkBas Freq\\fluoromethy
 lene, B3LYP/pcseg-2\\0,1\H,-1.0294053673,0.9572254702,0.\C,0.067383428
 9,0.7228585586,0.\F,0.0686129384,-0.5875780287,0.\\Version=ES64L-G16Re
 vB.01\State=1-A'\HF=-138.4678453\RMSD=4.583e-10\RMSF=9.345e-05\ZeroPoi
 nt=0.0123347\Thermal=0.0151903\Dipole=-0.5980513,-0.0811406,0.\DipoleD
 eriv=-0.4142833,0.1081818,0.,-0.0621637,0.0817122,0.,0.,0.,0.2885975,0
 .5077953,0.0444826,0.,-0.1097438,1.1076961,0.,0.,0.,-0.3729812,-0.0935
 12,-0.1526644,0.,0.1719075,-1.1894082,0.,0.,0.,0.0843837\Polar=16.4437
 269,-1.6228575,15.2735876,0.,0.,11.7784592\Quadrupole=-0.1935296,-0.78
 49492,0.9784789,-1.3591687,0.,0.\PG=CS [SG(C1H1F1)]\NImag=0\\0.2604459
 2,-0.04545824,0.07905949,0.,0.,-0.00005523,-0.26904069,-0.01267555,0.,
 0.32782622,0.03095754,-0.03662904,0.,-0.00618998,0.41835439,0.,0.,-0.0
 0000558,0.,0.,0.00004184,0.00859476,0.05813380,0.,-0.05878553,-0.02476
 755,0.,0.05019077,0.01450071,-0.04243046,0.,0.01886554,-0.38172536,0.,
 -0.03336624,0.42415581,0.,0.,0.00006082,0.,0.,-0.00003625,0.,0.,-0.000
 02456\\0.00013676,-0.00017329,0.,-0.00001597,0.00008540,0.,-0.00012079
 ,0.00008789,0.\\\@


 IF YOU GIVE A BOY AND A PIG EVERYTHING THEY WANT,
 YOU'LL GET A BAD BOY AND A GOOD PIG.
 Job cpu time:       0 days  0 hours  1 minutes 11.1 seconds.
 Elapsed time:       0 days  0 hours  0 minutes  6.0 seconds.
 File lengths (MBytes):  RWF=      6 Int=      0 D2E=      0 Chk=      2 Scr=      1
 Normal termination of Gaussian 16 at Fri Jun 17 16:25:59 2022.
