 Entering Gaussian System, Link 0=g16
 AtFile(1): pcseg2.gbs
            -H     0
            S   4   1.00
                  0.754732D+02           0.427821D-02
                  0.113575D+02           0.328672D-01
                  0.260081D+01           0.159578D+00
                  0.735503D+00           0.500000D+00
            S   1   1.00
                  0.231761D+00           1.0000000
            S   1   1.00
                  0.741675D-01           1.0000000
            P   1   1.00
                  0.160000D+01           1.0000000
            P   1   1.00
                  0.450000D+00           1.0000000
            D   1   1.00
                  0.125000D+01           1.0000000
            ****
            -C     0
            S   7   1.00
                  0.731999D+04           0.695369D-03
                  0.109818D+04           0.537138D-02
                  0.250014D+03           0.274734D-01
                  0.707586D+02           0.105078D+00
                  0.228595D+02           0.291262D+00
                  0.803936D+01           0.500000D+00
                  0.289309D+01           0.362224D+00
            S   2   1.00
                  0.521640D+01          -0.957844D-01
                  0.556124D+00           0.500000D+00
            S   1   1.00
                  0.228813D+00           1.0000000
            S   1   1.00
                  0.936338D-01           1.0000000
            P   4   1.00
                  0.339855D+02           0.818395D-02
                  0.772957D+01           0.586921D-01
                  0.224954D+01           0.222514D+00
                  0.767681D+00           0.500000D+00
            P   1   1.00
                  0.263283D+00           1.0000000
            P   1   1.00
                  0.848744D-01           1.0000000
            D   1   1.00
                  0.140000D+01           1.0000000
            D   1   1.00
                  0.450000D+00           1.0000000
            F   1   1.00
                  0.950000D+00           1.0000000
            ****
            -O     0
            S   7   1.00
                  0.135887D+05           0.665492D-03
                  0.203847D+04           0.514222D-02
                  0.464041D+03           0.263472D-01
                  0.131339D+03           0.101500D+00
                  0.425340D+02           0.285877D+00
                  0.150429D+02           0.500000D+00
                  0.546616D+01           0.368211D+00
            S   2   1.00
                  0.100915D+02          -0.100084D+00
                  0.110429D+01           0.500000D+00
            S   1   1.00
                  0.448082D+00           1.0000000
            S   1   1.00
                  0.175325D+00           1.0000000
            P   4   1.00
                  0.608220D+02           0.908253D-02
                  0.140332D+02           0.645878D-01
                  0.418244D+01           0.241502D+00
                  0.142490D+01           0.500000D+00
            P   1   1.00
                  0.478741D+00           1.0000000
            P   1   1.00
                  0.146257D+00           1.0000000
            D   1   1.00
                  0.220000D+01           1.0000000
            D   1   1.00
                  0.650000D+00           1.0000000
            F   1   1.00
                  0.110000D+01           1.0000000
            ****
            -N     0
            S   7   1.00
                  0.101643D+05           0.682757D-03
                  0.152481D+04           0.527488D-02
                  0.347119D+03           0.270037D-01
                  0.982389D+02           0.103673D+00
                  0.317799D+02           0.289575D+00
                  0.112240D+02           0.500000D+00
                  0.406611D+01           0.364621D+00
            S   2   1.00
                  0.747898D+01          -0.975681D-01
                  0.805040D+00           0.500000D+00
            S   1   1.00
                  0.324626D+00           1.0000000
            S   1   1.00
                  0.128132D+00           1.0000000
            P   4   1.00
                  0.482704D+02           0.829547D-02
                  0.110815D+02           0.596223D-01
                  0.326643D+01           0.227889D+00
                  0.111680D+01           0.500000D+00
            P   1   1.00
                  0.382049D+00           1.0000000
            P   1   1.00
                  0.121222D+00           1.0000000
            D   1   1.00
                  0.180000D+01           1.0000000
            D   1   1.00
                  0.550000D+00           1.0000000
            F   1   1.00
                  0.102000D+01           1.0000000
            ****
            -F     0
            S   7   1.00
                  0.174507D+05           0.655972D-03
                  0.261768D+04           0.506944D-02
                  0.595857D+03           0.259899D-01
                  0.168651D+03           0.100353D+00
                  0.546654D+02           0.284095D+00
                  0.193717D+02           0.500000D+00
                  0.706202D+01           0.370721D+00
            S   2   1.00
                  0.131197D+02          -0.101997D+00
                  0.145046D+01           0.500000D+00
            S   1   1.00
                  0.588255D+00           1.0000000
            S   1   1.00
                  0.227960D+00           1.0000000
            P   4   1.00
                  0.779407D+02           0.931135D-02
                  0.180425D+02           0.663964D-01
                  0.542342D+01           0.246386D+00
                  0.184876D+01           0.500000D+00
            P   1   1.00
                  0.617455D+00           1.0000000
            P   1   1.00
                  0.185496D+00           1.0000000
            D   1   1.00
                  0.280000D+01           1.0000000
            D   1   1.00
                  0.800000D+00           1.0000000
            F   1   1.00
                  0.120000D+01           1.0000000
            ****
            -Cl     0
            S   8   1.00
                  0.154272D+06           0.222473D-03
                  0.231232D+05           0.172590D-02
                  0.526257D+04           0.899286D-02
                  0.148995D+04           0.367724D-01
                  0.485417D+03           0.121446D+00
                  0.174634D+03           0.304148D+00
                  0.672393D+02           0.500000D+00
                  0.265780D+02           0.360252D+00
            S   3   1.00
                  0.131826D+03          -0.531330D-01
                  0.400703D+02          -0.233346D+00
                  0.789448D+01           0.500000D+00
            S   2   1.00
                  0.427711D+01           0.500000D+00
                  0.196233D+01           0.370517D+00
            S   1   1.00
                  0.520793D+00           1.0000000
            S   1   1.00
                  0.181633D+00           1.0000000
            P   7   1.00
                  0.124440D+04           0.988206D-03
                  0.295109D+03           0.829674D-02
                  0.947224D+02           0.430906D-01
                  0.352588D+02           0.148443D+00
                  0.144211D+02           0.344744D+00
                  0.610371D+01           0.500000D+00
                  0.258886D+01           0.348278D+00
            P   2   1.00
                  0.109447D+02          -0.196768D-01
                  0.104413D+01           0.500000D+00
            P   1   1.00
                  0.376184D+00           1.0000000
            P   1   1.00
                  0.120613D+00           1.0000000
            D   1   1.00
                  0.231000D+01           1.0000000
            D   1   1.00
                  0.520000D+00           1.0000000
            F   1   1.00
                  0.720000D+00           1.0000000
            ****
            -S     0
            S   8   1.00
                  0.134700D+06           0.226231D-03
                  0.201904D+05           0.175488D-02
                  0.459528D+04           0.914190D-02
                  0.130109D+04           0.373551D-01
                  0.423902D+03           0.123121D+00
                  0.152485D+03           0.306801D+00
                  0.586925D+02           0.500000D+00
                  0.231461D+02           0.354358D+00
            S   3   1.00
                  0.116327D+03          -0.491772D-01
                  0.352841D+02          -0.215962D+00
                  0.677831D+01           0.500000D+00
            S   2   1.00
                  0.360404D+01           0.500000D+00
                  0.164871D+01           0.366278D+00
            S   1   1.00
                  0.421821D+00           1.0000000
            S   1   1.00
                  0.147554D+00           1.0000000
            P   7   1.00
                  0.104863D+04           0.105273D-02
                  0.248717D+03           0.879338D-02
                  0.797887D+02           0.453358D-01
                  0.296023D+02           0.154476D+00
                  0.120627D+02           0.352366D+00
                  0.507628D+01           0.500000D+00
                  0.213375D+01           0.346429D+00
            P   2   1.00
                  0.928958D+01          -0.185932D-01
                  0.837819D+00           0.500000D+00
            P   1   1.00
                  0.301495D+00           1.0000000
            P   1   1.00
                  0.974740D-01           1.0000000
            D   1   1.00
                  0.210000D+01           1.0000000
            D   1   1.00
                  0.480000D+00           1.0000000
            F   1   1.00
                  0.660000D+00           1.0000000
            ****
            -Br     0
            S    10   1.00
                  0.233625D+07           0.532336D-04
                  0.349961D+06           0.413715D-03
                  0.796444D+05           0.217123D-02
                  0.225555D+05           0.910109D-02
                  0.735546D+04           0.323789D-01
                  0.265352D+04           0.988755D-01
                  0.103517D+04           0.248138D+00
                  0.422205D+03           0.474328D+00
                  0.180035D+03           0.500000D+00
                  0.793308D+02           0.187769D+00
            S    4   1.00
                  0.620834D+03          -0.226511D-01
                  0.190829D+03          -0.109497D+00
                  0.312505D+02           0.500000D+00
                  0.135270D+02           0.492812D+00
            S    2   1.00
                  0.216097D+02          -0.165418D+00
                  0.372566D+01           0.500000D+00
            S    1   1.00
                  0.169770D+01           1.0000000
            S    1   1.00
                  0.489332D+00           1.0000000
            S    1   1.00
                  0.175712D+00           1.0000000
            P    8   1.00
                  0.960829D+04           0.478974D-03
                  0.227618D+04           0.417853D-02
                  0.736723D+03           0.229315D-01
                  0.281579D+03           0.892653D-01
                  0.118395D+03           0.255288D+00
                  0.527481D+02           0.479074D+00
                  0.245098D+02           0.500000D+00
                  0.112009D+02           0.200944D+00
            P    4   1.00
                  0.587849D+02          -0.189674D-01
                  0.918962D+01           0.264104D+00
                  0.413895D+01           0.500000D+00
                  0.184225D+01           0.319316D+00
            P    1   1.00
                  0.713862D+00           1.0000000
            P    1   1.00
                  0.274232D+00           1.0000000
            P    1   1.00
                  0.944411D-01           1.0000000
            D    7   1.00
                  0.398470D+03           0.204066D-02
                  0.118967D+03           0.175171D-01
                  0.450197D+02           0.829708D-01
                  0.190320D+02           0.236284D+00
                  0.855686D+01           0.428468D+00
                  0.382950D+01           0.500000D+00
                  0.166291D+01           0.349360D+00
            D    1   1.00
                  0.672953D+00           1.0000000
            D    1   1.00
                  0.252000D+00           1.0000000
            F    1   1.00
                  0.530000D+00           1.0000000
            ****
            -Si     0
            S    8   1.00
                  0.996133D+05           0.235546D-03
                  0.149311D+05           0.182707D-02
                  0.339820D+04           0.951425D-02
                  0.962140D+03           0.388172D-01
                  0.313430D+03           0.127328D+00
                  0.112683D+03           0.313522D+00
                  0.433372D+02           0.500000D+00
                  0.170029D+02           0.340347D+00
            S    3   1.00
                  0.884208D+02          -0.404451D-01
                  0.266756D+02          -0.178059D+00
                  0.479640D+01           0.500000D+00
            S    2   1.00
                  0.239385D+01           0.500000D+00
                  0.108333D+01           0.338016D+00
            S    1   1.00
                  0.252420D+00           1.0000000
            S    1   1.00
                  0.891210D-01           1.0000000
            P    7   1.00
                  0.709901D+03           0.123028D-02
                  0.168426D+03           0.101366D-01
                  0.539946D+02           0.511840D-01
                  0.198646D+02           0.169967D+00
                  0.801369D+01           0.370717D+00
                  0.331870D+01           0.500000D+00
                  0.136112D+01           0.344128D+00
            P    2   1.00
                  0.622158D+01          -0.166609D-01
                  0.503049D+00           0.500000D+00
            P    1   1.00
                  0.179848D+00           1.0000000
            P    1   1.00
                  0.591912D-01           1.0000000
            D    1   1.00
                  0.168000D+01           1.0000000
            D    1   1.00
                  0.380000D+00           1.0000000
            F    1   1.00
                  0.540000D+00           1.0000000
            ****
            -P     0
            S    8   1.00
                  0.116416D+06           0.230715D-03
                  0.174500D+05           0.178960D-02
                  0.397149D+04           0.932116D-02
                  0.112447D+04           0.380591D-01
                  0.366347D+03           0.125148D+00
                  0.131757D+03           0.310022D+00
                  0.506988D+02           0.500000D+00
                  0.199436D+02           0.347528D+00
            S    3   1.00
                  0.101878D+03          -0.446755D-01
                  0.308249D+02          -0.196376D+00
                  0.573688D+01           0.500000D+00
            S    2   1.00
                  0.296868D+01           0.500000D+00
                  0.135315D+01           0.355098D+00
            S    1   1.00
                  0.332196D+00           1.0000000
            S    1   1.00
                  0.116229D+00           1.0000000
            P    7   1.00
                  0.873928D+03           0.112375D-02
                  0.207298D+03           0.933330D-02
                  0.664628D+02           0.477213D-01
                  0.245665D+02           0.160733D+00
                  0.996820D+01           0.359760D+00
                  0.416536D+01           0.500000D+00
                  0.173022D+01           0.346593D+00
            P    2   1.00
                  0.772530D+01          -0.175718D-01
                  0.657252D+00           0.500000D+00
            P    1   1.00
                  0.239903D+00           1.0000000
            P    1   1.00
                  0.800988D-01           1.0000000
            D    1   1.00
                  0.189000D+01           1.0000000
            D    1   1.00
                  0.430000D+00           1.0000000
            F    1   1.00
                  0.600000D+00           1.0000000
            ****
            
 Initial command:
 /usr/local/apps/g16_b01_avx/g16/l1.exe "/wrk/irikura/Gau-169787.inp" -scrdir="/wrk/irikura/"
 Entering Link 1 = /usr/local/apps/g16_b01_avx/g16/l1.exe PID=    169789.
  
 Copyright (c) 1988-2017, Gaussian, Inc.  All Rights Reserved.
  
 This is part of the Gaussian(R) 16 program.  It is based on
 the Gaussian(R) 09 system (copyright 2009, Gaussian, Inc.),
 the Gaussian(R) 03 system (copyright 2003, Gaussian, Inc.),
 the Gaussian(R) 98 system (copyright 1998, Gaussian, Inc.),
 the Gaussian(R) 94 system (copyright 1995, Gaussian, Inc.),
 the Gaussian 92(TM) system (copyright 1992, Gaussian, Inc.),
 the Gaussian 90(TM) system (copyright 1990, Gaussian, Inc.),
 the Gaussian 88(TM) system (copyright 1988, Gaussian, Inc.),
 the Gaussian 86(TM) system (copyright 1986, Carnegie Mellon
 University), and the Gaussian 82(TM) system (copyright 1983,
 Carnegie Mellon University). Gaussian is a federally registered
 trademark of Gaussian, Inc.
  
 This software contains proprietary and confidential information,
 including trade secrets, belonging to Gaussian, Inc.
  
 This software is provided under written license and may be
 used, copied, transmitted, or stored only in accord with that
 written license.
  
 The following legend is applicable only to US Government
 contracts under FAR:
  
                    RESTRICTED RIGHTS LEGEND
  
 Use, reproduction and disclosure by the US Government is
 subject to restrictions as set forth in subparagraphs (a)
 and (c) of the Commercial Computer Software - Restricted
 Rights clause in FAR 52.227-19.
  
 Gaussian, Inc.
 340 Quinnipiac St., Bldg. 40, Wallingford CT 06492
  
  
 ---------------------------------------------------------------
 Warning -- This program may not be used in any manner that
 competes with the business of Gaussian, Inc. or will provide
 assistance to any competitor of Gaussian, Inc.  The licensee
 of this program is prohibited from giving any competitor of
 Gaussian, Inc. access to this program.  By using this program,
 the user acknowledges that Gaussian, Inc. is engaged in the
 business of creating and licensing software in the field of
 computational chemistry and represents and warrants to the
 licensee that it is not a competitor of Gaussian, Inc. and that
 it will not use this program in any manner prohibited above.
 ---------------------------------------------------------------
  

 Cite this work as:
 Gaussian 16, Revision B.01,
 M. J. Frisch, G. W. Trucks, H. B. Schlegel, G. E. Scuseria, 
 M. A. Robb, J. R. Cheeseman, G. Scalmani, V. Barone, 
 G. A. Petersson, H. Nakatsuji, X. Li, M. Caricato, A. V. Marenich, 
 J. Bloino, B. G. Janesko, R. Gomperts, B. Mennucci, H. P. Hratchian, 
 J. V. Ortiz, A. F. Izmaylov, J. L. Sonnenberg, D. Williams-Young, 
 F. Ding, F. Lipparini, F. Egidi, J. Goings, B. Peng, A. Petrone, 
 T. Henderson, D. Ranasinghe, V. G. Zakrzewski, J. Gao, N. Rega, 
 G. Zheng, W. Liang, M. Hada, M. Ehara, K. Toyota, R. Fukuda, 
 J. Hasegawa, M. Ishida, T. Nakajima, Y. Honda, O. Kitao, H. Nakai, 
 T. Vreven, K. Throssell, J. A. Montgomery, Jr., J. E. Peralta, 
 F. Ogliaro, M. J. Bearpark, J. J. Heyd, E. N. Brothers, K. N. Kudin, 
 V. N. Staroverov, T. A. Keith, R. Kobayashi, J. Normand, 
 K. Raghavachari, A. P. Rendell, J. C. Burant, S. S. Iyengar, 
 J. Tomasi, M. Cossi, J. M. Millam, M. Klene, C. Adamo, R. Cammi, 
 J. W. Ochterski, R. L. Martin, K. Morokuma, O. Farkas, 
 J. B. Foresman, and D. J. Fox, Gaussian, Inc., Wallingford CT, 2016.
 
 ******************************************
 Gaussian 16:  ES64L-G16RevB.01 20-Dec-2017
                28-Sep-2023 
 ******************************************
 %chk=chfcl2.chk
 %mem=500mw
 %nprocs=4
 Will use up to    4 processors via shared memory.
 ---------------------------------------
 # b3lyp/gen opt freq CPHF(Grid=OneStep)
 ---------------------------------------
 1/18=20,19=15,26=3,38=1/1,3;
 2/9=110,12=2,17=6,18=5,40=1/2;
 3/5=7,11=2,25=1,30=1,71=1,74=-5/1,2,3;
 4//1;
 5/5=2,38=5/2;
 6/7=2,8=2,9=2,10=2,28=1/1;
 7//1,2,3,16;
 1/18=20,19=15,26=3/3(2);
 2/9=110/2;
 99//99;
 2/9=110/2;
 3/5=7,6=1,11=2,25=1,30=1,71=1,74=-5,82=7/1,2,3;
 4/5=5,16=3,69=1/1;
 5/5=2,38=5/2;
 7//1,2,3,16;
 1/18=20,19=15,26=3/3(-5);
 2/9=110/2;
 6/7=2,8=2,9=2,10=2,19=2,28=1/1;
 99/9=1/99;
 ------------------------------------
 chlorodifluoromethane, B3LYP/pcseg-2
 ------------------------------------
 Symbolic Z-matrix:
 Charge =  0 Multiplicity = 1
 C                    -0.17787   0.52195   0. 
 H                    -1.07461   1.1301    0. 
 F                     0.90994   1.32028   0. 
 Cl                   -0.17787  -0.47483   1.47305 
 Cl                   -0.17787  -0.47483  -1.47305 
 

 GradGradGradGradGradGradGradGradGradGradGradGradGradGradGradGradGradGrad
 Berny optimization.
 Initialization pass.
                           ----------------------------
                           !    Initial Parameters    !
                           ! (Angstroms and Degrees)  !
 --------------------------                            --------------------------
 ! Name  Definition              Value          Derivative Info.                !
 --------------------------------------------------------------------------------
 ! R1    R(1,2)                  1.0835         estimate D2E/DX2                !
 ! R2    R(1,3)                  1.3493         estimate D2E/DX2                !
 ! R3    R(1,4)                  1.7786         estimate D2E/DX2                !
 ! R4    R(1,5)                  1.7786         estimate D2E/DX2                !
 ! A1    A(2,1,3)              109.5807         estimate D2E/DX2                !
 ! A2    A(2,1,4)              108.3341         estimate D2E/DX2                !
 ! A3    A(2,1,5)              108.3341         estimate D2E/DX2                !
 ! A4    A(3,1,4)              109.3648         estimate D2E/DX2                !
 ! A5    A(3,1,5)              109.3648         estimate D2E/DX2                !
 ! A6    A(4,1,5)              111.8292         estimate D2E/DX2                !
 ! D1    D(2,1,4,3)           -119.3864         estimate D2E/DX2                !
 ! D2    D(2,1,5,3)            119.3864         estimate D2E/DX2                !
 ! D3    D(2,1,5,4)           -119.3218         estimate D2E/DX2                !
 ! D4    D(3,1,5,4)            121.2918         estimate D2E/DX2                !
 --------------------------------------------------------------------------------
 Trust Radius=3.00D-01 FncErr=1.00D-07 GrdErr=1.00D-06 EigMax=2.50D+02 EigMin=1.00D-04
 Number of steps in this run=     24 maximum allowed number of steps=    100.
 GradGradGradGradGradGradGradGradGradGradGradGradGradGradGradGradGradGrad

                          Input orientation:                          
 ---------------------------------------------------------------------
 Center     Atomic      Atomic             Coordinates (Angstroms)
 Number     Number       Type             X           Y           Z
 ---------------------------------------------------------------------
      1          6           0       -0.177871    0.521946    0.000000
      2          1           0       -1.074607    1.130098    0.000000
      3          9           0        0.909938    1.320284    0.000000
      4         17           0       -0.177871   -0.474833    1.473045
      5         17           0       -0.177871   -0.474833   -1.473045
 ---------------------------------------------------------------------
                    Distance matrix (angstroms):
                    1          2          3          4          5
     1  C    0.000000
     2  H    1.083506   0.000000
     3  F    1.349323   1.993637   0.000000
     4  Cl   1.778603   2.355801   2.564300   0.000000
     5  Cl   1.778603   2.355801   2.564300   2.946090   0.000000
 Stoichiometry    CHCl2F
 Framework group  CS[SG(CHF),X(Cl2)]
 Deg. of freedom     6
 Full point group                 CS      NOp   2
 Largest Abelian subgroup         CS      NOp   2
 Largest concise Abelian subgroup CS      NOp   2
                         Standard orientation:                         
 ---------------------------------------------------------------------
 Center     Atomic      Atomic             Coordinates (Angstroms)
 Number     Number       Type             X           Y           Z
 ---------------------------------------------------------------------
      1          6           0       -0.177871    0.521946   -0.000000
      2          1           0       -1.074607    1.130098   -0.000000
      3          9           0        0.909938    1.320284    0.000000
      4         17           0       -0.177871   -0.474833    1.473045
      5         17           0       -0.177871   -0.474833   -1.473045
 ---------------------------------------------------------------------
 Rotational constants (GHZ):           6.9327514           3.2229511           2.3013479
 General basis read from cards:  (5D, 7F)
 There are    98 symmetry adapted cartesian basis functions of A'  symmetry.
 There are    65 symmetry adapted cartesian basis functions of A"  symmetry.
 There are    84 symmetry adapted basis functions of A'  symmetry.
 There are    58 symmetry adapted basis functions of A"  symmetry.
   142 basis functions,   260 primitive gaussians,   163 cartesian basis functions
    25 alpha electrons       25 beta electrons
       nuclear repulsion energy       209.8865711864 Hartrees.
 NAtoms=    5 NActive=    5 NUniq=    4 SFac= 1.56D+00 NAtFMM=   60 NAOKFM=F Big=F
 Integral buffers will be    131072 words long.
 Raffenetti 2 integral format.
 Two-electron integral symmetry is turned on.
 One-electron integrals computed using PRISM.
 NBasis=   142 RedAO= T EigKep=  2.82D-03  NBF=    84    58
 NBsUse=   142 1.00D-06 EigRej= -1.00D+00 NBFU=    84    58
 ExpMin= 7.42D-02 ExpMax= 1.54D+05 ExpMxC= 1.49D+03 IAcc=3 IRadAn=         5 AccDes= 0.00D+00
 Harris functional with IExCor=  402 and IRadAn=       5 diagonalized for initial guess.
 HarFok:  IExCor=  402 AccDes= 0.00D+00 IRadAn=         5 IDoV= 1 UseB2=F ITyADJ=14
 ICtDFT=  3500011 ScaDFX=  1.000000  1.000000  1.000000  1.000000
 FoFCou: FMM=F IPFlag=           0 FMFlag=      100000 FMFlg1=           0
         NFxFlg=           0 DoJE=T BraDBF=F KetDBF=T FulRan=T
         wScrn=  0.000000 ICntrl=       500 IOpCl=  0 I1Cent=   200000004 NGrid=           0
         NMat0=    1 NMatS0=      1 NMatT0=    0 NMatD0=    1 NMtDS0=    0 NMtDT0=    0
 Petite list used in FoFCou.
 Initial guess orbital symmetries:
       Occupied  (A') (A") (A') (A') (A') (A") (A') (A") (A') (A")
                 (A') (A") (A') (A') (A") (A') (A') (A") (A') (A')
                 (A") (A') (A') (A") (A")
       Virtual   (A') (A") (A') (A') (A") (A') (A') (A') (A") (A')
                 (A') (A') (A") (A") (A') (A") (A') (A') (A') (A")
                 (A') (A") (A") (A') (A") (A") (A') (A') (A") (A')
                 (A') (A") (A') (A') (A') (A") (A') (A') (A") (A')
                 (A") (A') (A') (A") (A') (A") (A') (A") (A") (A')
                 (A") (A') (A") (A') (A") (A') (A") (A") (A') (A')
                 (A') (A") (A') (A') (A") (A') (A') (A") (A') (A")
                 (A') (A') (A") (A") (A') (A') (A") (A") (A') (A")
                 (A') (A') (A') (A') (A") (A') (A") (A') (A") (A')
                 (A") (A') (A') (A") (A') (A") (A') (A") (A') (A")
                 (A") (A') (A') (A') (A") (A") (A') (A') (A') (A')
                 (A") (A') (A") (A') (A') (A") (A')
 The electronic state of the initial guess is 1-A'.
 Keep R1 ints in memory in symmetry-blocked form, NReq=77387533.
 Requested convergence on RMS density matrix=1.00D-08 within 128 cycles.
 Requested convergence on MAX density matrix=1.00D-06.
 Requested convergence on             energy=1.00D-06.
 No special actions if energy rises.
 Integral accuracy reduced to 1.0D-05 until final iterations.
 Initial convergence to 1.0D-05 achieved.  Increase integral accuracy.
 SCF Done:  E(RB3LYP) =  -1059.07392649     A.U. after   12 cycles
            NFock= 12  Conv=0.66D-08     -V/T= 2.0011

 **********************************************************************

            Population analysis using the SCF Density.

 **********************************************************************

 Orbital symmetries:
       Occupied  (A") (A') (A') (A') (A") (A') (A") (A') (A") (A')
                 (A") (A') (A') (A') (A") (A') (A') (A') (A") (A')
                 (A") (A') (A") (A') (A")
       Virtual   (A') (A") (A') (A') (A") (A') (A') (A') (A") (A')
                 (A') (A') (A") (A") (A') (A") (A') (A') (A') (A")
                 (A') (A") (A") (A') (A") (A") (A') (A') (A") (A')
                 (A') (A") (A') (A') (A') (A") (A') (A') (A") (A')
                 (A') (A") (A') (A") (A') (A") (A') (A") (A") (A')
                 (A") (A") (A') (A') (A") (A') (A") (A') (A") (A')
                 (A') (A") (A') (A') (A") (A') (A') (A") (A') (A")
                 (A') (A') (A") (A") (A') (A') (A") (A") (A') (A")
                 (A') (A') (A') (A') (A") (A') (A") (A') (A") (A')
                 (A") (A') (A') (A") (A') (A") (A") (A') (A') (A")
                 (A") (A') (A') (A') (A") (A") (A') (A') (A') (A')
                 (A") (A') (A") (A') (A') (A") (A')
 The electronic state is 1-A'.
 Alpha  occ. eigenvalues -- -101.53841-101.53841 -24.72504 -10.39000  -9.48402
 Alpha  occ. eigenvalues --   -9.48402  -7.24585  -7.24585  -7.23663  -7.23663
 Alpha  occ. eigenvalues --   -7.23643  -7.23643  -1.27060  -0.91591  -0.85209
 Alpha  occ. eigenvalues --   -0.68948  -0.57756  -0.53731  -0.53135  -0.42564
 Alpha  occ. eigenvalues --   -0.41946  -0.36441  -0.34413  -0.34139  -0.32926
 Alpha virt. eigenvalues --   -0.03204   0.01420   0.02196   0.06055   0.12995
 Alpha virt. eigenvalues --    0.13531   0.20848   0.23470   0.26889   0.28584
 Alpha virt. eigenvalues --    0.31236   0.32515   0.32556   0.34208   0.34603
 Alpha virt. eigenvalues --    0.40872   0.42022   0.42607   0.52199   0.53561
 Alpha virt. eigenvalues --    0.54660   0.54676   0.59419   0.62419   0.64170
 Alpha virt. eigenvalues --    0.67421   0.69673   0.72608   0.85926   0.87662
 Alpha virt. eigenvalues --    0.89752   0.96486   1.00117   1.04087   1.10872
 Alpha virt. eigenvalues --    1.12541   1.20045   1.31266   1.33512   1.54359
 Alpha virt. eigenvalues --    1.72729   1.73409   1.84579   1.90306   1.93451
 Alpha virt. eigenvalues --    1.99186   2.00767   2.07751   2.08642   2.09144
 Alpha virt. eigenvalues --    2.09709   2.10040   2.10344   2.11259   2.12104
 Alpha virt. eigenvalues --    2.16023   2.17055   2.18388   2.18827   2.21374
 Alpha virt. eigenvalues --    2.28312   2.28354   2.34332   2.40539   2.47926
 Alpha virt. eigenvalues --    2.48110   2.51501   2.58778   2.64764   2.91896
 Alpha virt. eigenvalues --    2.95898   3.24202   3.25879   3.30914   3.34435
 Alpha virt. eigenvalues --    3.45985   3.47175   3.48685   3.51311   3.55034
 Alpha virt. eigenvalues --    3.56607   3.66996   3.69245   3.72197   3.76041
 Alpha virt. eigenvalues --    3.92388   3.97838   4.04439   4.09390   4.20449
 Alpha virt. eigenvalues --    4.23003   4.27643   4.31922   4.32803   4.42068
 Alpha virt. eigenvalues --    4.44320   4.56709   4.57891   4.71623   4.79472
 Alpha virt. eigenvalues --    4.95471   5.03415   5.33534   5.41930   5.44745
 Alpha virt. eigenvalues --    5.49997   5.50850   5.68239   5.73634   6.04825
 Alpha virt. eigenvalues --    7.53362   7.54675   8.01326   8.04342   8.11540
 Alpha virt. eigenvalues --   32.72630  32.78240
          Condensed to atoms (all electrons):
               1          2          3          4          5
     1  C    4.321888   0.442965   0.248839   0.338803   0.338803
     2  H    0.442965   0.631644  -0.047188  -0.055470  -0.055470
     3  F    0.248839  -0.047188   9.147009  -0.058920  -0.058920
     4  Cl   0.338803  -0.055470  -0.058920  16.930654  -0.074368
     5  Cl   0.338803  -0.055470  -0.058920  -0.074368  16.930654
 Mulliken charges:
               1
     1  C    0.308701
     2  H    0.083519
     3  F   -0.230820
     4  Cl  -0.080699
     5  Cl  -0.080699
 Sum of Mulliken charges =  -0.00000
 Mulliken charges with hydrogens summed into heavy atoms:
               1
     1  C    0.392219
     3  F   -0.230820
     4  Cl  -0.080699
     5  Cl  -0.080699
 Electronic spatial extent (au):  <R**2>=            473.5600
 Charge=              0.0000 electrons
 Dipole moment (field-independent basis, Debye):
    X=             -1.2159    Y=              0.5636    Z=              0.0000  Tot=              1.3402
 Quadrupole moment (field-independent basis, Debye-Ang):
   XX=            -36.3181   YY=            -36.0335   ZZ=            -36.6664
   XY=             -2.0551   XZ=              0.0000   YZ=             -0.0000
 Traceless Quadrupole moment (field-independent basis, Debye-Ang):
   XX=              0.0213   YY=              0.3058   ZZ=             -0.3271
   XY=             -2.0551   XZ=              0.0000   YZ=             -0.0000
 Octapole moment (field-independent basis, Debye-Ang**2):
  XXX=              3.7447  YYY=              5.5458  ZZZ=             -0.0000  XYY=             -0.9031
  XXY=              2.8591  XXZ=              0.0000  XZZ=              2.1199  YZZ=             -1.6785
  YYZ=             -0.0000  XYZ=             -0.0000
 Hexadecapole moment (field-independent basis, Debye-Ang**3):
 XXXX=            -72.5144 YYYY=           -137.1529 ZZZZ=           -351.2426 XXXY=            -22.3447
 XXXZ=             -0.0000 YYYX=            -23.2951 YYYZ=              0.0000 ZZZX=             -0.0000
 ZZZY=             -0.0000 XXYY=            -34.5840 XXZZ=            -75.2691 YYZZ=            -78.6522
 XXYZ=              0.0000 YYXZ=             -0.0000 ZZXY=             -6.0957
 N-N= 2.098865711864D+02 E-N=-2.937621758452D+03  KE= 1.057864899643D+03
 Symmetry A'   KE= 5.895477729601D+02
 Symmetry A"   KE= 4.683171266834D+02
 Calling FoFJK, ICntrl=      2127 FMM=F ISym2X=1 I1Cent= 0 IOpClX= 0 NMat=1 NMatS=1 NMatT=0.
 ***** Axes restored to original set *****
 -------------------------------------------------------------------
 Center     Atomic                   Forces (Hartrees/Bohr)
 Number     Number              X              Y              Z
 -------------------------------------------------------------------
      1        6           0.000003431    0.000067601   -0.000000000
      2        1          -0.000050563   -0.000006500    0.000000000
      3        9          -0.000013200   -0.000102939    0.000000000
      4       17           0.000030166    0.000020919   -0.000053653
      5       17           0.000030166    0.000020919    0.000053653
 -------------------------------------------------------------------
 Cartesian Forces:  Max     0.000102939 RMS     0.000041955

 GradGradGradGradGradGradGradGradGradGradGradGradGradGradGradGradGradGrad
 Berny optimization.
 FormGI is forming the generalized inverse of G from B-inverse, IUseBI=4.
 Internal  Forces:  Max     0.000071659 RMS     0.000041458
 Search for a local minimum.
 Step number   1 out of a maximum of   24
 All quantities printed in internal units (Hartrees-Bohrs-Radians)
 Mixed Optimization -- En-DIIS/RFO-DIIS
 Second derivative matrix not updated -- first step.
 The second derivative matrix:
                          R1        R2        R3        R4        A1
           R1           0.35574
           R2           0.00000   0.55166
           R3           0.00000   0.00000   0.27877
           R4           0.00000   0.00000   0.00000   0.27877
           A1           0.00000   0.00000   0.00000   0.00000   0.16000
           A2           0.00000   0.00000   0.00000   0.00000   0.00000
           A3           0.00000   0.00000   0.00000   0.00000   0.00000
           A4           0.00000   0.00000   0.00000   0.00000   0.00000
           A5           0.00000   0.00000   0.00000   0.00000   0.00000
           A6           0.00000   0.00000   0.00000   0.00000   0.00000
           D1           0.00000   0.00000   0.00000   0.00000   0.00000
           D2           0.00000   0.00000   0.00000   0.00000   0.00000
           D3           0.00000   0.00000   0.00000   0.00000   0.00000
           D4           0.00000   0.00000   0.00000   0.00000   0.00000
                          A2        A3        A4        A5        A6
           A2           0.16000
           A3           0.00000   0.16000
           A4           0.00000   0.00000   0.25000
           A5           0.00000   0.00000   0.00000   0.25000
           A6           0.00000   0.00000   0.00000   0.00000   0.25000
           D1           0.00000   0.00000   0.00000   0.00000   0.00000
           D2           0.00000   0.00000   0.00000   0.00000   0.00000
           D3           0.00000   0.00000   0.00000   0.00000   0.00000
           D4           0.00000   0.00000   0.00000   0.00000   0.00000
                          D1        D2        D3        D4
           D1           0.00230
           D2           0.00000   0.00230
           D3           0.00000   0.00000   0.00230
           D4           0.00000   0.00000   0.00000   0.00230
 ITU=  0
     Eigenvalues ---    0.05436   0.06875   0.10438   0.21422   0.23590
     Eigenvalues ---    0.27877   0.27877   0.35574   0.55166
 RFO step:  Lambda=-1.96361904D-07 EMin= 5.43625745D-02
 Linear search not attempted -- first point.
 Iteration  1 RMS(Cart)=  0.00037280 RMS(Int)=  0.00000013
 Iteration  2 RMS(Cart)=  0.00000009 RMS(Int)=  0.00000009
 ClnCor:  largest displacement from symmetrization is 4.37D-06 for atom     5.
 Variable       Old X    -DE/DX   Delta X   Delta X   Delta X     New X
                                 (Linear)    (Quad)   (Total)
    R1        2.04753   0.00004   0.00000   0.00011   0.00011   2.04764
    R2        2.54985  -0.00007   0.00000  -0.00013  -0.00013   2.54972
    R3        3.36107  -0.00006   0.00000  -0.00020  -0.00020   3.36087
    R4        3.36107  -0.00006   0.00000  -0.00020  -0.00020   3.36087
    A1        1.91254   0.00004   0.00000   0.00062   0.00062   1.91317
    A2        1.89079   0.00001   0.00000   0.00020   0.00020   1.89098
    A3        1.89079   0.00003   0.00000   0.00020   0.00020   1.89098
    A4        1.90878  -0.00001   0.00000  -0.00035  -0.00035   1.90843
    A5        1.90878  -0.00004   0.00000  -0.00035  -0.00035   1.90843
    A6        1.95179  -0.00002   0.00000  -0.00029  -0.00029   1.95150
    D1       -2.08369  -0.00004   0.00000  -0.00067  -0.00067  -2.08435
    D2        2.08369   0.00004   0.00000   0.00067   0.00067   2.08435
    D3       -2.08256  -0.00002   0.00000  -0.00020  -0.00020  -2.08276
    D4        2.11694  -0.00006   0.00000  -0.00087  -0.00087   2.11608
         Item               Value     Threshold  Converged?
 Maximum Force            0.000072     0.000450     YES
 RMS     Force            0.000041     0.000300     YES
 Maximum Displacement     0.000708     0.001800     YES
 RMS     Displacement     0.000372     0.001200     YES
 Predicted change in Energy=-9.813392D-08
 Optimization completed.
    -- Stationary point found.
                           ----------------------------
                           !   Optimized Parameters   !
                           ! (Angstroms and Degrees)  !
 --------------------------                            --------------------------
 ! Name  Definition              Value          Derivative Info.                !
 --------------------------------------------------------------------------------
 ! R1    R(1,2)                  1.0835         -DE/DX =    0.0                 !
 ! R2    R(1,3)                  1.3493         -DE/DX =   -0.0001              !
 ! R3    R(1,4)                  1.7786         -DE/DX =   -0.0001              !
 ! R4    R(1,5)                  1.7786         -DE/DX =   -0.0001              !
 ! A1    A(2,1,3)              109.5807         -DE/DX =    0.0                 !
 ! A2    A(2,1,4)              108.3341         -DE/DX =    0.0                 !
 ! A3    A(2,1,5)              108.3341         -DE/DX =    0.0                 !
 ! A4    A(3,1,4)              109.3648         -DE/DX =    0.0                 !
 ! A5    A(3,1,5)              109.3648         -DE/DX =    0.0                 !
 ! A6    A(4,1,5)              111.8292         -DE/DX =    0.0                 !
 ! D1    D(2,1,4,3)           -119.3864         -DE/DX =    0.0                 !
 ! D2    D(2,1,5,3)            119.3864         -DE/DX =    0.0                 !
 ! D3    D(2,1,5,4)           -119.3218         -DE/DX =    0.0                 !
 ! D4    D(3,1,5,4)            121.2918         -DE/DX =   -0.0001              !
 --------------------------------------------------------------------------------
 GradGradGradGradGradGradGradGradGradGradGradGradGradGradGradGradGradGrad

                          Input orientation:                          
 ---------------------------------------------------------------------
 Center     Atomic      Atomic             Coordinates (Angstroms)
 Number     Number       Type             X           Y           Z
 ---------------------------------------------------------------------
      1          6           0       -0.177871    0.521946    0.000000
      2          1           0       -1.074607    1.130098   -0.000000
      3          9           0        0.909938    1.320284    0.000000
      4         17           0       -0.177871   -0.474833    1.473045
      5         17           0       -0.177871   -0.474833   -1.473045
 ---------------------------------------------------------------------
                    Distance matrix (angstroms):
                    1          2          3          4          5
     1  C    0.000000
     2  H    1.083506   0.000000
     3  F    1.349323   1.993637   0.000000
     4  Cl   1.778603   2.355801   2.564300   0.000000
     5  Cl   1.778603   2.355801   2.564300   2.946090   0.000000
 Stoichiometry    CHCl2F
 Framework group  CS[SG(CHF),X(Cl2)]
 Deg. of freedom     6
 Full point group                 CS      NOp   2
 Largest Abelian subgroup         CS      NOp   2
 Largest concise Abelian subgroup CS      NOp   2
                         Standard orientation:                         
 ---------------------------------------------------------------------
 Center     Atomic      Atomic             Coordinates (Angstroms)
 Number     Number       Type             X           Y           Z
 ---------------------------------------------------------------------
      1          6           0       -0.177871    0.521946   -0.000000
      2          1           0       -1.074607    1.130098   -0.000000
      3          9           0        0.909938    1.320284   -0.000000
      4         17           0       -0.177871   -0.474833    1.473045
      5         17           0       -0.177871   -0.474833   -1.473045
 ---------------------------------------------------------------------
 Rotational constants (GHZ):           6.9327514           3.2229511           2.3013479
 1\1\GINC-GAMBA\FOpt\RB3LYP\Gen\C1H1Cl2F1\IRIKURA\28-Sep-2023\0\\# b3ly
 p/gen opt freq CPHF(Grid=OneStep)\\chlorodifluoromethane, B3LYP/pcseg-
 2\\0,1\C,-0.177871,0.521946,0.\H,-1.074607,1.130098,0.\F,0.909938,1.32
 0284,0.\Cl,-0.177871,-0.474833,1.473045\Cl,-0.177871,-0.474833,-1.4730
 45\\Version=ES64L-G16RevB.01\State=1-A'\HF=-1059.0739265\RMSD=6.603e-0
 9\RMSF=4.196e-05\Dipole=-0.4783768,0.2217188,0.\Quadrupole=0.0158207,0
 .2273625,-0.2431833,-1.5279076,0.,0.\PG=CS [SG(C1H1F1),X(Cl2)]\\@


 THERE'S NOTHING WRONG WITH FOLLOWING A TRAIN OF THOUGHT...
 AS LONG AS IT ULTIMATELY PULLS INTO THE STATION.
 Job cpu time:       0 days  0 hours  0 minutes 34.6 seconds.
 Elapsed time:       0 days  0 hours  0 minutes  8.8 seconds.
 File lengths (MBytes):  RWF=     14 Int=      0 D2E=      0 Chk=      3 Scr=      1
 Normal termination of Gaussian 16 at Thu Sep 28 15:39:28 2023.
 Link1:  Proceeding to internal job step number  2.
 ------------------------------------------------------------------
 #N Geom=AllCheck Guess=TCheck SCRF=Check GenChk RB3LYP/ChkBas Freq
 ------------------------------------------------------------------
 1/10=4,29=7,30=1,38=1,40=1/1,3;
 2/12=2,40=1/2;
 3/5=7,6=2,11=2,14=-4,25=1,30=1,67=1,70=2,71=2,74=-5,82=7,116=1,140=1/1,2,3;
 4/5=101/1;
 5/5=2,38=6,98=1/2;
 8/6=4,10=90,11=11/1;
 11/6=1,8=1,9=11,15=111,16=1/1,2,10;
 10/6=1,60=-420/2;
 6/7=2,8=2,9=2,10=2,28=1/1;
 7/8=1,10=1,25=1/1,2,3,16;
 1/10=4,30=1/3;
 99//99;
 Structure from the checkpoint file:  "chfcl2.chk"
 ------------------------------------
 chlorodifluoromethane, B3LYP/pcseg-2
 ------------------------------------
 Charge =  0 Multiplicity = 1
 Redundant internal coordinates found in file.  (old form).
 C,0,-0.177871,0.521946,0.
 H,0,-1.074607,1.130098,0.
 F,0,0.909938,1.320284,0.
 Cl,0,-0.177871,-0.474833,1.473045
 Cl,0,-0.177871,-0.474833,-1.473045
 Recover connectivity data from disk.

 GradGradGradGradGradGradGradGradGradGradGradGradGradGradGradGradGradGrad
 Berny optimization.
 Initialization pass.
                           ----------------------------
                           !    Initial Parameters    !
                           ! (Angstroms and Degrees)  !
 --------------------------                            --------------------------
 ! Name  Definition              Value          Derivative Info.                !
 --------------------------------------------------------------------------------
 ! R1    R(1,2)                  1.0835         calculate D2E/DX2 analytically  !
 ! R2    R(1,3)                  1.3493         calculate D2E/DX2 analytically  !
 ! R3    R(1,4)                  1.7786         calculate D2E/DX2 analytically  !
 ! R4    R(1,5)                  1.7786         calculate D2E/DX2 analytically  !
 ! A1    A(2,1,3)              109.5807         calculate D2E/DX2 analytically  !
 ! A2    A(2,1,4)              108.3341         calculate D2E/DX2 analytically  !
 ! A3    A(2,1,5)              108.3341         calculate D2E/DX2 analytically  !
 ! A4    A(3,1,4)              109.3648         calculate D2E/DX2 analytically  !
 ! A5    A(3,1,5)              109.3648         calculate D2E/DX2 analytically  !
 ! A6    A(4,1,5)              111.8292         calculate D2E/DX2 analytically  !
 ! D1    D(2,1,4,3)           -119.3864         calculate D2E/DX2 analytically  !
 ! D2    D(2,1,5,3)            119.3864         calculate D2E/DX2 analytically  !
 ! D3    D(2,1,5,4)           -119.3218         calculate D2E/DX2 analytically  !
 ! D4    D(3,1,5,4)            121.2918         calculate D2E/DX2 analytically  !
 --------------------------------------------------------------------------------
 Trust Radius=3.00D-01 FncErr=1.00D-07 GrdErr=1.00D-07 EigMax=2.50D+02 EigMin=1.00D-04
 Number of steps in this run=      2 maximum allowed number of steps=      2.
 GradGradGradGradGradGradGradGradGradGradGradGradGradGradGradGradGradGrad

                          Input orientation:                          
 ---------------------------------------------------------------------
 Center     Atomic      Atomic             Coordinates (Angstroms)
 Number     Number       Type             X           Y           Z
 ---------------------------------------------------------------------
      1          6           0       -0.177871    0.521946   -0.000000
      2          1           0       -1.074607    1.130098   -0.000000
      3          9           0        0.909938    1.320284   -0.000000
      4         17           0       -0.177871   -0.474833    1.473045
      5         17           0       -0.177871   -0.474833   -1.473045
 ---------------------------------------------------------------------
                    Distance matrix (angstroms):
                    1          2          3          4          5
     1  C    0.000000
     2  H    1.083506   0.000000
     3  F    1.349323   1.993637   0.000000
     4  Cl   1.778603   2.355801   2.564300   0.000000
     5  Cl   1.778603   2.355801   2.564300   2.946090   0.000000
 Stoichiometry    CHCl2F
 Framework group  CS[SG(CHF),X(Cl2)]
 Deg. of freedom     6
 Full point group                 CS      NOp   2
 Largest Abelian subgroup         CS      NOp   2
 Largest concise Abelian subgroup CS      NOp   2
                         Standard orientation:                         
 ---------------------------------------------------------------------
 Center     Atomic      Atomic             Coordinates (Angstroms)
 Number     Number       Type             X           Y           Z
 ---------------------------------------------------------------------
      1          6           0       -0.177871    0.521946   -0.000000
      2          1           0       -1.074607    1.130098   -0.000000
      3          9           0        0.909938    1.320284   -0.000000
      4         17           0       -0.177871   -0.474833    1.473045
      5         17           0       -0.177871   -0.474833   -1.473045
 ---------------------------------------------------------------------
 Rotational constants (GHZ):           6.9327514           3.2229511           2.3013479
 Basis read from chk: "chfcl2.chk" (5D, 7F)
 There are    98 symmetry adapted cartesian basis functions of A'  symmetry.
 There are    65 symmetry adapted cartesian basis functions of A"  symmetry.
 There are    84 symmetry adapted basis functions of A'  symmetry.
 There are    58 symmetry adapted basis functions of A"  symmetry.
   142 basis functions,   260 primitive gaussians,   163 cartesian basis functions
    25 alpha electrons       25 beta electrons
       nuclear repulsion energy       209.8865711864 Hartrees.
 NAtoms=    5 NActive=    5 NUniq=    4 SFac= 1.56D+00 NAtFMM=   60 NAOKFM=F Big=F
 Integral buffers will be    131072 words long.
 Raffenetti 2 integral format.
 Two-electron integral symmetry is turned on.
 One-electron integrals computed using PRISM.
 NBasis=   142 RedAO= T EigKep=  2.82D-03  NBF=    84    58
 NBsUse=   142 1.00D-06 EigRej= -1.00D+00 NBFU=    84    58
 Initial guess from the checkpoint file:  "chfcl2.chk"
 B after Tr=     0.000000    0.000000    0.000000
         Rot=    1.000000   -0.000000   -0.000000    0.000000 Ang=   0.00 deg.
 Initial guess orbital symmetries:
       Occupied  (A") (A') (A') (A') (A") (A') (A") (A') (A") (A')
                 (A") (A') (A') (A') (A") (A') (A') (A') (A") (A')
                 (A") (A') (A") (A') (A")
       Virtual   (A') (A") (A') (A') (A") (A') (A') (A') (A") (A')
                 (A') (A') (A") (A") (A') (A") (A') (A') (A') (A")
                 (A') (A") (A") (A') (A") (A") (A') (A') (A") (A')
                 (A') (A") (A') (A') (A') (A") (A') (A') (A") (A')
                 (A') (A") (A') (A") (A') (A") (A') (A") (A") (A')
                 (A") (A") (A') (A') (A") (A') (A") (A') (A") (A')
                 (A') (A") (A') (A') (A") (A') (A') (A") (A') (A")
                 (A') (A') (A") (A") (A') (A') (A") (A") (A') (A")
                 (A') (A') (A') (A') (A") (A') (A") (A') (A") (A')
                 (A") (A') (A') (A") (A') (A") (A") (A') (A') (A")
                 (A") (A') (A') (A') (A") (A") (A') (A') (A') (A')
                 (A") (A') (A") (A') (A') (A") (A')
 Keep R1 ints in memory in symmetry-blocked form, NReq=77387533.
 Requested convergence on RMS density matrix=1.00D-08 within 128 cycles.
 Requested convergence on MAX density matrix=1.00D-06.
 Requested convergence on             energy=1.00D-06.
 No special actions if energy rises.
 SCF Done:  E(RB3LYP) =  -1059.07392649     A.U. after    1 cycles
            NFock=  1  Conv=0.14D-08     -V/T= 2.0011
 DoSCS=F DFT=T ScalE2(SS,OS)=  1.000000  1.000000
 Range of M.O.s used for correlation:     1   142
 NBasis=   142 NAE=    25 NBE=    25 NFC=     0 NFV=     0
 NROrb=    142 NOA=    25 NOB=    25 NVA=   117 NVB=   117
 Symmetrizing basis deriv contribution to polar:
 IMax=3 JMax=2 DiffMx= 0.00D+00
 G2DrvN: will do     6 centers at a time, making    1 passes.
 Calling FoFCou, ICntrl=  3107 FMM=F I1Cent=   0 AccDes= 0.00D+00.
 End of G2Drv F.D. properties file   721 does not exist.
 End of G2Drv F.D. properties file   722 does not exist.
 End of G2Drv F.D. properties file   788 does not exist.
          IDoAtm=11111
          Differentiating once with respect to electric field.
                with respect to dipole field.
          Differentiating once with respect to nuclear coordinates.
 Keep R1 ints in memory in symmetry-blocked form, NReq=77390793.
          There are    15 degrees of freedom in the 1st order CPHF.  IDoFFX=4 NUNeed=    15.
     15 vectors produced by pass  0 Test12= 1.95D-14 6.67D-09 XBig12= 3.73D+01 2.83D+00.
 AX will form    15 AO Fock derivatives at one time.
     15 vectors produced by pass  1 Test12= 1.95D-14 6.67D-09 XBig12= 5.33D+00 7.12D-01.
     15 vectors produced by pass  2 Test12= 1.95D-14 6.67D-09 XBig12= 1.56D-01 1.25D-01.
     15 vectors produced by pass  3 Test12= 1.95D-14 6.67D-09 XBig12= 1.40D-03 1.16D-02.
     15 vectors produced by pass  4 Test12= 1.95D-14 6.67D-09 XBig12= 5.04D-06 7.74D-04.
     15 vectors produced by pass  5 Test12= 1.95D-14 6.67D-09 XBig12= 1.61D-08 2.92D-05.
      7 vectors produced by pass  6 Test12= 1.95D-14 6.67D-09 XBig12= 6.75D-11 1.65D-06.
      3 vectors produced by pass  7 Test12= 1.95D-14 6.67D-09 XBig12= 1.82D-13 8.96D-08.
 InvSVY:  IOpt=1 It=  1 EMax= 3.55D-15
 Solved reduced A of dimension   100 with    15 vectors.
 Isotropic polarizability for W=    0.000000       35.95 Bohr**3.
 End of Minotr F.D. properties file   721 does not exist.
 End of Minotr F.D. properties file   722 does not exist.
 End of Minotr F.D. properties file   788 does not exist.

 **********************************************************************

            Population analysis using the SCF Density.

 **********************************************************************

 Orbital symmetries:
       Occupied  (A") (A') (A') (A') (A") (A') (A") (A') (A") (A')
                 (A") (A') (A') (A') (A") (A') (A') (A') (A") (A')
                 (A") (A') (A") (A') (A")
       Virtual   (A') (A") (A') (A') (A") (A') (A') (A') (A") (A')
                 (A') (A') (A") (A") (A') (A") (A') (A') (A') (A")
                 (A') (A") (A") (A') (A") (A") (A') (A') (A") (A')
                 (A') (A") (A') (A') (A') (A") (A') (A') (A") (A')
                 (A') (A") (A') (A") (A') (A") (A') (A") (A") (A')
                 (A") (A") (A') (A') (A") (A') (A") (A') (A") (A')
                 (A') (A") (A') (A') (A") (A') (A') (A") (A') (A")
                 (A') (A') (A") (A") (A') (A') (A") (A") (A') (A")
                 (A') (A') (A') (A') (A") (A') (A") (A') (A") (A')
                 (A") (A') (A') (A") (A') (A") (A") (A') (A') (A")
                 (A") (A') (A') (A') (A") (A") (A') (A') (A') (A')
                 (A") (A') (A") (A') (A') (A") (A')
 The electronic state is 1-A'.
 Alpha  occ. eigenvalues -- -101.53841-101.53841 -24.72504 -10.39000  -9.48402
 Alpha  occ. eigenvalues --   -9.48402  -7.24585  -7.24585  -7.23663  -7.23663
 Alpha  occ. eigenvalues --   -7.23643  -7.23643  -1.27060  -0.91591  -0.85209
 Alpha  occ. eigenvalues --   -0.68948  -0.57756  -0.53731  -0.53135  -0.42564
 Alpha  occ. eigenvalues --   -0.41946  -0.36441  -0.34413  -0.34139  -0.32926
 Alpha virt. eigenvalues --   -0.03204   0.01420   0.02196   0.06055   0.12995
 Alpha virt. eigenvalues --    0.13531   0.20848   0.23470   0.26889   0.28584
 Alpha virt. eigenvalues --    0.31236   0.32515   0.32556   0.34208   0.34603
 Alpha virt. eigenvalues --    0.40872   0.42022   0.42607   0.52199   0.53561
 Alpha virt. eigenvalues --    0.54660   0.54676   0.59419   0.62419   0.64170
 Alpha virt. eigenvalues --    0.67421   0.69673   0.72608   0.85926   0.87662
 Alpha virt. eigenvalues --    0.89752   0.96486   1.00117   1.04087   1.10872
 Alpha virt. eigenvalues --    1.12541   1.20045   1.31266   1.33512   1.54359
 Alpha virt. eigenvalues --    1.72729   1.73409   1.84579   1.90306   1.93451
 Alpha virt. eigenvalues --    1.99186   2.00767   2.07751   2.08642   2.09144
 Alpha virt. eigenvalues --    2.09709   2.10040   2.10344   2.11259   2.12104
 Alpha virt. eigenvalues --    2.16023   2.17055   2.18388   2.18827   2.21374
 Alpha virt. eigenvalues --    2.28312   2.28354   2.34332   2.40539   2.47926
 Alpha virt. eigenvalues --    2.48110   2.51501   2.58778   2.64764   2.91896
 Alpha virt. eigenvalues --    2.95898   3.24202   3.25879   3.30914   3.34435
 Alpha virt. eigenvalues --    3.45985   3.47175   3.48685   3.51311   3.55034
 Alpha virt. eigenvalues --    3.56607   3.66996   3.69245   3.72197   3.76041
 Alpha virt. eigenvalues --    3.92388   3.97838   4.04439   4.09390   4.20449
 Alpha virt. eigenvalues --    4.23003   4.27643   4.31922   4.32803   4.42068
 Alpha virt. eigenvalues --    4.44320   4.56709   4.57891   4.71623   4.79472
 Alpha virt. eigenvalues --    4.95471   5.03415   5.33534   5.41930   5.44745
 Alpha virt. eigenvalues --    5.49997   5.50850   5.68239   5.73634   6.04825
 Alpha virt. eigenvalues --    7.53362   7.54675   8.01326   8.04342   8.11540
 Alpha virt. eigenvalues --   32.72630  32.78240
          Condensed to atoms (all electrons):
               1          2          3          4          5
     1  C    4.321889   0.442965   0.248839   0.338803   0.338803
     2  H    0.442965   0.631644  -0.047188  -0.055470  -0.055470
     3  F    0.248839  -0.047188   9.147008  -0.058920  -0.058920
     4  Cl   0.338803  -0.055470  -0.058920  16.930654  -0.074368
     5  Cl   0.338803  -0.055470  -0.058920  -0.074368  16.930654
 Mulliken charges:
               1
     1  C    0.308700
     2  H    0.083519
     3  F   -0.230820
     4  Cl  -0.080699
     5  Cl  -0.080699
 Sum of Mulliken charges =   0.00000
 Mulliken charges with hydrogens summed into heavy atoms:
               1
     1  C    0.392219
     3  F   -0.230820
     4  Cl  -0.080699
     5  Cl  -0.080699
 APT charges:
               1
     1  C    1.275278
     2  H   -0.041817
     3  F   -0.560116
     4  Cl  -0.336673
     5  Cl  -0.336673
 Sum of APT charges =   0.00000
 APT charges with hydrogens summed into heavy atoms:
               1
     1  C    1.233462
     3  F   -0.560116
     4  Cl  -0.336673
     5  Cl  -0.336673
 Electronic spatial extent (au):  <R**2>=            473.5600
 Charge=             -0.0000 electrons
 Dipole moment (field-independent basis, Debye):
    X=             -1.2159    Y=              0.5636    Z=              0.0000  Tot=              1.3402
 Quadrupole moment (field-independent basis, Debye-Ang):
   XX=            -36.3181   YY=            -36.0335   ZZ=            -36.6664
   XY=             -2.0551   XZ=              0.0000   YZ=              0.0000
 Traceless Quadrupole moment (field-independent basis, Debye-Ang):
   XX=              0.0213   YY=              0.3058   ZZ=             -0.3271
   XY=             -2.0551   XZ=              0.0000   YZ=              0.0000
 Octapole moment (field-independent basis, Debye-Ang**2):
  XXX=              3.7447  YYY=              5.5458  ZZZ=              0.0000  XYY=             -0.9031
  XXY=              2.8591  XXZ=              0.0000  XZZ=              2.1199  YZZ=             -1.6785
  YYZ=              0.0000  XYZ=             -0.0000
 Hexadecapole moment (field-independent basis, Debye-Ang**3):
 XXXX=            -72.5144 YYYY=           -137.1528 ZZZZ=           -351.2426 XXXY=            -22.3447
 XXXZ=              0.0000 YYYX=            -23.2951 YYYZ=              0.0000 ZZZX=              0.0000
 ZZZY=              0.0000 XXYY=            -34.5840 XXZZ=            -75.2691 YYZZ=            -78.6522
 XXYZ=             -0.0000 YYXZ=             -0.0000 ZZXY=             -6.0957
 N-N= 2.098865711864D+02 E-N=-2.937621763399D+03  KE= 1.057864901356D+03
 Symmetry A'   KE= 5.895477736957D+02
 Symmetry A"   KE= 4.683171276605D+02
  Exact polarizability:  27.278   1.173  33.059   0.000  -0.000  47.511
 Approx polarizability:  40.121   2.155  50.356   0.000   0.000  68.441
 Calling FoFJK, ICntrl=    100127 FMM=F ISym2X=1 I1Cent= 0 IOpClX= 0 NMat=1 NMatS=1 NMatT=0.
 Full mass-weighted force constant matrix:
 Low frequencies ---   -0.0073   -0.0058   -0.0050    1.8844    5.7303    7.5400
 Low frequencies ---  271.3195  361.9121  451.3818
 Diagonal vibrational polarizability:
        2.2965286       5.4940148      13.0839061
 Harmonic frequencies (cm**-1), IR intensities (KM/Mole), Raman scattering
 activities (A**4/AMU), depolarization ratios for plane and unpolarized
 incident light, reduced masses (AMU), force constants (mDyne/A),
 and normal coordinates:
                      1                      2                      3
                     A'                     A"                     A'
 Frequencies --    271.3195               361.9121               451.3818
 Red. masses --     21.6142                20.1294                17.5505
 Frc consts  --      0.9375                 1.5534                 2.1068
 IR Inten    --      0.0296                 0.0316                 1.4025
  Atom  AN      X      Y      Z        X      Y      Z        X      Y      Z
     1   6    -0.11  -0.35  -0.00    -0.00  -0.00  -0.07     0.49   0.05  -0.00
     2   1    -0.18  -0.45   0.00    -0.00  -0.00  -0.39     0.38  -0.14  -0.00
     3   9    -0.15  -0.35  -0.00    -0.00  -0.00   0.78     0.17   0.59   0.00
     4  17     0.06   0.16   0.46     0.16   0.24  -0.19    -0.14  -0.17   0.24
     5  17     0.06   0.16  -0.46    -0.16  -0.24  -0.19    -0.14  -0.17  -0.24
                      4                      5                      6
                     A'                     A"                     A'
 Frequencies --    721.0383               766.0817              1076.3394
 Red. masses --      6.3973                 8.1352                11.4798
 Frc consts  --      1.9596                 2.8130                 7.8358
 IR Inten    --     47.3125               263.4467               211.4937
  Atom  AN      X      Y      Z        X      Y      Z        X      Y      Z
     1   6    -0.29   0.54  -0.00    -0.00   0.00   0.73     0.65   0.39  -0.00
     2   1    -0.18   0.74  -0.00    -0.00   0.00   0.65     0.44   0.06   0.00
     3   9     0.06  -0.06   0.00     0.00  -0.00  -0.10    -0.41  -0.26   0.00
     4  17     0.04  -0.09   0.09    -0.02   0.06  -0.11    -0.01   0.00  -0.01
     5  17     0.04  -0.09  -0.09     0.02  -0.06  -0.11    -0.01   0.00   0.01
                      7                      8                      9
                     A"                     A'                     A'
 Frequencies --   1250.5609              1332.9977              3151.0323
 Red. masses --      1.0945                 1.1133                 1.0886
 Frc consts  --      1.0085                 1.1655                 6.3681
 IR Inten    --     57.9491                14.9094                 2.5209
  Atom  AN      X      Y      Z        X      Y      Z        X      Y      Z
     1   6    -0.00   0.00  -0.08    -0.02  -0.08   0.00    -0.07   0.05   0.00
     2   1    -0.00  -0.00   1.00     0.58   0.81   0.00     0.83  -0.55  -0.00
     3   9     0.00   0.00   0.01    -0.04   0.01  -0.00     0.00  -0.00  -0.00
     4  17    -0.01   0.01  -0.00     0.00  -0.00   0.00     0.00  -0.00  -0.00
     5  17     0.01  -0.01  -0.00     0.00  -0.00  -0.00     0.00  -0.00   0.00

 -------------------
 - Thermochemistry -
 -------------------
 Temperature   298.150 Kelvin.  Pressure   1.00000 Atm.
 Atom     1 has atomic number  6 and mass  12.00000
 Atom     2 has atomic number  1 and mass   1.00783
 Atom     3 has atomic number  9 and mass  18.99840
 Atom     4 has atomic number 17 and mass  34.96885
 Atom     5 has atomic number 17 and mass  34.96885
 Molecular mass:   101.94393 amu.
 Principal axes and moments of inertia in atomic units:
                           1         2         3
     Eigenvalues --   260.32106 559.96542 784.21052
           X            0.00000   0.47903   0.87780
           Y            0.00000   0.87780  -0.47903
           Z            1.00000   0.00000  -0.00000
 This molecule is an asymmetric top.
 Rotational symmetry number  1.
 Rotational temperatures (Kelvin)      0.33272     0.15468     0.11045
 Rotational constants (GHZ):           6.93275     3.22295     2.30135
 Zero-point vibrational energy      56120.8 (Joules/Mol)
                                   13.41319 (Kcal/Mol)
 Warning -- explicit consideration of   3 degrees of freedom as
           vibrations may cause significant error
 Vibrational temperatures:    390.37   520.71   649.44  1037.41  1102.22
          (Kelvin)           1548.61  1799.28  1917.89  4533.63
 
 Zero-point correction=                           0.021375 (Hartree/Particle)
 Thermal correction to Energy=                    0.025520
 Thermal correction to Enthalpy=                  0.026464
 Thermal correction to Gibbs Free Energy=        -0.006867
 Sum of electronic and zero-point Energies=          -1059.052551
 Sum of electronic and thermal Energies=             -1059.048406
 Sum of electronic and thermal Enthalpies=           -1059.047462
 Sum of electronic and thermal Free Energies=        -1059.080794
 
                     E (Thermal)             CV                S
                      KCal/Mol        Cal/Mol-Kelvin    Cal/Mol-Kelvin
 Total                   16.014             12.702             70.152
 Electronic               0.000              0.000              0.000
 Translational            0.889              2.981             39.775
 Rotational               0.889              2.981             26.239
 Vibrational             14.237              6.740              4.138
 Vibration     1          0.675              1.726              1.588
 Vibration     2          0.736              1.551              1.114
 Vibration     3          0.810              1.358              0.792
                       Q            Log10(Q)             Ln(Q)
 Total Bot       0.144118D+04          3.158717          7.273215
 Total V=0       0.978712D+13         12.990655         29.912088
 Vib (Bot)       0.294323D-09         -9.531176        -21.946344
 Vib (Bot)    1  0.711821D+00         -0.147629         -0.339928
 Vib (Bot)    2  0.505804D+00         -0.296018         -0.681606
 Vib (Bot)    3  0.379489D+00         -0.420800         -0.968929
 Vib (V=0)       0.199877D+01          0.300762          0.692530
 Vib (V=0)    1  0.136988D+01          0.136682          0.314723
 Vib (V=0)    2  0.121122D+01          0.083224          0.191630
 Vib (V=0)    3  0.112770D+01          0.052195          0.120184
 Electronic      0.100000D+01          0.000000          0.000000
 Translational   0.404572D+08          7.606996         17.515756
 Rotational      0.121031D+06          5.082897         11.703803
 ***** Axes restored to original set *****
 -------------------------------------------------------------------
 Center     Atomic                   Forces (Hartrees/Bohr)
 Number     Number              X              Y              Z
 -------------------------------------------------------------------
      1        6           0.000003448    0.000067622    0.000000000
      2        1          -0.000050591   -0.000006489    0.000000000
      3        9          -0.000013180   -0.000102926    0.000000000
      4       17           0.000030162    0.000020896   -0.000053628
      5       17           0.000030162    0.000020896    0.000053628
 -------------------------------------------------------------------
 Cartesian Forces:  Max     0.000102926 RMS     0.000041951
 FormGI is forming the generalized inverse of G from B-inverse, IUseBI=4.

 GradGradGradGradGradGradGradGradGradGradGradGradGradGradGradGradGradGrad
 Berny optimization.
 Internal  Forces:  Max     0.000071636 RMS     0.000041451
 Search for a local minimum.
 Step number   1 out of a maximum of    2
 All quantities printed in internal units (Hartrees-Bohrs-Radians)
 Second derivative matrix not updated -- analytic derivatives used.
 The second derivative matrix:
                          R1        R2        R3        R4        A1
           R1           0.34954
           R2           0.01284   0.36814
           R3           0.00516   0.04124   0.19715
           R4           0.00516   0.04124   0.02972   0.19715
           A1           0.00202   0.01009  -0.00335  -0.00792   0.02715
           A2          -0.00020  -0.00233   0.01157  -0.01710  -0.00905
           A3          -0.00038  -0.01527  -0.01638   0.01303  -0.01208
           A4          -0.00031   0.00968   0.01279  -0.01806  -0.01061
           A5          -0.00074   0.01789  -0.01701   0.01530  -0.02347
           A6          -0.00030  -0.01999   0.01215   0.01434   0.02880
           D1          -0.00214  -0.01640  -0.01017   0.03009  -0.02131
           D2           0.00178   0.01351  -0.02354   0.00698   0.01209
           D3           0.00068   0.02483  -0.01107   0.00404   0.00155
           D4          -0.00110   0.01132   0.01247  -0.00294  -0.01054
                          A2        A3        A4        A5        A6
           A2           0.04741
           A3          -0.02239   0.09155
           A4           0.00263   0.03157   0.07750
           A5           0.02705  -0.04886  -0.04928   0.14026
           A6          -0.04556  -0.03894  -0.05160  -0.04716   0.15410
           D1          -0.01856   0.00954  -0.03355   0.04087   0.02195
           D2          -0.00849   0.01118  -0.02269   0.02394  -0.01547
           D3          -0.01655  -0.00787   0.00760   0.02665  -0.01181
           D4          -0.00806  -0.01904   0.03028   0.00271   0.00367
                          D1        D2        D3        D4
           D1           0.05608
           D2           0.00354   0.03503
           D3           0.00350   0.01264   0.03267
           D4          -0.00004  -0.02239   0.02003   0.04242
 ITU=  0
     Eigenvalues ---    0.05245   0.07733   0.09172   0.18134   0.19108
     Eigenvalues ---    0.23529   0.24178   0.34554   0.39960
 Angle between quadratic step and forces=  35.66 degrees.
 Linear search not attempted -- first point.
 Iteration  1 RMS(Cart)=  0.00026224 RMS(Int)=  0.00000006
 Iteration  2 RMS(Cart)=  0.00000004 RMS(Int)=  0.00000004
 ClnCor:  largest displacement from symmetrization is 2.47D-08 for atom     5.
 Variable       Old X    -DE/DX   Delta X   Delta X   Delta X     New X
                                 (Linear)    (Quad)   (Total)
    R1        2.04753   0.00004   0.00000   0.00011   0.00011   2.04764
    R2        2.54985  -0.00007   0.00000  -0.00018  -0.00018   2.54967
    R3        3.36107  -0.00006   0.00000  -0.00015  -0.00014   3.36093
    R4        3.36107  -0.00006   0.00000  -0.00014  -0.00014   3.36093
    A1        1.91254   0.00004   0.00000   0.00048   0.00048   1.91302
    A2        1.89079   0.00001   0.00000   0.00010   0.00010   1.89088
    A3        1.89079   0.00003   0.00000   0.00010   0.00010   1.89088
    A4        1.90878  -0.00001   0.00000  -0.00023  -0.00023   1.90854
    A5        1.90878  -0.00004   0.00000  -0.00023  -0.00023   1.90854
    A6        1.95179  -0.00002   0.00000  -0.00018  -0.00018   1.95161
    D1       -2.08369  -0.00004   0.00000  -0.00050  -0.00050  -2.08418
    D2        2.08369   0.00004   0.00000   0.00050   0.00050   2.08418
    D3       -2.08256  -0.00002   0.00000  -0.00007  -0.00007  -2.08263
    D4        2.11694  -0.00006   0.00000  -0.00057  -0.00057   2.11637
         Item               Value     Threshold  Converged?
 Maximum Force            0.000072     0.000450     YES
 RMS     Force            0.000041     0.000300     YES
 Maximum Displacement     0.000542     0.001800     YES
 RMS     Displacement     0.000262     0.001200     YES
 Predicted change in Energy=-7.185391D-08
 Optimization completed.
    -- Stationary point found.
                           ----------------------------
                           !   Optimized Parameters   !
                           ! (Angstroms and Degrees)  !
 --------------------------                            --------------------------
 ! Name  Definition              Value          Derivative Info.                !
 --------------------------------------------------------------------------------
 ! R1    R(1,2)                  1.0835         -DE/DX =    0.0                 !
 ! R2    R(1,3)                  1.3493         -DE/DX =   -0.0001              !
 ! R3    R(1,4)                  1.7786         -DE/DX =   -0.0001              !
 ! R4    R(1,5)                  1.7786         -DE/DX =   -0.0001              !
 ! A1    A(2,1,3)              109.5807         -DE/DX =    0.0                 !
 ! A2    A(2,1,4)              108.3341         -DE/DX =    0.0                 !
 ! A3    A(2,1,5)              108.3341         -DE/DX =    0.0                 !
 ! A4    A(3,1,4)              109.3648         -DE/DX =    0.0                 !
 ! A5    A(3,1,5)              109.3648         -DE/DX =    0.0                 !
 ! A6    A(4,1,5)              111.8292         -DE/DX =    0.0                 !
 ! D1    D(2,1,4,3)           -119.3864         -DE/DX =    0.0                 !
 ! D2    D(2,1,5,3)            119.3864         -DE/DX =    0.0                 !
 ! D3    D(2,1,5,4)           -119.3218         -DE/DX =    0.0                 !
 ! D4    D(3,1,5,4)            121.2918         -DE/DX =   -0.0001              !
 --------------------------------------------------------------------------------
 GradGradGradGradGradGradGradGradGradGradGradGradGradGradGradGradGradGrad


 ----------------------------------------------------------------------

 Electric dipole moment (input orientation):
 (Debye = 10**-18 statcoulomb cm , SI units = C m)
                  (au)            (Debye)         (10**-30 SI)
   Tot        0.527261D+00      0.134016D+01      0.447030D+01
   x         -0.478377D+00     -0.121591D+01     -0.405585D+01
   y          0.221719D+00      0.563554D+00      0.187982D+01
   z          0.000000D+00      0.000000D+00      0.000000D+00

 Dipole polarizability, Alpha (input orientation).
 (esu units = cm**3 , SI units = C**2 m**2 J**-1)
 Alpha(0;0):
               (au)            (10**-24 esu)      (10**-40 SI)
   iso        0.359492D+02      0.532711D+01      0.592721D+01
   aniso      0.181647D+02      0.269173D+01      0.299496D+01
   xx         0.272778D+02      0.404215D+01      0.449750D+01
   yx         0.117339D+01      0.173878D+00      0.193465D+00
   yy         0.330589D+02      0.489882D+01      0.545068D+01
   zx         0.000000D+00      0.000000D+00      0.000000D+00
   zy         0.000000D+00      0.000000D+00      0.000000D+00
   zz         0.475108D+02      0.704037D+01      0.783347D+01

 ----------------------------------------------------------------------

 Dipole orientation:
     6          0.31687397          0.68368001          0.71972976
     1          0.45568400          0.98317335          2.74047457
     9          1.25596118          2.70983305         -0.51094355
    17          2.12378930         -2.03743359         -0.07236312
    17         -2.92735250          0.30368406         -0.07236312

 Electric dipole moment (dipole orientation):
 (Debye = 10**-18 statcoulomb cm , SI units = C m)
                  (au)            (Debye)         (10**-30 SI)
   Tot        0.527261D+00      0.134016D+01      0.447030D+01
   x          0.000000D+00      0.000000D+00      0.000000D+00
   y          0.000000D+00      0.000000D+00      0.000000D+00
   z          0.527261D+00      0.134016D+01      0.447030D+01

 Dipole polarizability, Alpha (dipole orientation).
 (esu units = cm**3 , SI units = C**2 m**2 J**-1)
 Alpha(0;0):
               (au)            (10**-24 esu)      (10**-40 SI)
   iso        0.359492D+02      0.532711D+01      0.592721D+01
   aniso      0.181647D+02      0.269173D+01      0.299496D+01
   xx         0.449328D+02      0.665835D+01      0.740842D+01
   yx        -0.556218D+01     -0.824230D+00     -0.917079D+00
   yy         0.355100D+02      0.526203D+01      0.585480D+01
   zx         0.608582D+00      0.901826D-01      0.100342D+00
   zy         0.131306D+01      0.194576D+00      0.216495D+00
   zz         0.274047D+02      0.406096D+01      0.451842D+01

 ----------------------------------------------------------------------
 1\1\GINC-GAMBA\Freq\RB3LYP\Gen\C1H1Cl2F1\IRIKURA\28-Sep-2023\0\\#N Geo
 m=AllCheck Guess=TCheck SCRF=Check GenChk RB3LYP/ChkBas Freq\\chlorodi
 fluoromethane, B3LYP/pcseg-2\\0,1\C,-0.177871,0.521946,0.\H,-1.074607,
 1.130098,0.\F,0.909938,1.320284,0.\Cl,-0.177871,-0.474833,1.473045\Cl,
 -0.177871,-0.474833,-1.473045\\Version=ES64L-G16RevB.01\State=1-A'\HF=
 -1059.0739265\RMSD=1.439e-09\RMSF=4.195e-05\ZeroPoint=0.0213753\Therma
 l=0.0255201\Dipole=-0.4783767,0.2217194,0.\DipoleDeriv=0.7974979,0.533
 233,0.,0.3914976,1.1965484,0.,0.,0.,1.8317889,0.0211792,-0.0095042,0.,
 0.040931,-0.034636,0.,0.,0.,-0.1119939,-0.6337627,-0.5374056,0.,-0.357
 9345,-0.673482,0.,0.,0.,-0.373103,-0.0924572,0.0068384,-0.0177573,-0.0
 37247,-0.2442152,0.291584,0.0525221,0.2142047,-0.673346,-0.0924572,0.0
 068384,0.0177573,-0.037247,-0.2442152,-0.291584,-0.0525221,-0.2142047,
 -0.673346\Polar=27.2777698,1.1733873,33.0589033,0.,0.,47.5107795\Quadr
 upole=0.0158205,0.2273624,-0.2431829,-1.5279072,0.,0.\PG=CS [SG(C1H1F1
 ),X(Cl2)]\NImag=0\\0.53974131,-0.08592350,0.38944910,0.,0.,0.26148147,
 -0.23634888,0.13511552,0.,0.26192380,0.14805503,-0.14361633,0.,-0.1323
 9107,0.14960252,0.,0.,-0.03753298,0.,0.,0.05574982,-0.22438428,-0.0735
 7159,0.,-0.03673264,-0.03274397,0.,0.26356826,-0.10236282,-0.11924555,
 0.,0.00012052,0.00964948,0.,0.14808051,0.15874649,0.,0.,-0.05844803,0.
 ,0.,0.00757621,0.,0.,0.06524587,-0.03950408,0.01218979,-0.01014323,0.0
 0557886,0.00854000,-0.01418191,-0.00122567,-0.02291910,0.02177332,0.02
 994933,0.02011565,-0.06329361,0.03242239,-0.00142249,-0.00781783,0.022
 28761,-0.02088247,-0.02457521,0.02408742,0.00320983,0.08563677,-0.0208
 2497,0.04360694,-0.08275023,0.00165352,0.00965780,-0.01289653,0.018904
 98,0.02251168,-0.00718702,0.00140914,-0.07728692,0.14360916,-0.0395040
 8,0.01218979,0.01014323,0.00557886,0.00854000,0.01418191,-0.00122567,-
 0.02291910,-0.02177332,0.00520156,-0.00102052,-0.00114267,0.02994933,0
 .02011565,-0.06329361,-0.03242239,-0.00142249,-0.00781783,-0.02228761,
 -0.02088247,-0.02457521,-0.02408742,-0.00102052,0.01004987,0.00151050,
 0.00320983,0.08563677,0.02082497,-0.04360694,-0.08275023,-0.00165352,-
 0.00965780,-0.01289653,-0.01890498,-0.02251168,-0.00718702,0.00114267,
 -0.00151050,-0.04077538,-0.00140914,0.07728692,0.14360916\\-0.00000345
 ,-0.00006762,0.,0.00005059,0.00000649,0.,0.00001318,0.00010293,0.,-0.0
 0003016,-0.00002090,0.00005363,-0.00003016,-0.00002090,-0.00005363\\\@


 CHARLIE BROWN -- WHICH DO YOU THINK LASTS LONGER IN LIFE, THE GOOD THINGS 
                  OR THE BAD THINGS?
 LINUS --         GOOD THINGS LAST EIGHT SECONDS ..
                  BAD THINGS LAST THREE WEEKS
 CHARLIE BROWN -- WHAT ABOUT IN BETWEEN?
 SNOOPY --        IN BETWEEN YOU SHOULD TAKE A NAP ...
 Job cpu time:       0 days  0 hours  4 minutes 12.8 seconds.
 Elapsed time:       0 days  0 hours  1 minutes  3.3 seconds.
 File lengths (MBytes):  RWF=     17 Int=      0 D2E=      0 Chk=      3 Scr=      1
 Normal termination of Gaussian 16 at Thu Sep 28 15:40:32 2023.
 AtFile(1): ccpvtz-f12.gbs
            -H     0
            S    3   1.00
                 82.6400000              0.0020060
[...]
 ! Name  Definition              Value                                          !
 --------------------------------------------------------------------------------
 ! R1    R(1,2)                  1.0835                                         !
 ! R2    R(1,3)                  1.3493                                         !
 ! R3    R(1,4)                  1.7786                                         !
 ! R4    R(1,5)                  1.7786                                         !
 ! A1    A(2,1,3)              109.5807                                         !
 ! A2    A(2,1,4)              108.3341                                         !
 ! A3    A(2,1,5)              108.3341                                         !
 ! A4    A(3,1,4)              109.3648                                         !
 ! A5    A(3,1,5)              109.3648                                         !
 ! A6    A(4,1,5)              111.8292                                         !
 ! D1    D(2,1,4,3)           -119.3864                                         !
 ! D2    D(2,1,5,3)            119.3864                                         !
 ! D3    D(2,1,5,4)           -119.3218                                         !
 ! D4    D(3,1,5,4)            121.2918                                         !
 --------------------------------------------------------------------------------
                          Input orientation:                          
 ---------------------------------------------------------------------
 Center     Atomic      Atomic             Coordinates (Angstroms)
 Number     Number       Type             X           Y           Z
 ---------------------------------------------------------------------
      1          6           0       -0.177871    0.521946    0.000000
      2          1           0       -1.074607    1.130098    0.000000
      3          9           0        0.909938    1.320284    0.000000
      4         17           0       -0.177871   -0.474833    1.473045
      5         17           0       -0.177871   -0.474833   -1.473045
 ---------------------------------------------------------------------
                    Distance matrix (angstroms):
                    1          2          3          4          5
     1  C    0.000000
     2  H    1.083506   0.000000
     3  F    1.349323   1.993637   0.000000
     4  Cl   1.778603   2.355801   2.564300   0.000000
     5  Cl   1.778603   2.355801   2.564300   2.946090   0.000000
 Stoichiometry    CHCl2F
 Framework group  CS[SG(CHF),X(Cl2)]
 Deg. of freedom     6
 Full point group                 CS      NOp   2
 Largest Abelian subgroup         CS      NOp   2
 Largest concise Abelian subgroup CS      NOp   2
                         Standard orientation:                         
 ---------------------------------------------------------------------
 Center     Atomic      Atomic             Coordinates (Angstroms)
 Number     Number       Type             X           Y           Z
 ---------------------------------------------------------------------
      1          6           0       -0.177871    0.521946   -0.000000
      2          1           0       -1.074607    1.130098   -0.000000
      3          9           0        0.909938    1.320284   -0.000000
      4         17           0       -0.177871   -0.474833    1.473045
      5         17           0       -0.177871   -0.474833   -1.473045
 ---------------------------------------------------------------------
 Rotational constants (GHZ):           6.9327514           3.2229511           2.3013479
 General basis read from cards:  (5D, 7F)
 There are   170 symmetry adapted cartesian basis functions of A'  symmetry.
 There are   117 symmetry adapted cartesian basis functions of A"  symmetry.
 There are   145 symmetry adapted basis functions of A'  symmetry.
 There are   103 symmetry adapted basis functions of A"  symmetry.
   248 basis functions,   435 primitive gaussians,   287 cartesian basis functions
    25 alpha electrons       25 beta electrons
       nuclear repulsion energy       209.8865711864 Hartrees.
 NAtoms=    5 NActive=    5 NUniq=    4 SFac= 1.56D+00 NAtFMM=   60 NAOKFM=F Big=F
 Integral buffers will be    131072 words long.
 Raffenetti 2 integral format.
 Two-electron integral symmetry is turned on.
 One-electron integrals computed using PRISM.
 NBasis=   248 RedAO= T EigKep=  1.42D-04  NBF=   145   103
 NBsUse=   248 1.00D-06 EigRej= -1.00D+00 NBFU=   145   103
 Initial guess from the checkpoint file:  "chfcl2.chk"
 B after Tr=    -0.000000   -0.000000    0.000000
         Rot=    1.000000    0.000000    0.000000   -0.000000 Ang=   0.00 deg.
 Initial guess orbital symmetries:
       Occupied  (A") (A') (A') (A') (A") (A') (A") (A') (A") (A')
                 (A") (A') (A') (A') (A") (A') (A') (A') (A") (A')
                 (A") (A') (A") (A') (A")
       Virtual   (A') (A") (A') (A') (A") (A') (A') (A') (A") (A')
                 (A') (A') (A") (A") (A') (A") (A') (A') (A') (A")
                 (A') (A") (A") (A') (A") (A") (A') (A') (A") (A')
                 (A') (A") (A') (A') (A') (A") (A') (A') (A") (A')
                 (A') (A") (A') (A") (A') (A") (A') (A") (A") (A')
                 (A") (A") (A') (A') (A") (A') (A") (A') (A") (A')
                 (A') (A") (A') (A') (A") (A') (A') (A") (A') (A")
                 (A') (A') (A") (A") (A') (A') (A") (A") (A') (A")
                 (A') (A') (A') (A') (A") (A') (A") (A') (A") (A')
                 (A") (A') (A') (A") (A') (A") (A") (A') (A') (A")
                 (A") (A') (A') (A') (A") (A") (A') (A') (A') (A')
                 (A") (A') (A") (A') (A') (A") (A') (A') (A') (A')
                 (A') (A') (A') (A') (A') (A') (A') (A') (A') (A')
                 (A') (A') (A') (A') (A') (A') (A') (A') (A') (A')
                 (A') (A') (A') (A') (A') (A') (A') (A') (A') (A')
                 (A') (A') (A') (A') (A') (A') (A') (A') (A') (A')
                 (A') (A') (A') (A') (A') (A') (A') (A') (A') (A')
                 (A') (A') (A') (A') (A') (A') (A') (A') (A") (A")
                 (A") (A") (A") (A") (A") (A") (A") (A") (A") (A")
                 (A") (A") (A") (A") (A") (A") (A") (A") (A") (A")
                 (A") (A") (A") (A") (A") (A") (A") (A") (A") (A")
                 (A") (A") (A") (A") (A") (A") (A") (A") (A") (A")
                 (A") (A") (A")
 Requested convergence on RMS density matrix=1.00D-08 within 128 cycles.
 Requested convergence on MAX density matrix=1.00D-06.
 Requested convergence on             energy=1.00D-06.
 No special actions if energy rises.
 SCF Done:  E(ROHF) =  -1056.98254296     A.U. after   11 cycles
            NFock= 11  Conv=0.80D-08     -V/T= 2.0002
 <Sx>= 0.0000 <Sy>= 0.0000 <Sz>= 0.0000 <S**2>=-0.0000 S=-0.0000
 <L.S>=  0.00000000000    
 Annihilation of the first spin contaminant:
 S**2 before annihilation     0.0000,   after     0.0000

 **********************************************************************

            Population analysis using the SCF Density.

 **********************************************************************

 Orbital symmetries:
       Occupied  (A") (A') (A') (A') (A") (A') (A") (A') (A") (A')
                 (A") (A') (A') (A') (A") (A') (A') (A") (A') (A')
                 (A") (A') (A") (A') (A")
       Virtual   (A') (A') (A") (A') (A') (A") (A') (A") (A') (A")
                 (A') (A") (A') (A') (A") (A') (A') (A') (A") (A')
                 (A") (A') (A') (A") (A') (A") (A') (A") (A') (A')
                 (A") (A') (A') (A") (A') (A") (A') (A") (A") (A')
                 (A") (A') (A') (A') (A") (A') (A') (A") (A') (A")
                 (A') (A') (A') (A") (A') (A') (A') (A") (A') (A")
                 (A") (A") (A") (A') (A") (A') (A") (A') (A") (A')
                 (A') (A') (A") (A") (A') (A") (A') (A") (A') (A')
                 (A") (A') (A") (A') (A') (A") (A') (A') (A') (A")
                 (A') (A") (A') (A') (A") (A') (A") (A') (A") (A')
                 (A") (A") (A') (A") (A') (A') (A') (A") (A') (A")
                 (A') (A') (A") (A') (A") (A') (A") (A') (A') (A")
                 (A') (A") (A') (A") (A') (A') (A") (A') (A") (A")
                 (A') (A') (A") (A') (A") (A') (A") (A") (A') (A')
                 (A') (A") (A') (A') (A") (A') (A") (A') (A") (A')
                 (A") (A') (A') (A") (A') (A") (A') (A') (A") (A')
                 (A") (A") (A') (A') (A') (A") (A') (A") (A") (A')
                 (A") (A') (A') (A") (A') (A') (A") (A') (A") (A')
                 (A') (A') (A") (A') (A") (A') (A") (A') (A') (A")
                 (A') (A') (A') (A") (A') (A") (A') (A") (A') (A')
                 (A') (A') (A") (A") (A') (A") (A') (A") (A') (A")
                 (A') (A") (A') (A') (A") (A") (A') (A') (A") (A")
                 (A') (A') (A')
 The electronic state is 1-A'.
 Alpha  occ. eigenvalues -- -104.86548-104.86548 -26.34194 -11.46304 -10.59080
 Alpha  occ. eigenvalues --  -10.59079  -8.05767  -8.05767  -8.05599  -8.05599
 Alpha  occ. eigenvalues --   -8.05594  -8.05594  -1.66653  -1.19739  -1.11670
 Alpha  occ. eigenvalues --   -0.91997  -0.77952  -0.74029  -0.72376  -0.60495
 Alpha  occ. eigenvalues --   -0.57188  -0.50523  -0.48391  -0.47703  -0.46292
 Alpha virt. eigenvalues --    0.05034   0.05902   0.06378   0.08047   0.10221
 Alpha virt. eigenvalues --    0.10299   0.11289   0.11742   0.11811   0.14424
 Alpha virt. eigenvalues --    0.16372   0.19652   0.21079   0.21708   0.24075
 Alpha virt. eigenvalues --    0.24755   0.25561   0.25821   0.25938   0.33038
 Alpha virt. eigenvalues --    0.36549   0.39335   0.41413   0.43971   0.44477
 Alpha virt. eigenvalues --    0.46171   0.46829   0.48260   0.48620   0.49509
 Alpha virt. eigenvalues --    0.51139   0.54291   0.55328   0.55824   0.57067
 Alpha virt. eigenvalues --    0.58393   0.66027   0.70589   0.74846   0.76459
 Alpha virt. eigenvalues --    0.76827   0.77768   0.80575   0.86559   0.89062
 Alpha virt. eigenvalues --    0.89569   0.91986   0.95653   0.95923   1.03733
 Alpha virt. eigenvalues --    1.05385   1.07228   1.12961   1.13037   1.17814
 Alpha virt. eigenvalues --    1.20771   1.21957   1.23440   1.25245   1.27192
 Alpha virt. eigenvalues --    1.31358   1.34141   1.38038   1.38384   1.40325
 Alpha virt. eigenvalues --    1.43729   1.44611   1.44920   1.47246   1.47820
 Alpha virt. eigenvalues --    1.54928   1.57555   1.57693   1.60713   1.62944
 Alpha virt. eigenvalues --    1.64231   1.66096   1.68023   1.68904   1.71365
 Alpha virt. eigenvalues --    1.74154   1.74315   1.75158   1.75871   1.79093
 Alpha virt. eigenvalues --    1.83025   1.84033   1.90320   2.01402   2.03797
 Alpha virt. eigenvalues --    2.07934   2.10189   2.10508   2.18777   2.19056
 Alpha virt. eigenvalues --    2.21616   2.23788   2.26713   2.29397   2.32303
 Alpha virt. eigenvalues --    2.32522   2.37703   2.39193   2.52158   2.53206
 Alpha virt. eigenvalues --    2.61238   2.64337   2.75157   2.80691   2.91092
 Alpha virt. eigenvalues --    3.03668   3.06011   3.06325   3.14910   3.29950
 Alpha virt. eigenvalues --    3.32044   3.43372   3.43487   3.46884   3.48293
 Alpha virt. eigenvalues --    3.49248   3.51039   3.53147   3.54682   3.57256
 Alpha virt. eigenvalues --    3.57975   3.58078   3.62008   3.63989   3.67363
 Alpha virt. eigenvalues --    3.69397   3.71706   3.73160   3.78824   3.79786
 Alpha virt. eigenvalues --    3.99357   4.06563   4.06928   4.14141   4.28240
 Alpha virt. eigenvalues --    4.42760   4.55248   4.58741   4.74451   4.80743
 Alpha virt. eigenvalues --    4.83029   4.85642   4.88767   4.90167   4.95108
 Alpha virt. eigenvalues --    4.96781   5.00380   5.03014   5.04943   5.06932
 Alpha virt. eigenvalues --    5.12830   5.19752   5.25254   5.31727   5.39037
 Alpha virt. eigenvalues --    5.44012   5.55102   5.71771   5.96971   6.02452
 Alpha virt. eigenvalues --    6.05038   6.06990   6.11298   6.13240   6.15165
 Alpha virt. eigenvalues --    6.17557   6.20165   6.66852   6.71315   7.01602
 Alpha virt. eigenvalues --    7.28428   8.16241   8.17687   8.48144   8.57459
 Alpha virt. eigenvalues --    8.74764   9.36787  11.34919  11.36317  11.56045
 Alpha virt. eigenvalues --   11.56927  11.59502  11.59693  11.79744  12.27669
 Alpha virt. eigenvalues --   12.32283  13.16233  13.62507  13.62635  13.93369
 Alpha virt. eigenvalues --   13.94521  14.39909  21.04093  21.24020  21.64757
 Alpha virt. eigenvalues --   22.16362  22.16785  22.16836  22.17116  22.23203
 Alpha virt. eigenvalues --   22.25457  22.30097  22.30507  22.33984  22.37559
 Alpha virt. eigenvalues --   22.83069  24.41935  24.43104  28.39335  28.40199
 Alpha virt. eigenvalues --   28.40520  28.40876  28.73501  28.79573  47.07274
 Alpha virt. eigenvalues --   47.09095  47.86359  54.71703
          Condensed to atoms (all electrons):
               1          2          3          4          5
     1  C    4.693528   0.421413   0.181498   0.308021   0.308021
     2  H    0.421413   0.493182  -0.026430  -0.039265  -0.039265
     3  F    0.181498  -0.026430   9.254019  -0.049495  -0.049495
     4  Cl   0.308021  -0.039265  -0.049495  16.821089  -0.056455
     5  Cl   0.308021  -0.039265  -0.049495  -0.056455  16.821089
          Atomic-Atomic Spin Densities.
               1          2          3          4          5
     1  C    0.000000   0.000000   0.000000   0.000000   0.000000
     2  H    0.000000   0.000000   0.000000   0.000000   0.000000
     3  F    0.000000   0.000000   0.000000   0.000000   0.000000
     4  Cl   0.000000   0.000000   0.000000   0.000000   0.000000
     5  Cl   0.000000   0.000000   0.000000   0.000000   0.000000
 Mulliken charges and spin densities:
               1          2
     1  C    0.087520   0.000000
     2  H    0.190366   0.000000
     3  F   -0.310096   0.000000
     4  Cl   0.016105   0.000000
     5  Cl   0.016105   0.000000
 Sum of Mulliken charges =  -0.00000   0.00000
 Mulliken charges and spin densities with hydrogens summed into heavy atoms:
               1          2
     1  C    0.277886   0.000000
     3  F   -0.310096   0.000000
     4  Cl   0.016105   0.000000
     5  Cl   0.016105   0.000000
 Electronic spatial extent (au):  <R**2>=            473.5150
 Charge=             -0.0000 electrons
 Dipole moment (field-independent basis, Debye):
    X=             -1.3351    Y=              0.5565    Z=              0.0000  Tot=              1.4465
 Quadrupole moment (field-independent basis, Debye-Ang):
   XX=            -36.3532   YY=            -36.0256   ZZ=            -36.5787
   XY=             -2.3050   XZ=              0.0000   YZ=             -0.0000
 Traceless Quadrupole moment (field-independent basis, Debye-Ang):
   XX=             -0.0340   YY=              0.2936   ZZ=             -0.2596
   XY=             -2.3050   XZ=              0.0000   YZ=             -0.0000
 Octapole moment (field-independent basis, Debye-Ang**2):
  XXX=              3.8082  YYY=              5.8992  ZZZ=             -0.0000  XYY=             -1.1592
  XXY=              2.9999  XXZ=              0.0000  XZZ=              2.2881  YZZ=             -1.9904
  YYZ=             -0.0000  XYZ=              0.0000
 Hexadecapole moment (field-independent basis, Debye-Ang**3):
 XXXX=            -71.1033 YYYY=           -135.1987 ZZZZ=           -349.0105 XXXY=            -22.4929
 XXXZ=             -0.0000 YYYX=            -23.5609 YYYZ=             -0.0000 ZZZX=              0.0000
 ZZZY=             -0.0000 XXYY=            -34.2473 XXZZ=            -75.2620 YYZZ=            -77.5121
 XXYZ=             -0.0000 YYXZ=             -0.0000 ZZXY=             -5.9106
 N-N= 2.098865711864D+02 E-N=-2.935925013217D+03  KE= 1.056800398967D+03
 Symmetry A'   KE= 5.890639367731D+02
 Symmetry A"   KE= 4.677364621944D+02
 Symmetry A'   SP= 0.000000000000D+00
 Symmetry A"   SP= 0.000000000000D+00
                          Isotropic Fermi Contact Couplings
        Atom                 a.u.       MegaHertz       Gauss      10(-4) cm-1
     1  C(13)              0.00000       0.00000       0.00000       0.00000
     2  H(1)               0.00000       0.00000       0.00000       0.00000
     3  F(19)              0.00000       0.00000       0.00000       0.00000
     4  Cl(35)             0.00000       0.00000       0.00000       0.00000
     5  Cl(35)             0.00000       0.00000       0.00000       0.00000
 --------------------------------------------------------
       Center         ----  Spin Dipole Couplings  ----
                      3XX-RR        3YY-RR        3ZZ-RR
 --------------------------------------------------------
     1   Atom        0.000000      0.000000      0.000000
     2   Atom        0.000000      0.000000      0.000000
     3   Atom        0.000000      0.000000      0.000000
     4   Atom        0.000000      0.000000      0.000000
     5   Atom        0.000000      0.000000      0.000000
 --------------------------------------------------------
                        XY            XZ            YZ
 --------------------------------------------------------
     1   Atom        0.000000      0.000000      0.000000
     2   Atom        0.000000      0.000000      0.000000
     3   Atom        0.000000      0.000000      0.000000
     4   Atom        0.000000      0.000000      0.000000
     5   Atom        0.000000      0.000000      0.000000
 --------------------------------------------------------


 ---------------------------------------------------------------------------------
              Anisotropic Spin Dipole Couplings in Principal Axis System
 ---------------------------------------------------------------------------------

       Atom             a.u.   MegaHertz   Gauss  10(-4) cm-1        Axes

              Baa     0.0000     0.000     0.000     0.000  1.0000  0.0000  0.0000
     1 C(13)  Bbb     0.0000     0.000     0.000     0.000 -0.0000  1.0000  0.0000
              Bcc     0.0000     0.000     0.000     0.000  0.0000  0.0000  1.0000
 
              Baa     0.0000     0.000     0.000     0.000  1.0000  0.0000  0.0000
     2 H(1)   Bbb     0.0000     0.000     0.000     0.000 -0.0000  1.0000  0.0000
              Bcc     0.0000     0.000     0.000     0.000  0.0000  0.0000  1.0000
 
              Baa     0.0000     0.000     0.000     0.000  1.0000  0.0000  0.0000
     3 F(19)  Bbb     0.0000     0.000     0.000     0.000 -0.0000  1.0000  0.0000
              Bcc     0.0000     0.000     0.000     0.000  0.0000  0.0000  1.0000
 
              Baa     0.0000     0.000     0.000     0.000  1.0000  0.0000  0.0000
     4 Cl(35) Bbb     0.0000     0.000     0.000     0.000 -0.0000  1.0000  0.0000
              Bcc     0.0000     0.000     0.000     0.000  0.0000  0.0000  1.0000
 
              Baa     0.0000     0.000     0.000     0.000  1.0000  0.0000  0.0000
     5 Cl(35) Bbb     0.0000     0.000     0.000     0.000 -0.0000  1.0000  0.0000
              Bcc     0.0000     0.000     0.000     0.000  0.0000  0.0000  1.0000
 

 ---------------------------------------------------------------------------------

 1\1\GINC-GAMBA\SP\ROHF\Gen\C1H1Cl2F1\IRIKURA\28-Sep-2023\0\\# rohf/gen
  geom=check guess=check\\chlorodifluoromethane, ROHF/cc-pVTZ-F12\\0,1\
 C,0,-0.177871,0.521946,0.\H,0,-1.074607,1.130098,0.\F,0,0.909938,1.320
 284,0.\Cl,0,-0.177871,-0.474833,1.473045\Cl,0,-0.177871,-0.474833,-1.4
 73045\\Version=ES64L-G16RevB.01\State=1-A'\HF=-1056.982543\RMSD=8.010e
 -09\Dipole=-0.5252811,0.2189364,0.\Quadrupole=-0.0253079,0.2182785,-0.
 1929706,-1.7137102,0.,0.\PG=CS [SG(C1H1F1),X(Cl2)]\\@


  THE LARGE PRINT GIVETH,
  AND THE SMALL PRINT TAKETH AWAY.

                     -- TOM WAITS
 Job cpu time:       0 days  0 hours  2 minutes  7.3 seconds.
 Elapsed time:       0 days  0 hours  0 minutes 31.9 seconds.
 File lengths (MBytes):  RWF=     48 Int=      0 D2E=      0 Chk=      6 Scr=      1
 Normal termination of Gaussian 16 at Thu Sep 28 15:41:04 2023.
