 Entering Gaussian System, Link 0=g16
 AtFile(1): pcseg2.gbs
            -H     0
            S   4   1.00
                  0.754732D+02           0.427821D-02
                  0.113575D+02           0.328672D-01
                  0.260081D+01           0.159578D+00
                  0.735503D+00           0.500000D+00
            S   1   1.00
                  0.231761D+00           1.0000000
            S   1   1.00
                  0.741675D-01           1.0000000
            P   1   1.00
                  0.160000D+01           1.0000000
            P   1   1.00
                  0.450000D+00           1.0000000
            D   1   1.00
                  0.125000D+01           1.0000000
            ****
            -C     0
            S   7   1.00
                  0.731999D+04           0.695369D-03
                  0.109818D+04           0.537138D-02
                  0.250014D+03           0.274734D-01
                  0.707586D+02           0.105078D+00
                  0.228595D+02           0.291262D+00
                  0.803936D+01           0.500000D+00
                  0.289309D+01           0.362224D+00
            S   2   1.00
                  0.521640D+01          -0.957844D-01
                  0.556124D+00           0.500000D+00
            S   1   1.00
                  0.228813D+00           1.0000000
            S   1   1.00
                  0.936338D-01           1.0000000
            P   4   1.00
                  0.339855D+02           0.818395D-02
                  0.772957D+01           0.586921D-01
                  0.224954D+01           0.222514D+00
                  0.767681D+00           0.500000D+00
            P   1   1.00
                  0.263283D+00           1.0000000
            P   1   1.00
                  0.848744D-01           1.0000000
            D   1   1.00
                  0.140000D+01           1.0000000
            D   1   1.00
                  0.450000D+00           1.0000000
            F   1   1.00
                  0.950000D+00           1.0000000
            ****
            -O     0
            S   7   1.00
                  0.135887D+05           0.665492D-03
                  0.203847D+04           0.514222D-02
                  0.464041D+03           0.263472D-01
                  0.131339D+03           0.101500D+00
                  0.425340D+02           0.285877D+00
                  0.150429D+02           0.500000D+00
                  0.546616D+01           0.368211D+00
            S   2   1.00
                  0.100915D+02          -0.100084D+00
                  0.110429D+01           0.500000D+00
            S   1   1.00
                  0.448082D+00           1.0000000
            S   1   1.00
                  0.175325D+00           1.0000000
            P   4   1.00
                  0.608220D+02           0.908253D-02
                  0.140332D+02           0.645878D-01
                  0.418244D+01           0.241502D+00
                  0.142490D+01           0.500000D+00
            P   1   1.00
                  0.478741D+00           1.0000000
            P   1   1.00
                  0.146257D+00           1.0000000
            D   1   1.00
                  0.220000D+01           1.0000000
            D   1   1.00
                  0.650000D+00           1.0000000
            F   1   1.00
                  0.110000D+01           1.0000000
            ****
            -N     0
            S   7   1.00
                  0.101643D+05           0.682757D-03
                  0.152481D+04           0.527488D-02
                  0.347119D+03           0.270037D-01
                  0.982389D+02           0.103673D+00
                  0.317799D+02           0.289575D+00
                  0.112240D+02           0.500000D+00
                  0.406611D+01           0.364621D+00
            S   2   1.00
                  0.747898D+01          -0.975681D-01
                  0.805040D+00           0.500000D+00
            S   1   1.00
                  0.324626D+00           1.0000000
            S   1   1.00
                  0.128132D+00           1.0000000
            P   4   1.00
                  0.482704D+02           0.829547D-02
                  0.110815D+02           0.596223D-01
                  0.326643D+01           0.227889D+00
                  0.111680D+01           0.500000D+00
            P   1   1.00
                  0.382049D+00           1.0000000
            P   1   1.00
                  0.121222D+00           1.0000000
            D   1   1.00
                  0.180000D+01           1.0000000
            D   1   1.00
                  0.550000D+00           1.0000000
            F   1   1.00
                  0.102000D+01           1.0000000
            ****
            -F     0
            S   7   1.00
                  0.174507D+05           0.655972D-03
                  0.261768D+04           0.506944D-02
                  0.595857D+03           0.259899D-01
                  0.168651D+03           0.100353D+00
                  0.546654D+02           0.284095D+00
                  0.193717D+02           0.500000D+00
                  0.706202D+01           0.370721D+00
            S   2   1.00
                  0.131197D+02          -0.101997D+00
                  0.145046D+01           0.500000D+00
            S   1   1.00
                  0.588255D+00           1.0000000
            S   1   1.00
                  0.227960D+00           1.0000000
            P   4   1.00
                  0.779407D+02           0.931135D-02
                  0.180425D+02           0.663964D-01
                  0.542342D+01           0.246386D+00
                  0.184876D+01           0.500000D+00
            P   1   1.00
                  0.617455D+00           1.0000000
            P   1   1.00
                  0.185496D+00           1.0000000
            D   1   1.00
                  0.280000D+01           1.0000000
            D   1   1.00
                  0.800000D+00           1.0000000
            F   1   1.00
                  0.120000D+01           1.0000000
            ****
            -Cl     0
            S   8   1.00
                  0.154272D+06           0.222473D-03
                  0.231232D+05           0.172590D-02
                  0.526257D+04           0.899286D-02
                  0.148995D+04           0.367724D-01
                  0.485417D+03           0.121446D+00
                  0.174634D+03           0.304148D+00
                  0.672393D+02           0.500000D+00
                  0.265780D+02           0.360252D+00
            S   3   1.00
                  0.131826D+03          -0.531330D-01
                  0.400703D+02          -0.233346D+00
                  0.789448D+01           0.500000D+00
            S   2   1.00
                  0.427711D+01           0.500000D+00
                  0.196233D+01           0.370517D+00
            S   1   1.00
                  0.520793D+00           1.0000000
            S   1   1.00
                  0.181633D+00           1.0000000
            P   7   1.00
                  0.124440D+04           0.988206D-03
                  0.295109D+03           0.829674D-02
                  0.947224D+02           0.430906D-01
                  0.352588D+02           0.148443D+00
                  0.144211D+02           0.344744D+00
                  0.610371D+01           0.500000D+00
                  0.258886D+01           0.348278D+00
            P   2   1.00
                  0.109447D+02          -0.196768D-01
                  0.104413D+01           0.500000D+00
            P   1   1.00
                  0.376184D+00           1.0000000
            P   1   1.00
                  0.120613D+00           1.0000000
            D   1   1.00
                  0.231000D+01           1.0000000
            D   1   1.00
                  0.520000D+00           1.0000000
            F   1   1.00
                  0.720000D+00           1.0000000
            ****
            -S     0
            S   8   1.00
                  0.134700D+06           0.226231D-03
                  0.201904D+05           0.175488D-02
                  0.459528D+04           0.914190D-02
                  0.130109D+04           0.373551D-01
                  0.423902D+03           0.123121D+00
                  0.152485D+03           0.306801D+00
                  0.586925D+02           0.500000D+00
                  0.231461D+02           0.354358D+00
            S   3   1.00
                  0.116327D+03          -0.491772D-01
                  0.352841D+02          -0.215962D+00
                  0.677831D+01           0.500000D+00
            S   2   1.00
                  0.360404D+01           0.500000D+00
                  0.164871D+01           0.366278D+00
            S   1   1.00
                  0.421821D+00           1.0000000
            S   1   1.00
                  0.147554D+00           1.0000000
            P   7   1.00
                  0.104863D+04           0.105273D-02
                  0.248717D+03           0.879338D-02
                  0.797887D+02           0.453358D-01
                  0.296023D+02           0.154476D+00
                  0.120627D+02           0.352366D+00
                  0.507628D+01           0.500000D+00
                  0.213375D+01           0.346429D+00
            P   2   1.00
                  0.928958D+01          -0.185932D-01
                  0.837819D+00           0.500000D+00
            P   1   1.00
                  0.301495D+00           1.0000000
            P   1   1.00
                  0.974740D-01           1.0000000
            D   1   1.00
                  0.210000D+01           1.0000000
            D   1   1.00
                  0.480000D+00           1.0000000
            F   1   1.00
                  0.660000D+00           1.0000000
            ****
            -Br     0
            S    10   1.00
                  0.233625D+07           0.532336D-04
                  0.349961D+06           0.413715D-03
                  0.796444D+05           0.217123D-02
                  0.225555D+05           0.910109D-02
                  0.735546D+04           0.323789D-01
                  0.265352D+04           0.988755D-01
                  0.103517D+04           0.248138D+00
                  0.422205D+03           0.474328D+00
                  0.180035D+03           0.500000D+00
                  0.793308D+02           0.187769D+00
            S    4   1.00
                  0.620834D+03          -0.226511D-01
                  0.190829D+03          -0.109497D+00
                  0.312505D+02           0.500000D+00
                  0.135270D+02           0.492812D+00
            S    2   1.00
                  0.216097D+02          -0.165418D+00
                  0.372566D+01           0.500000D+00
            S    1   1.00
                  0.169770D+01           1.0000000
            S    1   1.00
                  0.489332D+00           1.0000000
            S    1   1.00
                  0.175712D+00           1.0000000
            P    8   1.00
                  0.960829D+04           0.478974D-03
                  0.227618D+04           0.417853D-02
                  0.736723D+03           0.229315D-01
                  0.281579D+03           0.892653D-01
                  0.118395D+03           0.255288D+00
                  0.527481D+02           0.479074D+00
                  0.245098D+02           0.500000D+00
                  0.112009D+02           0.200944D+00
            P    4   1.00
                  0.587849D+02          -0.189674D-01
                  0.918962D+01           0.264104D+00
                  0.413895D+01           0.500000D+00
                  0.184225D+01           0.319316D+00
            P    1   1.00
                  0.713862D+00           1.0000000
            P    1   1.00
                  0.274232D+00           1.0000000
            P    1   1.00
                  0.944411D-01           1.0000000
            D    7   1.00
                  0.398470D+03           0.204066D-02
                  0.118967D+03           0.175171D-01
                  0.450197D+02           0.829708D-01
                  0.190320D+02           0.236284D+00
                  0.855686D+01           0.428468D+00
                  0.382950D+01           0.500000D+00
                  0.166291D+01           0.349360D+00
            D    1   1.00
                  0.672953D+00           1.0000000
            D    1   1.00
                  0.252000D+00           1.0000000
            F    1   1.00
                  0.530000D+00           1.0000000
            ****
            -Si     0
            S    8   1.00
                  0.996133D+05           0.235546D-03
                  0.149311D+05           0.182707D-02
                  0.339820D+04           0.951425D-02
                  0.962140D+03           0.388172D-01
                  0.313430D+03           0.127328D+00
                  0.112683D+03           0.313522D+00
                  0.433372D+02           0.500000D+00
                  0.170029D+02           0.340347D+00
            S    3   1.00
                  0.884208D+02          -0.404451D-01
                  0.266756D+02          -0.178059D+00
                  0.479640D+01           0.500000D+00
            S    2   1.00
                  0.239385D+01           0.500000D+00
                  0.108333D+01           0.338016D+00
            S    1   1.00
                  0.252420D+00           1.0000000
            S    1   1.00
                  0.891210D-01           1.0000000
            P    7   1.00
                  0.709901D+03           0.123028D-02
                  0.168426D+03           0.101366D-01
                  0.539946D+02           0.511840D-01
                  0.198646D+02           0.169967D+00
                  0.801369D+01           0.370717D+00
                  0.331870D+01           0.500000D+00
                  0.136112D+01           0.344128D+00
            P    2   1.00
                  0.622158D+01          -0.166609D-01
                  0.503049D+00           0.500000D+00
            P    1   1.00
                  0.179848D+00           1.0000000
            P    1   1.00
                  0.591912D-01           1.0000000
            D    1   1.00
                  0.168000D+01           1.0000000
            D    1   1.00
                  0.380000D+00           1.0000000
            F    1   1.00
                  0.540000D+00           1.0000000
            ****
            -P     0
            S    8   1.00
                  0.116416D+06           0.230715D-03
                  0.174500D+05           0.178960D-02
                  0.397149D+04           0.932116D-02
                  0.112447D+04           0.380591D-01
                  0.366347D+03           0.125148D+00
                  0.131757D+03           0.310022D+00
                  0.506988D+02           0.500000D+00
                  0.199436D+02           0.347528D+00
            S    3   1.00
                  0.101878D+03          -0.446755D-01
                  0.308249D+02          -0.196376D+00
                  0.573688D+01           0.500000D+00
            S    2   1.00
                  0.296868D+01           0.500000D+00
                  0.135315D+01           0.355098D+00
            S    1   1.00
                  0.332196D+00           1.0000000
            S    1   1.00
                  0.116229D+00           1.0000000
            P    7   1.00
                  0.873928D+03           0.112375D-02
                  0.207298D+03           0.933330D-02
                  0.664628D+02           0.477213D-01
                  0.245665D+02           0.160733D+00
                  0.996820D+01           0.359760D+00
                  0.416536D+01           0.500000D+00
                  0.173022D+01           0.346593D+00
            P    2   1.00
                  0.772530D+01          -0.175718D-01
                  0.657252D+00           0.500000D+00
            P    1   1.00
                  0.239903D+00           1.0000000
            P    1   1.00
                  0.800988D-01           1.0000000
            D    1   1.00
                  0.189000D+01           1.0000000
            D    1   1.00
                  0.430000D+00           1.0000000
            F    1   1.00
                  0.600000D+00           1.0000000
            ****
            
 Initial command:
 /usr/local/apps/g16_b01_avx/g16/l1.exe "/wrk/irikura/Gau-21130.inp" -scrdir="/wrk/irikura/"
 Entering Link 1 = /usr/local/apps/g16_b01_avx/g16/l1.exe PID=     21132.
  
 Copyright (c) 1988-2017, Gaussian, Inc.  All Rights Reserved.
  
 This is part of the Gaussian(R) 16 program.  It is based on
 the Gaussian(R) 09 system (copyright 2009, Gaussian, Inc.),
 the Gaussian(R) 03 system (copyright 2003, Gaussian, Inc.),
 the Gaussian(R) 98 system (copyright 1998, Gaussian, Inc.),
 the Gaussian(R) 94 system (copyright 1995, Gaussian, Inc.),
 the Gaussian 92(TM) system (copyright 1992, Gaussian, Inc.),
 the Gaussian 90(TM) system (copyright 1990, Gaussian, Inc.),
 the Gaussian 88(TM) system (copyright 1988, Gaussian, Inc.),
 the Gaussian 86(TM) system (copyright 1986, Carnegie Mellon
 University), and the Gaussian 82(TM) system (copyright 1983,
 Carnegie Mellon University). Gaussian is a federally registered
 trademark of Gaussian, Inc.
  
 This software contains proprietary and confidential information,
 including trade secrets, belonging to Gaussian, Inc.
  
 This software is provided under written license and may be
 used, copied, transmitted, or stored only in accord with that
 written license.
  
 The following legend is applicable only to US Government
 contracts under FAR:
  
                    RESTRICTED RIGHTS LEGEND
  
 Use, reproduction and disclosure by the US Government is
 subject to restrictions as set forth in subparagraphs (a)
 and (c) of the Commercial Computer Software - Restricted
 Rights clause in FAR 52.227-19.
  
 Gaussian, Inc.
 340 Quinnipiac St., Bldg. 40, Wallingford CT 06492
  
  
 ---------------------------------------------------------------
 Warning -- This program may not be used in any manner that
 competes with the business of Gaussian, Inc. or will provide
 assistance to any competitor of Gaussian, Inc.  The licensee
 of this program is prohibited from giving any competitor of
 Gaussian, Inc. access to this program.  By using this program,
 the user acknowledges that Gaussian, Inc. is engaged in the
 business of creating and licensing software in the field of
 computational chemistry and represents and warrants to the
 licensee that it is not a competitor of Gaussian, Inc. and that
 it will not use this program in any manner prohibited above.
 ---------------------------------------------------------------
  

 Cite this work as:
 Gaussian 16, Revision B.01,
 M. J. Frisch, G. W. Trucks, H. B. Schlegel, G. E. Scuseria, 
 M. A. Robb, J. R. Cheeseman, G. Scalmani, V. Barone, 
 G. A. Petersson, H. Nakatsuji, X. Li, M. Caricato, A. V. Marenich, 
 J. Bloino, B. G. Janesko, R. Gomperts, B. Mennucci, H. P. Hratchian, 
 J. V. Ortiz, A. F. Izmaylov, J. L. Sonnenberg, D. Williams-Young, 
 F. Ding, F. Lipparini, F. Egidi, J. Goings, B. Peng, A. Petrone, 
 T. Henderson, D. Ranasinghe, V. G. Zakrzewski, J. Gao, N. Rega, 
 G. Zheng, W. Liang, M. Hada, M. Ehara, K. Toyota, R. Fukuda, 
 J. Hasegawa, M. Ishida, T. Nakajima, Y. Honda, O. Kitao, H. Nakai, 
 T. Vreven, K. Throssell, J. A. Montgomery, Jr., J. E. Peralta, 
 F. Ogliaro, M. J. Bearpark, J. J. Heyd, E. N. Brothers, K. N. Kudin, 
 V. N. Staroverov, T. A. Keith, R. Kobayashi, J. Normand, 
 K. Raghavachari, A. P. Rendell, J. C. Burant, S. S. Iyengar, 
 J. Tomasi, M. Cossi, J. M. Millam, M. Klene, C. Adamo, R. Cammi, 
 J. W. Ochterski, R. L. Martin, K. Morokuma, O. Farkas, 
 J. B. Foresman, and D. J. Fox, Gaussian, Inc., Wallingford CT, 2016.
 
 ******************************************
 Gaussian 16:  ES64L-G16RevB.01 20-Dec-2017
                16-Jun-2022 
 ******************************************
 %mem=1000mw
 %nprocs=12
 Will use up to   12 processors via shared memory.
 --------------------
 # b3lyp/gen opt freq
 --------------------
 1/18=20,19=15,26=3,38=1/1,3;
 2/9=110,12=2,17=6,18=5,40=1/2;
 3/5=7,11=2,25=1,30=1,71=1,74=-5/1,2,3;
 4//1;
 5/5=2,38=5/2;
 6/7=2,8=2,9=2,10=2,28=1/1;
 7//1,2,3,16;
 1/18=20,19=15,26=3/3(2);
 2/9=110/2;
 99//99;
 2/9=110/2;
 3/5=7,6=1,11=2,25=1,30=1,71=1,74=-5,82=7/1,2,3;
 4/5=5,16=3,69=1/1;
 5/5=2,38=5/2;
 7//1,2,3,16;
 1/18=20,19=15,26=3/3(-5);
 2/9=110/2;
 6/7=2,8=2,9=2,10=2,19=2,28=1/1;
 99/9=1/99;
 ------------------------------------
 chlorodifluoromethane, B3LYP/pcseg-2
 ------------------------------------
 Symbolic Z-matrix:
 Charge =  0 Multiplicity = 1
 C                    -0.17545   0.53188   0. 
 H                    -1.08792   1.12497   0. 
 F                     0.90063   1.31855   0. 
 Cl                   -0.17545  -0.47598   1.47561 
 Cl                   -0.17545  -0.47598  -1.47561 
 

 GradGradGradGradGradGradGradGradGradGradGradGradGradGradGradGradGradGrad
 Berny optimization.
 Initialization pass.
                           ----------------------------
                           !    Initial Parameters    !
                           ! (Angstroms and Degrees)  !
 --------------------------                            --------------------------
 ! Name  Definition              Value          Derivative Info.                !
 --------------------------------------------------------------------------------
 ! R1    R(1,2)                  1.0883         estimate D2E/DX2                !
 ! R2    R(1,3)                  1.333          estimate D2E/DX2                !
 ! R3    R(1,4)                  1.787          estimate D2E/DX2                !
 ! R4    R(1,5)                  1.787          estimate D2E/DX2                !
 ! A1    A(2,1,3)              110.8079         estimate D2E/DX2                !
 ! A2    A(2,1,4)              107.9009         estimate D2E/DX2                !
 ! A3    A(2,1,5)              107.9009         estimate D2E/DX2                !
 ! A4    A(3,1,4)              109.4424         estimate D2E/DX2                !
 ! A5    A(3,1,5)              109.4424         estimate D2E/DX2                !
 ! A6    A(4,1,5)              111.3331         estimate D2E/DX2                !
 ! D1    D(2,1,4,3)           -120.6573         estimate D2E/DX2                !
 ! D2    D(2,1,5,3)            120.6573         estimate D2E/DX2                !
 ! D3    D(2,1,5,4)           -118.224          estimate D2E/DX2                !
 ! D4    D(3,1,5,4)            121.1188         estimate D2E/DX2                !
 --------------------------------------------------------------------------------
 Trust Radius=3.00D-01 FncErr=1.00D-07 GrdErr=1.00D-06 EigMax=2.50D+02 EigMin=1.00D-04
 Number of steps in this run=     24 maximum allowed number of steps=    100.
 GradGradGradGradGradGradGradGradGradGradGradGradGradGradGradGradGradGrad

                          Input orientation:                          
 ---------------------------------------------------------------------
 Center     Atomic      Atomic             Coordinates (Angstroms)
 Number     Number       Type             X           Y           Z
 ---------------------------------------------------------------------
      1          6           0       -0.175445    0.531878    0.000000
      2          1           0       -1.087924    1.124972    0.000000
      3          9           0        0.900634    1.318554    0.000000
      4         17           0       -0.175445   -0.475977    1.475610
      5         17           0       -0.175445   -0.475977   -1.475610
 ---------------------------------------------------------------------
                    Distance matrix (angstroms):
                    1          2          3          4          5
     1  C    0.000000
     2  H    1.088292   0.000000
     3  F    1.332969   1.997958   0.000000
     4  Cl   1.786952   2.360737   2.560413   0.000000
     5  Cl   1.786952   2.360737   2.560413   2.951220   0.000000
 Stoichiometry    CHCl2F
 Framework group  CS[SG(CHF),X(Cl2)]
 Deg. of freedom     6
 Full point group                 CS      NOp   2
 Largest Abelian subgroup         CS      NOp   2
 Largest concise Abelian subgroup CS      NOp   2
                         Standard orientation:                         
 ---------------------------------------------------------------------
 Center     Atomic      Atomic             Coordinates (Angstroms)
 Number     Number       Type             X           Y           Z
 ---------------------------------------------------------------------
      1          6           0       -0.175445    0.531878   -0.000000
      2          1           0       -1.087924    1.124972   -0.000000
      3          9           0        0.900634    1.318554   -0.000000
      4         17           0       -0.175445   -0.475977    1.475610
      5         17           0       -0.175445   -0.475977   -1.475610
 ---------------------------------------------------------------------
 Rotational constants (GHZ):           6.9573958           3.2114480           2.2988560
 General basis read from cards:  (5D, 7F)
 There are    98 symmetry adapted cartesian basis functions of A'  symmetry.
 There are    65 symmetry adapted cartesian basis functions of A"  symmetry.
 There are    84 symmetry adapted basis functions of A'  symmetry.
 There are    58 symmetry adapted basis functions of A"  symmetry.
   142 basis functions,   260 primitive gaussians,   163 cartesian basis functions
    25 alpha electrons       25 beta electrons
       nuclear repulsion energy       209.8344669428 Hartrees.
 NAtoms=    5 NActive=    5 NUniq=    4 SFac= 1.56D+00 NAtFMM=   60 NAOKFM=F Big=F
 Integral buffers will be    131072 words long.
 Raffenetti 2 integral format.
 Two-electron integral symmetry is turned on.
 One-electron integrals computed using PRISM.
 NBasis=   142 RedAO= T EigKep=  2.80D-03  NBF=    84    58
 NBsUse=   142 1.00D-06 EigRej= -1.00D+00 NBFU=    84    58
 ExpMin= 7.42D-02 ExpMax= 1.54D+05 ExpMxC= 1.49D+03 IAcc=3 IRadAn=         5 AccDes= 0.00D+00
 Harris functional with IExCor=  402 and IRadAn=       5 diagonalized for initial guess.
 HarFok:  IExCor=  402 AccDes= 0.00D+00 IRadAn=         5 IDoV= 1 UseB2=F ITyADJ=14
 ICtDFT=  3500011 ScaDFX=  1.000000  1.000000  1.000000  1.000000
 FoFCou: FMM=F IPFlag=           0 FMFlag=      100000 FMFlg1=           0
         NFxFlg=           0 DoJE=T BraDBF=F KetDBF=T FulRan=T
         wScrn=  0.000000 ICntrl=       500 IOpCl=  0 I1Cent=   200000004 NGrid=           0
         NMat0=    1 NMatS0=      1 NMatT0=    0 NMatD0=    1 NMtDS0=    0 NMtDT0=    0
 Petite list used in FoFCou.
 Initial guess orbital symmetries:
       Occupied  (A') (A") (A') (A') (A') (A") (A') (A") (A') (A")
                 (A') (A") (A') (A') (A") (A') (A') (A") (A') (A')
                 (A") (A') (A') (A") (A")
       Virtual   (A') (A") (A') (A') (A") (A') (A') (A') (A") (A')
                 (A') (A') (A") (A") (A') (A") (A') (A') (A') (A")
                 (A') (A") (A") (A') (A") (A") (A') (A') (A") (A')
                 (A') (A") (A') (A') (A') (A") (A') (A') (A") (A')
                 (A") (A') (A') (A") (A') (A") (A') (A") (A") (A')
                 (A") (A') (A") (A') (A") (A') (A") (A") (A') (A')
                 (A') (A") (A') (A') (A") (A') (A') (A") (A') (A")
                 (A') (A') (A") (A") (A') (A') (A") (A") (A') (A")
                 (A') (A') (A') (A') (A") (A') (A") (A') (A") (A')
                 (A") (A') (A") (A') (A') (A") (A") (A') (A') (A")
                 (A") (A') (A') (A') (A") (A') (A") (A') (A') (A')
                 (A") (A') (A") (A') (A') (A") (A')
 The electronic state of the initial guess is 1-A'.
 Keep R1 ints in memory in symmetry-blocked form, NReq=77387533.
 Requested convergence on RMS density matrix=1.00D-08 within 128 cycles.
 Requested convergence on MAX density matrix=1.00D-06.
 Requested convergence on             energy=1.00D-06.
 No special actions if energy rises.
 Integral accuracy reduced to 1.0D-05 until final iterations.
 Initial convergence to 1.0D-05 achieved.  Increase integral accuracy.
 SCF Done:  E(RB3LYP) =  -1059.07372554     A.U. after   12 cycles
            NFock= 12  Conv=0.63D-08     -V/T= 2.0011

 **********************************************************************

            Population analysis using the SCF Density.

 **********************************************************************

 Orbital symmetries:
       Occupied  (A") (A') (A') (A') (A") (A') (A") (A') (A") (A')
                 (A") (A') (A') (A') (A") (A') (A') (A') (A") (A')
                 (A") (A') (A") (A') (A")
       Virtual   (A') (A") (A') (A') (A") (A') (A') (A') (A") (A')
                 (A') (A') (A") (A") (A') (A") (A') (A') (A') (A")
                 (A') (A") (A") (A') (A") (A") (A') (A') (A") (A')
                 (A') (A") (A') (A') (A') (A") (A') (A') (A") (A')
                 (A') (A") (A') (A") (A') (A") (A') (A") (A") (A')
                 (A") (A") (A') (A') (A") (A') (A") (A') (A") (A')
                 (A") (A') (A') (A') (A") (A') (A') (A") (A') (A")
                 (A') (A') (A") (A") (A') (A') (A") (A") (A') (A")
                 (A') (A') (A') (A') (A") (A') (A") (A') (A") (A')
                 (A") (A') (A') (A") (A') (A") (A") (A') (A') (A")
                 (A") (A') (A') (A') (A") (A') (A") (A') (A') (A')
                 (A") (A') (A") (A') (A') (A") (A')
 The electronic state is 1-A'.
 Alpha  occ. eigenvalues -- -101.53703-101.53703 -24.73012 -10.39126  -9.48258
 Alpha  occ. eigenvalues --   -9.48258  -7.24440  -7.24440  -7.23519  -7.23519
 Alpha  occ. eigenvalues --   -7.23501  -7.23501  -1.28079  -0.91277  -0.85000
 Alpha  occ. eigenvalues --   -0.69116  -0.58238  -0.53992  -0.53569  -0.42627
 Alpha  occ. eigenvalues --   -0.41883  -0.36346  -0.34301  -0.34050  -0.32804
 Alpha virt. eigenvalues --   -0.03342   0.01220   0.02197   0.06454   0.12959
 Alpha virt. eigenvalues --    0.13546   0.21259   0.23627   0.26926   0.28432
 Alpha virt. eigenvalues --    0.31299   0.32547   0.32640   0.34312   0.34840
 Alpha virt. eigenvalues --    0.40878   0.41625   0.42684   0.52364   0.53675
 Alpha virt. eigenvalues --    0.54752   0.54784   0.59277   0.62193   0.64231
 Alpha virt. eigenvalues --    0.67291   0.69650   0.72573   0.85819   0.87552
 Alpha virt. eigenvalues --    0.89684   0.96059   1.00316   1.04069   1.10894
 Alpha virt. eigenvalues --    1.12612   1.19547   1.31602   1.32668   1.54153
 Alpha virt. eigenvalues --    1.72313   1.73253   1.83744   1.90535   1.93828
 Alpha virt. eigenvalues --    1.99000   2.01408   2.07734   2.08708   2.09256
 Alpha virt. eigenvalues --    2.09836   2.10072   2.10442   2.11492   2.12198
 Alpha virt. eigenvalues --    2.16103   2.17075   2.18386   2.18948   2.20926
 Alpha virt. eigenvalues --    2.27701   2.27728   2.35006   2.40622   2.47877
 Alpha virt. eigenvalues --    2.47895   2.51230   2.59047   2.64632   2.92025
 Alpha virt. eigenvalues --    2.95827   3.25225   3.25831   3.30453   3.34607
 Alpha virt. eigenvalues --    3.46251   3.47569   3.48784   3.51356   3.55492
 Alpha virt. eigenvalues --    3.57073   3.66041   3.68502   3.72517   3.75047
 Alpha virt. eigenvalues --    3.90872   3.96990   4.04371   4.10368   4.20026
 Alpha virt. eigenvalues --    4.21727   4.28133   4.31414   4.31999   4.42064
 Alpha virt. eigenvalues --    4.43600   4.55453   4.57786   4.71700   4.80412
 Alpha virt. eigenvalues --    4.97521   5.03265   5.33410   5.44540   5.44841
 Alpha virt. eigenvalues --    5.50299   5.50728   5.66623   5.75681   6.03575
 Alpha virt. eigenvalues --    7.53198   7.54405   8.02218   8.05333   8.12177
 Alpha virt. eigenvalues --   32.67853  32.75819
          Condensed to atoms (all electrons):
               1          2          3          4          5
     1  C    4.322575   0.442005   0.252359   0.336839   0.336839
     2  H    0.442005   0.631738  -0.046848  -0.055439  -0.055439
     3  F    0.252359  -0.046848   9.135015  -0.059402  -0.059402
     4  Cl   0.336839  -0.055439  -0.059402  16.938130  -0.074306
     5  Cl   0.336839  -0.055439  -0.059402  -0.074306  16.938130
 Mulliken charges:
               1
     1  C    0.309382
     2  H    0.083984
     3  F   -0.221721
     4  Cl  -0.085822
     5  Cl  -0.085822
 Sum of Mulliken charges =  -0.00000
 Mulliken charges with hydrogens summed into heavy atoms:
               1
     1  C    0.393366
     3  F   -0.221721
     4  Cl  -0.085822
     5  Cl  -0.085822
 Electronic spatial extent (au):  <R**2>=            474.1121
 Charge=             -0.0000 electrons
 Dipole moment (field-independent basis, Debye):
    X=             -1.1593    Y=              0.6669    Z=              0.0000  Tot=              1.3374
 Quadrupole moment (field-independent basis, Debye-Ang):
   XX=            -36.2630   YY=            -35.9521   ZZ=            -36.8385
   XY=             -1.9850   XZ=              0.0000   YZ=              0.0000
 Traceless Quadrupole moment (field-independent basis, Debye-Ang):
   XX=              0.0882   YY=              0.3991   ZZ=             -0.4873
   XY=             -1.9850   XZ=              0.0000   YZ=              0.0000
 Octapole moment (field-independent basis, Debye-Ang**2):
  XXX=              3.7979  YYY=              5.7681  ZZZ=              0.0000  XYY=             -0.7822
  XXY=              2.9875  XXZ=              0.0000  XZZ=              2.1596  YZZ=             -1.5939
  YYZ=             -0.0000  XYZ=             -0.0000
 Hexadecapole moment (field-independent basis, Debye-Ang**3):
 XXXX=            -71.8120 YYYY=           -137.1113 ZZZZ=           -353.5572 XXXY=            -21.9312
 XXXZ=              0.0000 YYYX=            -22.7559 YYYZ=              0.0000 ZZZX=              0.0000
 ZZZY=              0.0000 XXYY=            -34.4437 XXZZ=            -75.4951 YYZZ=            -78.9287
 XXYZ=              0.0000 YYXZ=              0.0000 ZZXY=             -5.9723
 N-N= 2.098344669428D+02 E-N=-2.937509501997D+03  KE= 1.057870123625D+03
 Symmetry A'   KE= 5.895655730304D+02
 Symmetry A"   KE= 4.683045505951D+02
 Calling FoFJK, ICntrl=      2127 FMM=F ISym2X=1 I1Cent= 0 IOpClX= 0 NMat=1 NMatS=1 NMatT=0.
 ***** Axes restored to original set *****
 -------------------------------------------------------------------
 Center     Atomic                   Forces (Hartrees/Bohr)
 Number     Number              X              Y              Z
 -------------------------------------------------------------------
      1        6          -0.009533576   -0.007606746   -0.000000000
      2        1           0.003174793   -0.000610711    0.000000000
      3        9           0.006456220    0.006039741   -0.000000000
      4       17          -0.000048718    0.001088858   -0.001242244
      5       17          -0.000048718    0.001088858    0.001242244
 -------------------------------------------------------------------
 Cartesian Forces:  Max     0.009533576 RMS     0.004023493

 GradGradGradGradGradGradGradGradGradGradGradGradGradGradGradGradGradGrad
 Berny optimization.
 FormGI is forming the generalized inverse of G from B-inverse, IUseBI=4.
 Internal  Forces:  Max     0.008776353 RMS     0.002584213
 Search for a local minimum.
 Step number   1 out of a maximum of   24
 All quantities printed in internal units (Hartrees-Bohrs-Radians)
 Mixed Optimization -- RFO/linear search
 Second derivative matrix not updated -- first step.
 The second derivative matrix:
                          R1        R2        R3        R4        A1
           R1           0.35011
           R2           0.00000   0.58810
           R3           0.00000   0.00000   0.27172
           R4           0.00000   0.00000   0.00000   0.27172
           A1           0.00000   0.00000   0.00000   0.00000   0.16000
           A2           0.00000   0.00000   0.00000   0.00000   0.00000
           A3           0.00000   0.00000   0.00000   0.00000   0.00000
           A4           0.00000   0.00000   0.00000   0.00000   0.00000
           A5           0.00000   0.00000   0.00000   0.00000   0.00000
           A6           0.00000   0.00000   0.00000   0.00000   0.00000
           D1           0.00000   0.00000   0.00000   0.00000   0.00000
           D2           0.00000   0.00000   0.00000   0.00000   0.00000
           D3           0.00000   0.00000   0.00000   0.00000   0.00000
           D4           0.00000   0.00000   0.00000   0.00000   0.00000
                          A2        A3        A4        A5        A6
           A2           0.16000
           A3           0.00000   0.16000
           A4           0.00000   0.00000   0.25000
           A5           0.00000   0.00000   0.00000   0.25000
           A6           0.00000   0.00000   0.00000   0.00000   0.25000
           D1           0.00000   0.00000   0.00000   0.00000   0.00000
           D2           0.00000   0.00000   0.00000   0.00000   0.00000
           D3           0.00000   0.00000   0.00000   0.00000   0.00000
           D4           0.00000   0.00000   0.00000   0.00000   0.00000
                          D1        D2        D3        D4
           D1           0.00230
           D2           0.00000   0.00230
           D3           0.00000   0.00000   0.00230
           D4           0.00000   0.00000   0.00000   0.00230
 ITU=  0
     Eigenvalues ---    0.05504   0.06958   0.10318   0.21414   0.23641
     Eigenvalues ---    0.27172   0.27172   0.35011   0.58810
 RFO step:  Lambda=-2.13118532D-04 EMin= 5.50367023D-02
 Linear search not attempted -- first point.
 Iteration  1 RMS(Cart)=  0.00548216 RMS(Int)=  0.00002598
 Iteration  2 RMS(Cart)=  0.00002551 RMS(Int)=  0.00000988
 Iteration  3 RMS(Cart)=  0.00000000 RMS(Int)=  0.00000988
 ClnCor:  largest displacement from symmetrization is 5.13D-05 for atom     5.
 Variable       Old X    -DE/DX   Delta X   Delta X   Delta X     New X
                                 (Linear)    (Quad)   (Total)
    R1        2.05657  -0.00299   0.00000  -0.00855  -0.00855   2.04802
    R2        2.51895   0.00878   0.00000   0.01492   0.01492   2.53386
    R3        3.37685  -0.00164   0.00000  -0.00603  -0.00605   3.37080
    R4        3.37685  -0.00164   0.00000  -0.00603  -0.00605   3.37080
    A1        1.93396  -0.00075   0.00000  -0.01305  -0.01305   1.92091
    A2        1.88323   0.00005   0.00000   0.00208   0.00210   1.88532
    A3        1.88323   0.00014   0.00000   0.00214   0.00210   1.88532
    A4        1.91013   0.00007   0.00000   0.00212   0.00212   1.91225
    A5        1.91013   0.00023   0.00000   0.00216   0.00212   1.91225
    A6        1.94313   0.00024   0.00000   0.00433   0.00431   1.94744
    D1       -2.10587   0.00083   0.00000   0.01332   0.01330  -2.09257
    D2        2.10587  -0.00069   0.00000  -0.01326  -0.01330   2.09257
    D3       -2.06340  -0.00029   0.00000  -0.00635  -0.00637  -2.06977
    D4        2.11392   0.00040   0.00000   0.00691   0.00692   2.12085
         Item               Value     Threshold  Converged?
 Maximum Force            0.008776     0.000450     NO 
 RMS     Force            0.002584     0.000300     NO 
 Maximum Displacement     0.011974     0.001800     NO 
 RMS     Displacement     0.005495     0.001200     NO 
 Predicted change in Energy=-1.067242D-04
 GradGradGradGradGradGradGradGradGradGradGradGradGradGradGradGradGradGrad

                          Input orientation:                          
 ---------------------------------------------------------------------
 Center     Atomic      Atomic             Coordinates (Angstroms)
 Number     Number       Type             X           Y           Z
 ---------------------------------------------------------------------
      1          6           0       -0.177087    0.526869   -0.000000
      2          1           0       -1.081702    1.123715   -0.000000
      3          9           0        0.900444    1.324890   -0.000000
      4         17           0       -0.177641   -0.476001    1.475130
      5         17           0       -0.177641   -0.476001   -1.475130
 ---------------------------------------------------------------------
                    Distance matrix (angstroms):
                    1          2          3          4          5
     1  C    0.000000
     2  H    1.083768   0.000000
     3  F    1.340863   1.992329   0.000000
     4  Cl   1.783748   2.356359   2.565441   0.000000
     5  Cl   1.783748   2.356359   2.565441   2.950261   0.000000
 Stoichiometry    CHCl2F
 Framework group  CS[SG(CHF),X(Cl2)]
 Deg. of freedom     6
 Full point group                 CS      NOp   2
 Largest Abelian subgroup         CS      NOp   2
 Largest concise Abelian subgroup CS      NOp   2
                         Standard orientation:                         
 ---------------------------------------------------------------------
 Center     Atomic      Atomic             Coordinates (Angstroms)
 Number     Number       Type             X           Y           Z
 ---------------------------------------------------------------------
      1          6           0       -0.175777    0.526274   -0.000000
      2          1           0       -1.080721    1.122620   -0.000000
      3          9           0        0.901313    1.324890   -0.000000
      4         17           0       -0.175777   -0.476596    1.475130
      5         17           0       -0.175777   -0.476596   -1.475130
 ---------------------------------------------------------------------
 Rotational constants (GHZ):           6.9287438           3.2147013           2.2961230
 Basis read from rwf:  (5D, 7F)
 There are    98 symmetry adapted cartesian basis functions of A'  symmetry.
 There are    65 symmetry adapted cartesian basis functions of A"  symmetry.
 There are    84 symmetry adapted basis functions of A'  symmetry.
 There are    58 symmetry adapted basis functions of A"  symmetry.
   142 basis functions,   260 primitive gaussians,   163 cartesian basis functions
    25 alpha electrons       25 beta electrons
       nuclear repulsion energy       209.7427204427 Hartrees.
 NAtoms=    5 NActive=    5 NUniq=    4 SFac= 1.56D+00 NAtFMM=   60 NAOKFM=F Big=F
 Integral buffers will be    131072 words long.
 Raffenetti 2 integral format.
 Two-electron integral symmetry is turned on.
 One-electron integrals computed using PRISM.
 NBasis=   142 RedAO= T EigKep=  2.80D-03  NBF=    84    58
 NBsUse=   142 1.00D-06 EigRej= -1.00D+00 NBFU=    84    58
 Initial guess from the checkpoint file:  "/wrk/irikura/Gau-21132.chk"
 B after Tr=     0.000000    0.000000   -0.000000
         Rot=    1.000000   -0.000000    0.000000   -0.000596 Ang=  -0.07 deg.
 Initial guess orbital symmetries:
       Occupied  (A") (A') (A') (A') (A") (A') (A") (A') (A") (A')
                 (A") (A') (A') (A') (A") (A') (A') (A') (A") (A')
                 (A") (A') (A") (A') (A")
       Virtual   (A') (A") (A') (A') (A") (A') (A') (A') (A") (A')
                 (A') (A') (A") (A") (A') (A") (A') (A') (A') (A")
                 (A') (A") (A") (A') (A") (A") (A') (A') (A") (A')
                 (A') (A") (A') (A') (A') (A") (A') (A') (A") (A')
                 (A') (A") (A') (A") (A') (A") (A') (A") (A") (A')
                 (A") (A") (A') (A') (A") (A') (A") (A') (A") (A')
                 (A") (A') (A') (A') (A") (A') (A') (A") (A') (A")
                 (A') (A') (A") (A") (A') (A') (A") (A") (A') (A")
                 (A') (A') (A') (A') (A") (A') (A") (A') (A") (A')
                 (A") (A') (A') (A") (A') (A") (A") (A') (A') (A")
                 (A") (A') (A') (A') (A") (A') (A") (A') (A') (A')
                 (A") (A') (A") (A') (A') (A") (A')
 Keep R1 ints in memory in symmetry-blocked form, NReq=77387533.
 Requested convergence on RMS density matrix=1.00D-08 within 128 cycles.
 Requested convergence on MAX density matrix=1.00D-06.
 Requested convergence on             energy=1.00D-06.
 No special actions if energy rises.
 SCF Done:  E(RB3LYP) =  -1059.07387356     A.U. after    8 cycles
            NFock=  8  Conv=0.64D-08     -V/T= 2.0011
 Calling FoFJK, ICntrl=      2127 FMM=F ISym2X=1 I1Cent= 0 IOpClX= 0 NMat=1 NMatS=1 NMatT=0.
 ***** Axes restored to original set *****
 -------------------------------------------------------------------
 Center     Atomic                   Forces (Hartrees/Bohr)
 Number     Number              X              Y              Z
 -------------------------------------------------------------------
      1        6          -0.004375742   -0.004310222    0.000000000
      2        1           0.000316941    0.000324602    0.000000000
      3        9           0.003416295    0.002376575   -0.000000000
      4       17           0.000321253    0.000804522   -0.001021590
      5       17           0.000321253    0.000804522    0.001021590
 -------------------------------------------------------------------
 Cartesian Forces:  Max     0.004375742 RMS     0.001980544

 GradGradGradGradGradGradGradGradGradGradGradGradGradGradGradGradGradGrad
 Berny optimization.
 Using GEDIIS/GDIIS optimizer.
 FormGI is forming the generalized inverse of G from B-inverse, IUseBI=4.
 Internal  Forces:  Max     0.004159687 RMS     0.001235691
 Search for a local minimum.
 Step number   2 out of a maximum of   24
 All quantities printed in internal units (Hartrees-Bohrs-Radians)
 Mixed Optimization -- RFO/linear search
 Update second derivatives using D2CorX and points    1    2
 DE= -1.48D-04 DEPred=-1.07D-04 R= 1.39D+00
 TightC=F SS=  1.41D+00  RLast= 3.19D-02 DXNew= 5.0454D-01 9.5709D-02
 Trust test= 1.39D+00 RLast= 3.19D-02 DXMaxT set to 3.00D-01
 The second derivative matrix:
                          R1        R2        R3        R4        A1
           R1           0.37327
           R2           0.01979   0.39094
           R3          -0.01544   0.05558   0.25992
           R4          -0.01544   0.05558  -0.01180   0.25992
           A1          -0.01410   0.06183  -0.01433  -0.01433   0.14309
           A2           0.00572  -0.01542   0.00271   0.00271   0.00352
           A3           0.00941  -0.02127   0.00314   0.00314   0.00439
           A4           0.00202  -0.01324   0.00346   0.00346   0.00393
           A5          -0.00625  -0.00011   0.00249   0.00249   0.00200
           A6           0.01398  -0.04255   0.00819   0.00819   0.01030
           D1          -0.01546   0.02396  -0.00164  -0.00164  -0.00341
           D2           0.01284  -0.01979   0.00133   0.00133   0.00280
           D3          -0.00379   0.00629  -0.00053  -0.00053  -0.00098
           D4          -0.01662   0.02608  -0.00186  -0.00186  -0.00378
                          A2        A3        A4        A5        A6
           A2           0.15949
           A3          -0.00046   0.15981
           A4          -0.00092  -0.00123   0.24913
           A5          -0.00105  -0.00182  -0.00018   0.25156
           A6          -0.00172  -0.00178  -0.00259  -0.00244   0.24456
           D1          -0.00029  -0.00119   0.00125   0.00326   0.00013
           D2           0.00025   0.00100  -0.00103  -0.00271  -0.00008
           D3          -0.00003  -0.00023   0.00034   0.00079   0.00014
           D4          -0.00028  -0.00124   0.00137   0.00350   0.00022
                          D1        D2        D3        D4
           D1           0.00617
           D2          -0.00323   0.00499
           D3           0.00087  -0.00073   0.00250
           D4           0.00410  -0.00342   0.00093   0.00665
 ITU=  1  0
 Use linear search instead of GDIIS.
     Eigenvalues ---    0.04978   0.07566   0.10292   0.20748   0.21715
     Eigenvalues ---    0.23816   0.27172   0.37843   0.42933
 RFO step:  Lambda=-4.80617461D-05 EMin= 4.97758269D-02
 Quartic linear search produced a step of  0.65866.
 Iteration  1 RMS(Cart)=  0.00421464 RMS(Int)=  0.00003390
 Iteration  2 RMS(Cart)=  0.00002436 RMS(Int)=  0.00002276
 Iteration  3 RMS(Cart)=  0.00000000 RMS(Int)=  0.00002276
 ClnCor:  largest displacement from symmetrization is 1.01D-04 for atom     5.
 Variable       Old X    -DE/DX   Delta X   Delta X   Delta X     New X
                                 (Linear)    (Quad)   (Total)
    R1        2.04802  -0.00009  -0.00563   0.00325  -0.00238   2.04564
    R2        2.53386   0.00416   0.00983   0.00532   0.01515   2.54901
    R3        3.37080  -0.00130  -0.00399  -0.00535  -0.00932   3.36148
    R4        3.37080  -0.00130  -0.00399  -0.00535  -0.00932   3.36148
    A1        1.92091  -0.00007  -0.00859   0.00170  -0.00687   1.91404
    A2        1.88532   0.00010   0.00138   0.00486   0.00620   1.89152
    A3        1.88532   0.00035   0.00138   0.00488   0.00620   1.89152
    A4        1.91225  -0.00017   0.00140  -0.00532  -0.00397   1.90828
    A5        1.91225  -0.00039   0.00140  -0.00542  -0.00397   1.90828
    A6        1.94744   0.00019   0.00284  -0.00034   0.00245   1.94989
    D1       -2.09257   0.00013   0.00876  -0.00187   0.00693  -2.08564
    D2        2.09257  -0.00010  -0.00876   0.00182  -0.00693   2.08564
    D3       -2.06977  -0.00045  -0.00420  -0.00882  -0.01303  -2.08280
    D4        2.12085  -0.00035   0.00456  -0.01064  -0.00610   2.11475
         Item               Value     Threshold  Converged?
 Maximum Force            0.004160     0.000450     NO 
 RMS     Force            0.001236     0.000300     NO 
 Maximum Displacement     0.009557     0.001800     NO 
 RMS     Displacement     0.004211     0.001200     NO 
 Predicted change in Energy=-5.082458D-05
 GradGradGradGradGradGradGradGradGradGradGradGradGradGradGradGradGradGrad

                          Input orientation:                          
 ---------------------------------------------------------------------
 Center     Atomic      Atomic             Coordinates (Angstroms)
 Number     Number       Type             X           Y           Z
 ---------------------------------------------------------------------
      1          6           0       -0.182145    0.522987   -0.000000
      2          1           0       -1.081328    1.125723   -0.000000
      3          9           0        0.902173    1.325314   -0.000000
      4         17           0       -0.176187   -0.475288    1.472277
      5         17           0       -0.176187   -0.475288   -1.472277
 ---------------------------------------------------------------------
                    Distance matrix (angstroms):
                    1          2          3          4          5
     1  C    0.000000
     2  H    1.082507   0.000000
     3  F    1.348878   1.993518   0.000000
     4  Cl   1.778816   2.355868   2.563713   0.000000
     5  Cl   1.778816   2.355868   2.563713   2.944554   0.000000
 Stoichiometry    CHCl2F
 Framework group  CS[SG(CHF),X(Cl2)]
 Deg. of freedom     6
 Full point group                 CS      NOp   2
 Largest Abelian subgroup         CS      NOp   2
 Largest concise Abelian subgroup CS      NOp   2
                         Standard orientation:                         
 ---------------------------------------------------------------------
 Center     Atomic      Atomic             Coordinates (Angstroms)
 Number     Number       Type             X           Y           Z
 ---------------------------------------------------------------------
      1          6           0       -0.178124    0.523426    0.000000
      2          1           0       -1.073695    1.131517    0.000000
      3          9           0        0.910962    1.319267    0.000000
      4         17           0       -0.178124   -0.474867    1.472277
      5         17           0       -0.178124   -0.474867   -1.472277
 ---------------------------------------------------------------------
 Rotational constants (GHZ):           6.9314317           3.2258895           2.3030236
 Basis read from rwf:  (5D, 7F)
 There are    98 symmetry adapted cartesian basis functions of A'  symmetry.
 There are    65 symmetry adapted cartesian basis functions of A"  symmetry.
 There are    84 symmetry adapted basis functions of A'  symmetry.
 There are    58 symmetry adapted basis functions of A"  symmetry.
   142 basis functions,   260 primitive gaussians,   163 cartesian basis functions
    25 alpha electrons       25 beta electrons
       nuclear repulsion energy       209.9304588579 Hartrees.
 NAtoms=    5 NActive=    5 NUniq=    4 SFac= 1.56D+00 NAtFMM=   60 NAOKFM=F Big=F
 Integral buffers will be    131072 words long.
 Raffenetti 2 integral format.
 Two-electron integral symmetry is turned on.
 One-electron integrals computed using PRISM.
 NBasis=   142 RedAO= T EigKep=  2.82D-03  NBF=    84    58
 NBsUse=   142 1.00D-06 EigRej= -1.00D+00 NBFU=    84    58
 Initial guess from the checkpoint file:  "/wrk/irikura/Gau-21132.chk"
 B after Tr=    -0.000000   -0.000000    0.000000
         Rot=    0.999996    0.000000    0.000000    0.002989 Ang=   0.34 deg.
 Initial guess orbital symmetries:
       Occupied  (A") (A') (A') (A') (A") (A') (A") (A') (A") (A')
                 (A") (A') (A') (A') (A") (A') (A') (A') (A") (A')
                 (A") (A') (A") (A') (A")
       Virtual   (A') (A") (A') (A') (A") (A') (A') (A') (A") (A')
                 (A') (A') (A") (A") (A') (A") (A') (A') (A') (A")
                 (A') (A") (A") (A') (A") (A") (A') (A') (A") (A')
                 (A') (A") (A') (A') (A') (A") (A') (A') (A") (A')
                 (A') (A") (A') (A") (A') (A") (A') (A") (A") (A')
                 (A") (A") (A') (A') (A") (A') (A") (A') (A") (A')
                 (A') (A") (A') (A') (A") (A') (A') (A") (A') (A")
                 (A') (A') (A") (A") (A') (A') (A") (A") (A') (A")
                 (A') (A') (A') (A') (A") (A') (A") (A') (A") (A')
                 (A") (A') (A') (A") (A') (A") (A") (A') (A') (A")
                 (A") (A') (A') (A') (A") (A") (A') (A') (A') (A')
                 (A") (A') (A") (A') (A') (A") (A')
 Keep R1 ints in memory in symmetry-blocked form, NReq=77387533.
 Requested convergence on RMS density matrix=1.00D-08 within 128 cycles.
 Requested convergence on MAX density matrix=1.00D-06.
 Requested convergence on             energy=1.00D-06.
 No special actions if energy rises.
 SCF Done:  E(RB3LYP) =  -1059.07392518     A.U. after    8 cycles
            NFock=  8  Conv=0.97D-08     -V/T= 2.0011
 Calling FoFJK, ICntrl=      2127 FMM=F ISym2X=1 I1Cent= 0 IOpClX= 0 NMat=1 NMatS=1 NMatT=0.
 ***** Axes restored to original set *****
 -------------------------------------------------------------------
 Center     Atomic                   Forces (Hartrees/Bohr)
 Number     Number              X              Y              Z
 -------------------------------------------------------------------
      1        6           0.000661561   -0.000864385   -0.000000000
      2        1          -0.000560448    0.000408270    0.000000000
      3        9           0.000059790    0.000213962   -0.000000000
      4       17          -0.000080452    0.000121077    0.000055388
      5       17          -0.000080452    0.000121077   -0.000055388
 -------------------------------------------------------------------
 Cartesian Forces:  Max     0.000864385 RMS     0.000342867

 GradGradGradGradGradGradGradGradGradGradGradGradGradGradGradGradGradGrad
 Berny optimization.
 Using GEDIIS/GDIIS optimizer.
 FormGI is forming the generalized inverse of G from B-inverse, IUseBI=4.
 Internal  Forces:  Max     0.000692928 RMS     0.000220979
 Search for a local minimum.
 Step number   3 out of a maximum of   24
 All quantities printed in internal units (Hartrees-Bohrs-Radians)
 Mixed Optimization -- En-DIIS/RFO-DIIS
 Update second derivatives using D2CorX and points    1    2    3
 DE= -5.16D-05 DEPred=-5.08D-05 R= 1.02D+00
 TightC=F SS=  1.41D+00  RLast= 2.96D-02 DXNew= 5.0454D-01 8.8662D-02
 Trust test= 1.02D+00 RLast= 2.96D-02 DXMaxT set to 3.00D-01
 The second derivative matrix:
                          R1        R2        R3        R4        A1
           R1           0.38906
           R2          -0.00748   0.37653
           R3          -0.00837   0.05822   0.25952
           R4          -0.00837   0.05822  -0.01220   0.25952
           A1          -0.00930   0.04724  -0.01065  -0.01065   0.14391
           A2           0.00918  -0.03545   0.00768   0.00768   0.00314
           A3           0.00773  -0.02430   0.00381   0.00381   0.00327
           A4          -0.00918   0.03755  -0.00921  -0.00921   0.00373
           A5          -0.01141   0.02792  -0.00446  -0.00446   0.00239
           A6           0.01249  -0.03383   0.00603   0.00603   0.01047
           D1          -0.01244   0.00451   0.00319   0.00319  -0.00394
           D2           0.01026  -0.00344  -0.00274  -0.00274   0.00323
           D3           0.00422  -0.01844   0.00573   0.00573   0.00035
           D4          -0.00604  -0.01500   0.00847   0.00847  -0.00287
                          A2        A3        A4        A5        A6
           A2           0.15705
           A3          -0.00219   0.15942
           A4           0.00377   0.00302   0.24112
           A5           0.00218   0.00057  -0.00627   0.24730
           A6          -0.00064  -0.00103  -0.00467  -0.00387   0.24409
           D1          -0.00285  -0.00290   0.00629   0.00668   0.00126
           D2           0.00238   0.00244  -0.00522  -0.00556  -0.00103
           D3          -0.00073  -0.00216   0.00011   0.00154   0.00046
           D4          -0.00311  -0.00460   0.00533   0.00709   0.00149
                          D1        D2        D3        D4
           D1           0.00351
           D2          -0.00102   0.00315
           D3          -0.00004   0.00001   0.00473
           D4           0.00098  -0.00084   0.00242   0.00557
 ITU=  1  1  0
 Use linear search instead of GDIIS.
     Eigenvalues ---    0.04652   0.07801   0.10367   0.20459   0.21626
     Eigenvalues ---    0.24064   0.27172   0.38568   0.42453
 RFO step:  Lambda=-2.99647094D-06 EMin= 4.65173773D-02
 Quartic linear search produced a step of  0.00778.
 Iteration  1 RMS(Cart)=  0.00094550 RMS(Int)=  0.00000132
 Iteration  2 RMS(Cart)=  0.00000109 RMS(Int)=  0.00000083
 Iteration  3 RMS(Cart)=  0.00000000 RMS(Int)=  0.00000083
 ClnCor:  largest displacement from symmetrization is 1.36D-05 for atom     5.
 Variable       Old X    -DE/DX   Delta X   Delta X   Delta X     New X
                                 (Linear)    (Quad)   (Total)
    R1        2.04564   0.00069  -0.00002   0.00191   0.00189   2.04753
    R2        2.54901   0.00018   0.00012   0.00072   0.00084   2.54985
    R3        3.36148  -0.00002  -0.00007  -0.00033  -0.00040   3.36107
    R4        3.36148  -0.00002  -0.00007  -0.00033  -0.00040   3.36107
    A1        1.91404  -0.00002  -0.00005  -0.00144  -0.00149   1.91254
    A2        1.89152  -0.00011   0.00005  -0.00078  -0.00074   1.89079
    A3        1.89152  -0.00015   0.00005  -0.00079  -0.00074   1.89079
    A4        1.90828  -0.00005  -0.00003   0.00052   0.00049   1.90878
    A5        1.90828   0.00003  -0.00003   0.00053   0.00049   1.90878
    A6        1.94989   0.00029   0.00002   0.00187   0.00189   1.95179
    D1       -2.08564   0.00012   0.00005   0.00190   0.00195  -2.08369
    D2        2.08564  -0.00010  -0.00005  -0.00190  -0.00195   2.08369
    D3       -2.08280   0.00005  -0.00010   0.00034   0.00024  -2.08256
    D4        2.11475   0.00015  -0.00005   0.00224   0.00219   2.11694
         Item               Value     Threshold  Converged?
 Maximum Force            0.000693     0.000450     NO 
 RMS     Force            0.000221     0.000300     YES
 Maximum Displacement     0.002038     0.001800     NO 
 RMS     Displacement     0.000944     0.001200     YES
 Predicted change in Energy=-1.502053D-06
 GradGradGradGradGradGradGradGradGradGradGradGradGradGradGradGradGradGrad

                          Input orientation:                          
 ---------------------------------------------------------------------
 Center     Atomic      Atomic             Coordinates (Angstroms)
 Number     Number       Type             X           Y           Z
 ---------------------------------------------------------------------
      1          6           0       -0.181542    0.521909   -0.000000
      2          1           0       -1.081343    1.125517   -0.000000
      3          9           0        0.902214    1.325740   -0.000000
      4         17           0       -0.176499   -0.474857    1.473045
      5         17           0       -0.176499   -0.474857   -1.473045
 ---------------------------------------------------------------------
                    Distance matrix (angstroms):
                    1          2          3          4          5
     1  C    0.000000
     2  H    1.083506   0.000000
     3  F    1.349323   1.993637   0.000000
     4  Cl   1.778603   2.355801   2.564300   0.000000
     5  Cl   1.778603   2.355801   2.564300   2.946089   0.000000
 Stoichiometry    CHCl2F
 Framework group  CS[SG(CHF),X(Cl2)]
 Deg. of freedom     6
 Full point group                 CS      NOp   2
 Largest Abelian subgroup         CS      NOp   2
 Largest concise Abelian subgroup CS      NOp   2
                         Standard orientation:                         
 ---------------------------------------------------------------------
 Center     Atomic      Atomic             Coordinates (Angstroms)
 Number     Number       Type             X           Y           Z
 ---------------------------------------------------------------------
      1          6           0       -0.177871    0.521946    0.000000
      2          1           0       -1.074607    1.130098    0.000000
      3          9           0        0.909938    1.320284    0.000000
      4         17           0       -0.177871   -0.474833    1.473045
      5         17           0       -0.177871   -0.474833   -1.473045
 ---------------------------------------------------------------------
 Rotational constants (GHZ):           6.9327526           3.2229526           2.3013488
 Basis read from rwf:  (5D, 7F)
 There are    98 symmetry adapted cartesian basis functions of A'  symmetry.
 There are    65 symmetry adapted cartesian basis functions of A"  symmetry.
 There are    84 symmetry adapted basis functions of A'  symmetry.
 There are    58 symmetry adapted basis functions of A"  symmetry.
   142 basis functions,   260 primitive gaussians,   163 cartesian basis functions
    25 alpha electrons       25 beta electrons
       nuclear repulsion energy       209.8866060628 Hartrees.
 NAtoms=    5 NActive=    5 NUniq=    4 SFac= 1.56D+00 NAtFMM=   60 NAOKFM=F Big=F
 Integral buffers will be    131072 words long.
 Raffenetti 2 integral format.
 Two-electron integral symmetry is turned on.
 One-electron integrals computed using PRISM.
 NBasis=   142 RedAO= T EigKep=  2.82D-03  NBF=    84    58
 NBsUse=   142 1.00D-06 EigRej= -1.00D+00 NBFU=    84    58
 Initial guess from the checkpoint file:  "/wrk/irikura/Gau-21132.chk"
 B after Tr=    -0.000000   -0.000000   -0.000000
         Rot=    1.000000    0.000000   -0.000000   -0.000383 Ang=  -0.04 deg.
 Initial guess orbital symmetries:
       Occupied  (A") (A') (A') (A') (A") (A') (A") (A') (A") (A')
                 (A") (A') (A') (A') (A") (A') (A') (A') (A") (A')
                 (A") (A') (A") (A') (A")
       Virtual   (A') (A") (A') (A') (A") (A') (A') (A') (A") (A')
                 (A') (A') (A") (A") (A') (A") (A') (A') (A') (A")
                 (A') (A") (A") (A') (A") (A") (A') (A') (A") (A')
                 (A') (A") (A') (A') (A') (A") (A') (A') (A") (A')
                 (A') (A") (A') (A") (A') (A") (A') (A") (A") (A')
                 (A") (A") (A') (A') (A") (A') (A") (A') (A") (A')
                 (A') (A") (A') (A') (A") (A') (A') (A") (A') (A")
                 (A') (A') (A") (A") (A') (A') (A") (A") (A') (A")
                 (A') (A') (A') (A') (A") (A') (A") (A') (A") (A')
                 (A") (A') (A') (A") (A') (A") (A") (A') (A') (A")
                 (A") (A') (A') (A') (A") (A") (A') (A') (A') (A')
                 (A") (A') (A") (A') (A') (A") (A')
 Keep R1 ints in memory in symmetry-blocked form, NReq=77387533.
 Requested convergence on RMS density matrix=1.00D-08 within 128 cycles.
 Requested convergence on MAX density matrix=1.00D-06.
 Requested convergence on             energy=1.00D-06.
 No special actions if energy rises.
 SCF Done:  E(RB3LYP) =  -1059.07392649     A.U. after    7 cycles
            NFock=  7  Conv=0.64D-08     -V/T= 2.0011
 Calling FoFJK, ICntrl=      2127 FMM=F ISym2X=1 I1Cent= 0 IOpClX= 0 NMat=1 NMatS=1 NMatT=0.
 ***** Axes restored to original set *****
 -------------------------------------------------------------------
 Center     Atomic                   Forces (Hartrees/Bohr)
 Number     Number              X              Y              Z
 -------------------------------------------------------------------
      1        6           0.000002952    0.000067605   -0.000000000
      2        1          -0.000050551   -0.000006758    0.000000000
      3        9          -0.000012495   -0.000102850   -0.000000000
      4       17           0.000030047    0.000021001   -0.000053516
      5       17           0.000030047    0.000021001    0.000053516
 -------------------------------------------------------------------
 Cartesian Forces:  Max     0.000102850 RMS     0.000041897

 GradGradGradGradGradGradGradGradGradGradGradGradGradGradGradGradGradGrad
 Berny optimization.
 Using GEDIIS/GDIIS optimizer.
 FormGI is forming the generalized inverse of G from B-inverse, IUseBI=4.
 Internal  Forces:  Max     0.000071419 RMS     0.000041393
 Search for a local minimum.
 Step number   4 out of a maximum of   24
 All quantities printed in internal units (Hartrees-Bohrs-Radians)
 Mixed Optimization -- En-DIIS/RFO-DIIS
 Swapping is turned off.
 Update second derivatives using D2CorX and points    1    2    3    4
 DE= -1.31D-06 DEPred=-1.50D-06 R= 8.70D-01
 TightC=F SS=  1.41D+00  RLast= 4.95D-03 DXNew= 5.0454D-01 1.4845D-02
 Trust test= 8.70D-01 RLast= 4.95D-03 DXMaxT set to 3.00D-01
 The second derivative matrix:
                          R1        R2        R3        R4        A1
           R1           0.35933
           R2          -0.00398   0.38675
           R3           0.00338   0.06379   0.25863
           R4           0.00338   0.06379  -0.01309   0.25863
           A1           0.01576   0.06172  -0.01339  -0.01339   0.13064
           A2           0.01578  -0.03104   0.00587   0.00587  -0.00620
           A3           0.00672  -0.02751   0.00147   0.00147  -0.00373
           A4          -0.03767   0.01345  -0.00847  -0.00847   0.01872
           A5          -0.02527   0.01693  -0.00291  -0.00291   0.01415
           A6          -0.02040  -0.04591   0.01308   0.01308   0.03386
           D1           0.01123   0.02307   0.00421   0.00421  -0.00673
           D2          -0.00941  -0.01891  -0.00359  -0.00359   0.00554
           D3           0.01293  -0.00888   0.00647   0.00647  -0.00294
           D4           0.02234   0.01003   0.01006   0.01006  -0.00847
                          A2        A3        A4        A5        A6
           A2           0.15191
           A3          -0.00471   0.16028
           A4           0.01630   0.01437   0.22505
           A5           0.01055   0.00620  -0.02165   0.23571
           A6           0.01157   0.00529  -0.03251  -0.02193   0.20872
           D1          -0.00799  -0.01082   0.00432   0.01005   0.01416
           D2           0.00666   0.00904  -0.00356  -0.00836  -0.01174
           D3          -0.00416  -0.00643   0.00220   0.00540   0.00796
           D4          -0.01082  -0.01548   0.00576   0.01375   0.01970
                          D1        D2        D3        D4
           D1           0.01232
           D2          -0.00838   0.00930
           D3           0.00323  -0.00272   0.00564
           D4           0.01160  -0.00973   0.00606   0.01809
 ITU=  1  1  1  0
     Eigenvalues ---    0.04857   0.09020   0.10412   0.19550   0.21982
     Eigenvalues ---    0.24215   0.27172   0.35963   0.43384
 En-DIIS/RFO-DIIS/Sim-DIIS IScMMF=       -3 using points:     4    3
 RFO step:  Lambda=-1.35354224D-07.
 DidBck=F Rises=F RFO-DIIS coefs:    0.81779    0.18221
 Iteration  1 RMS(Cart)=  0.00025363 RMS(Int)=  0.00000012
 Iteration  2 RMS(Cart)=  0.00000004 RMS(Int)=  0.00000011
 ClnCor:  largest displacement from symmetrization is 1.30D-06 for atom     5.
 Variable       Old X    -DE/DX   Delta X   Delta X   Delta X     New X
                                 (Linear)    (Quad)   (Total)
    R1        2.04753   0.00004  -0.00034   0.00044   0.00010   2.04763
    R2        2.54985  -0.00007  -0.00015   0.00001  -0.00014   2.54971
    R3        3.36107  -0.00006   0.00007  -0.00020  -0.00013   3.36094
    R4        3.36107  -0.00006   0.00007  -0.00020  -0.00013   3.36094
    A1        1.91254   0.00004   0.00027   0.00020   0.00047   1.91302
    A2        1.89079   0.00001   0.00013  -0.00004   0.00010   1.89088
    A3        1.89079   0.00003   0.00013  -0.00004   0.00010   1.89088
    A4        1.90878  -0.00001  -0.00009  -0.00013  -0.00022   1.90855
    A5        1.90878  -0.00004  -0.00009  -0.00013  -0.00022   1.90855
    A6        1.95179  -0.00002  -0.00034   0.00015  -0.00019   1.95159
    D1       -2.08369  -0.00004  -0.00036  -0.00014  -0.00050  -2.08418
    D2        2.08369   0.00004   0.00036   0.00014   0.00050   2.08418
    D3       -2.08256  -0.00002  -0.00004  -0.00002  -0.00006  -2.08262
    D4        2.11694  -0.00006  -0.00040  -0.00016  -0.00056   2.11638
         Item               Value     Threshold  Converged?
 Maximum Force            0.000071     0.000450     YES
 RMS     Force            0.000041     0.000300     YES
 Maximum Displacement     0.000496     0.001800     YES
 RMS     Displacement     0.000254     0.001200     YES
 Predicted change in Energy=-6.855610D-08
 Optimization completed.
    -- Stationary point found.
                           ----------------------------
                           !   Optimized Parameters   !
                           ! (Angstroms and Degrees)  !
 --------------------------                            --------------------------
 ! Name  Definition              Value          Derivative Info.                !
 --------------------------------------------------------------------------------
 ! R1    R(1,2)                  1.0835         -DE/DX =    0.0                 !
 ! R2    R(1,3)                  1.3493         -DE/DX =   -0.0001              !
 ! R3    R(1,4)                  1.7786         -DE/DX =   -0.0001              !
 ! R4    R(1,5)                  1.7786         -DE/DX =   -0.0001              !
 ! A1    A(2,1,3)              109.5807         -DE/DX =    0.0                 !
 ! A2    A(2,1,4)              108.3341         -DE/DX =    0.0                 !
 ! A3    A(2,1,5)              108.3341         -DE/DX =    0.0                 !
 ! A4    A(3,1,4)              109.3648         -DE/DX =    0.0                 !
 ! A5    A(3,1,5)              109.3648         -DE/DX =    0.0                 !
 ! A6    A(4,1,5)              111.8292         -DE/DX =    0.0                 !
 ! D1    D(2,1,4,3)           -119.3864         -DE/DX =    0.0                 !
 ! D2    D(2,1,5,3)            119.3864         -DE/DX =    0.0                 !
 ! D3    D(2,1,5,4)           -119.3218         -DE/DX =    0.0                 !
 ! D4    D(3,1,5,4)            121.2918         -DE/DX =   -0.0001              !
 --------------------------------------------------------------------------------
 GradGradGradGradGradGradGradGradGradGradGradGradGradGradGradGradGradGrad

                          Input orientation:                          
 ---------------------------------------------------------------------
 Center     Atomic      Atomic             Coordinates (Angstroms)
 Number     Number       Type             X           Y           Z
 ---------------------------------------------------------------------
      1          6           0       -0.181542    0.521909   -0.000000
      2          1           0       -1.081343    1.125517   -0.000000
      3          9           0        0.902214    1.325740   -0.000000
      4         17           0       -0.176499   -0.474857    1.473045
      5         17           0       -0.176499   -0.474857   -1.473045
 ---------------------------------------------------------------------
                    Distance matrix (angstroms):
                    1          2          3          4          5
     1  C    0.000000
     2  H    1.083506   0.000000
     3  F    1.349323   1.993637   0.000000
     4  Cl   1.778603   2.355801   2.564300   0.000000
     5  Cl   1.778603   2.355801   2.564300   2.946089   0.000000
 Stoichiometry    CHCl2F
 Framework group  CS[SG(CHF),X(Cl2)]
 Deg. of freedom     6
 Full point group                 CS      NOp   2
 Largest Abelian subgroup         CS      NOp   2
 Largest concise Abelian subgroup CS      NOp   2
                         Standard orientation:                         
 ---------------------------------------------------------------------
 Center     Atomic      Atomic             Coordinates (Angstroms)
 Number     Number       Type             X           Y           Z
 ---------------------------------------------------------------------
      1          6           0       -0.177871    0.521946    0.000000
      2          1           0       -1.074607    1.130098    0.000000
      3          9           0        0.909938    1.320284    0.000000
      4         17           0       -0.177871   -0.474833    1.473045
      5         17           0       -0.177871   -0.474833   -1.473045
 ---------------------------------------------------------------------
 Rotational constants (GHZ):           6.9327526           3.2229526           2.3013488

 **********************************************************************

            Population analysis using the SCF Density.

 **********************************************************************

 Orbital symmetries:
       Occupied  (A") (A') (A') (A') (A") (A') (A") (A') (A") (A')
                 (A") (A') (A') (A') (A") (A') (A') (A') (A") (A')
                 (A") (A') (A") (A') (A")
       Virtual   (A') (A") (A') (A') (A") (A') (A') (A') (A") (A')
                 (A') (A') (A") (A") (A') (A") (A') (A') (A') (A")
                 (A') (A") (A") (A') (A") (A") (A') (A') (A") (A')
                 (A') (A") (A') (A') (A') (A") (A') (A') (A") (A')
                 (A') (A") (A') (A") (A') (A") (A') (A") (A") (A')
                 (A") (A") (A') (A') (A") (A') (A") (A') (A") (A')
                 (A') (A") (A') (A') (A") (A') (A') (A") (A') (A")
                 (A') (A') (A") (A") (A') (A') (A") (A") (A') (A")
                 (A') (A') (A') (A') (A") (A') (A") (A') (A") (A')
                 (A") (A') (A') (A") (A') (A") (A") (A') (A') (A")
                 (A") (A') (A') (A') (A") (A") (A') (A') (A') (A')
                 (A") (A') (A") (A') (A') (A") (A')
 The electronic state is 1-A'.
 Alpha  occ. eigenvalues -- -101.53841-101.53841 -24.72504 -10.39000  -9.48402
 Alpha  occ. eigenvalues --   -9.48402  -7.24585  -7.24585  -7.23663  -7.23663
 Alpha  occ. eigenvalues --   -7.23643  -7.23643  -1.27060  -0.91591  -0.85209
 Alpha  occ. eigenvalues --   -0.68948  -0.57756  -0.53731  -0.53135  -0.42564
 Alpha  occ. eigenvalues --   -0.41946  -0.36441  -0.34413  -0.34139  -0.32926
 Alpha virt. eigenvalues --   -0.03204   0.01420   0.02196   0.06055   0.12995
 Alpha virt. eigenvalues --    0.13531   0.20848   0.23470   0.26889   0.28584
 Alpha virt. eigenvalues --    0.31236   0.32515   0.32556   0.34208   0.34603
 Alpha virt. eigenvalues --    0.40872   0.42022   0.42607   0.52199   0.53561
 Alpha virt. eigenvalues --    0.54660   0.54676   0.59419   0.62419   0.64170
 Alpha virt. eigenvalues --    0.67421   0.69673   0.72608   0.85926   0.87662
 Alpha virt. eigenvalues --    0.89752   0.96486   1.00117   1.04087   1.10872
 Alpha virt. eigenvalues --    1.12541   1.20045   1.31266   1.33512   1.54359
 Alpha virt. eigenvalues --    1.72729   1.73409   1.84579   1.90306   1.93451
 Alpha virt. eigenvalues --    1.99186   2.00767   2.07751   2.08642   2.09144
 Alpha virt. eigenvalues --    2.09709   2.10040   2.10344   2.11259   2.12104
 Alpha virt. eigenvalues --    2.16023   2.17055   2.18388   2.18827   2.21374
 Alpha virt. eigenvalues --    2.28312   2.28354   2.34332   2.40539   2.47926
 Alpha virt. eigenvalues --    2.48110   2.51501   2.58778   2.64764   2.91896
 Alpha virt. eigenvalues --    2.95898   3.24202   3.25879   3.30914   3.34435
 Alpha virt. eigenvalues --    3.45985   3.47175   3.48685   3.51311   3.55034
 Alpha virt. eigenvalues --    3.56607   3.66996   3.69245   3.72197   3.76041
 Alpha virt. eigenvalues --    3.92388   3.97838   4.04439   4.09390   4.20449
 Alpha virt. eigenvalues --    4.23003   4.27643   4.31922   4.32803   4.42068
 Alpha virt. eigenvalues --    4.44320   4.56709   4.57891   4.71623   4.79472
 Alpha virt. eigenvalues --    4.95471   5.03415   5.33534   5.41930   5.44745
 Alpha virt. eigenvalues --    5.49997   5.50850   5.68239   5.73634   6.04825
 Alpha virt. eigenvalues --    7.53362   7.54675   8.01326   8.04342   8.11540
 Alpha virt. eigenvalues --   32.72630  32.78240
          Condensed to atoms (all electrons):
               1          2          3          4          5
     1  C    4.321888   0.442965   0.248839   0.338803   0.338803
     2  H    0.442965   0.631644  -0.047188  -0.055470  -0.055470
     3  F    0.248839  -0.047188   9.147009  -0.058920  -0.058920
     4  Cl   0.338803  -0.055470  -0.058920  16.930654  -0.074368
     5  Cl   0.338803  -0.055470  -0.058920  -0.074368  16.930654
 Mulliken charges:
               1
     1  C    0.308700
     2  H    0.083519
     3  F   -0.230820
     4  Cl  -0.080699
     5  Cl  -0.080699
 Sum of Mulliken charges =   0.00000
 Mulliken charges with hydrogens summed into heavy atoms:
               1
     1  C    0.392219
     3  F   -0.230820
     4  Cl  -0.080699
     5  Cl  -0.080699
 Electronic spatial extent (au):  <R**2>=            473.5598
 Charge=              0.0000 electrons
 Dipole moment (field-independent basis, Debye):
    X=             -1.2159    Y=              0.5636    Z=             -0.0000  Tot=              1.3402
 Quadrupole moment (field-independent basis, Debye-Ang):
   XX=            -36.3181   YY=            -36.0335   ZZ=            -36.6664
   XY=             -2.0551   XZ=             -0.0000   YZ=              0.0000
 Traceless Quadrupole moment (field-independent basis, Debye-Ang):
   XX=              0.0213   YY=              0.3058   ZZ=             -0.3271
   XY=             -2.0551   XZ=             -0.0000   YZ=              0.0000
 Octapole moment (field-independent basis, Debye-Ang**2):
  XXX=              3.7447  YYY=              5.5458  ZZZ=             -0.0000  XYY=             -0.9031
  XXY=              2.8591  XXZ=              0.0000  XZZ=              2.1199  YZZ=             -1.6785
  YYZ=              0.0000  XYZ=              0.0000
 Hexadecapole moment (field-independent basis, Debye-Ang**3):
 XXXX=            -72.5144 YYYY=           -137.1528 ZZZZ=           -351.2424 XXXY=            -22.3447
 XXXZ=             -0.0000 YYYX=            -23.2951 YYYZ=             -0.0000 ZZZX=             -0.0000
 ZZZY=             -0.0000 XXYY=            -34.5840 XXZZ=            -75.2690 YYZZ=            -78.6521
 XXYZ=             -0.0000 YYXZ=             -0.0000 ZZXY=             -6.0957
 N-N= 2.098866060628D+02 E-N=-2.937621839706D+03  KE= 1.057864905540D+03
 Symmetry A'   KE= 5.895477756647D+02
[...]
  YYZ=              0.0000  XYZ=             -0.0000
 Hexadecapole moment (field-independent basis, Debye-Ang**3):
 XXXX=            -72.5144 YYYY=           -137.1528 ZZZZ=           -351.2425 XXXY=            -22.3447
 XXXZ=             -0.0000 YYYX=            -23.2951 YYYZ=             -0.0000 ZZZX=             -0.0000
 ZZZY=             -0.0000 XXYY=            -34.5840 XXZZ=            -75.2690 YYZZ=            -78.6521
 XXYZ=             -0.0000 YYXZ=             -0.0000 ZZXY=             -6.0957
 N-N= 2.098866060628D+02 E-N=-2.937621826265D+03  KE= 1.057864899528D+03
 Symmetry A'   KE= 5.895477722239D+02
 Symmetry A"   KE= 4.683171273037D+02
  Exact polarizability:  27.278   1.173  33.059  -0.000  -0.000  47.511
 Approx polarizability:  40.121   2.155  50.356   0.000   0.000  68.441
 Calling FoFJK, ICntrl=    100127 FMM=F ISym2X=1 I1Cent= 0 IOpClX= 0 NMat=1 NMatS=1 NMatT=0.
 Full mass-weighted force constant matrix:
 Low frequencies ---   -0.0016    0.0015    0.0043    1.6104    5.7239    7.5910
 Low frequencies ---  271.3096  361.9148  451.3902
 Diagonal vibrational polarizability:
        2.2963657       5.4937907      13.0833137
 Harmonic frequencies (cm**-1), IR intensities (KM/Mole), Raman scattering
 activities (A**4/AMU), depolarization ratios for plane and unpolarized
 incident light, reduced masses (AMU), force constants (mDyne/A),
 and normal coordinates:
                      1                      2                      3
                     A'                     A"                     A'
 Frequencies --    271.3096               361.9148               451.3902
 Red. masses --     21.6140                20.1295                17.5507
 Frc consts  --      0.9374                 1.5534                 2.1069
 IR Inten    --      0.0297                 0.0316                 1.4021
  Atom  AN      X      Y      Z        X      Y      Z        X      Y      Z
     1   6    -0.11  -0.35  -0.00    -0.00  -0.00  -0.07     0.49   0.05  -0.00
     2   1    -0.18  -0.45   0.00    -0.00  -0.00  -0.39     0.38  -0.14  -0.00
     3   9    -0.15  -0.35  -0.00    -0.00  -0.00   0.78     0.17   0.59   0.00
     4  17     0.06   0.16   0.46     0.16   0.24  -0.19    -0.14  -0.17   0.24
     5  17     0.06   0.16  -0.46    -0.16  -0.24  -0.19    -0.14  -0.17  -0.24
                      4                      5                      6
                     A'                     A"                     A'
 Frequencies --    721.0402               766.0700              1076.3424
 Red. masses --      6.3974                 8.1356                11.4797
 Frc consts  --      1.9596                 2.8131                 7.8358
 IR Inten    --     47.3159               263.4308               211.4731
  Atom  AN      X      Y      Z        X      Y      Z        X      Y      Z
     1   6    -0.29   0.54  -0.00    -0.00   0.00   0.73     0.65   0.39   0.00
     2   1    -0.18   0.74  -0.00    -0.00   0.00   0.65     0.44   0.06  -0.00
     3   9     0.06  -0.06   0.00     0.00   0.00  -0.10    -0.41  -0.26  -0.00
     4  17     0.04  -0.09   0.09    -0.02   0.06  -0.11    -0.01   0.00  -0.01
     5  17     0.04  -0.09  -0.09     0.02  -0.06  -0.11    -0.01   0.00   0.01
                      7                      8                      9
                     A"                     A'                     A'
 Frequencies --   1250.5595              1332.9990              3151.0356
 Red. masses --      1.0945                 1.1133                 1.0886
 Frc consts  --      1.0085                 1.1655                 6.3681
 IR Inten    --     57.9351                14.9082                 2.5203
  Atom  AN      X      Y      Z        X      Y      Z        X      Y      Z
     1   6     0.00   0.00  -0.08    -0.02  -0.08   0.00    -0.07   0.05   0.00
     2   1     0.00   0.00   1.00     0.58   0.81  -0.00     0.83  -0.55  -0.00
     3   9    -0.00  -0.00   0.01    -0.04   0.01  -0.00     0.00  -0.00  -0.00
     4  17    -0.01   0.01  -0.00     0.00  -0.00   0.00     0.00  -0.00  -0.00
     5  17     0.01  -0.01  -0.00     0.00  -0.00  -0.00     0.00  -0.00   0.00

 -------------------
 - Thermochemistry -
 -------------------
 Temperature   298.150 Kelvin.  Pressure   1.00000 Atm.
 Atom     1 has atomic number  6 and mass  12.00000
 Atom     2 has atomic number  1 and mass   1.00783
 Atom     3 has atomic number  9 and mass  18.99840
 Atom     4 has atomic number 17 and mass  34.96885
 Atom     5 has atomic number 17 and mass  34.96885
 Molecular mass:   101.94393 amu.
 Principal axes and moments of inertia in atomic units:
                           1         2         3
     Eigenvalues --   260.32102 559.96517 784.21021
           X            0.00000   0.47903   0.87780
           Y            0.00000   0.87780  -0.47903
           Z            1.00000  -0.00000   0.00000
 This molecule is an asymmetric top.
 Rotational symmetry number  1.
 Rotational temperatures (Kelvin)      0.33272     0.15468     0.11045
 Rotational constants (GHZ):           6.93275     3.22295     2.30135
 Zero-point vibrational energy      56120.8 (Joules/Mol)
                                   13.41319 (Kcal/Mol)
 Warning -- explicit consideration of   3 degrees of freedom as
           vibrations may cause significant error
 Vibrational temperatures:    390.35   520.71   649.45  1037.42  1102.20
          (Kelvin)           1548.62  1799.28  1917.89  4533.64
 
 Zero-point correction=                           0.021375 (Hartree/Particle)
 Thermal correction to Energy=                    0.025520
 Thermal correction to Enthalpy=                  0.026464
 Thermal correction to Gibbs Free Energy=        -0.006867
 Sum of electronic and zero-point Energies=          -1059.052551
 Sum of electronic and thermal Energies=             -1059.048406
 Sum of electronic and thermal Enthalpies=           -1059.047462
 Sum of electronic and thermal Free Energies=        -1059.080794
 
                     E (Thermal)             CV                S
                      KCal/Mol        Cal/Mol-Kelvin    Cal/Mol-Kelvin
 Total                   16.014             12.702             70.152
 Electronic               0.000              0.000              0.000
 Translational            0.889              2.981             39.775
 Rotational               0.889              2.981             26.239
 Vibrational             14.237              6.740              4.138
 Vibration     1          0.675              1.726              1.588
 Vibration     2          0.736              1.551              1.114
 Vibration     3          0.810              1.358              0.792
                       Q            Log10(Q)             Ln(Q)
 Total Bot       0.144120D+04          3.158724          7.273231
 Total V=0       0.978722D+13         12.990659         29.912099
 Vib (Bot)       0.294328D-09         -9.531169        -21.946327
 Vib (Bot)    1  0.711851D+00         -0.147611         -0.339887
 Vib (Bot)    2  0.505799D+00         -0.296022         -0.681615
 Vib (Bot)    3  0.379480D+00         -0.420811         -0.968954
 Vib (V=0)       0.199879D+01          0.300766          0.692540
 Vib (V=0)    1  0.136990D+01          0.136690          0.314740
 Vib (V=0)    2  0.121122D+01          0.083223          0.191628
 Vib (V=0)    3  0.112770D+01          0.052193          0.120178
 Electronic      0.100000D+01          0.000000          0.000000
 Translational   0.404572D+08          7.606996         17.515756
 Rotational      0.121031D+06          5.082897         11.703803
 ***** Axes restored to original set *****
 -------------------------------------------------------------------
 Center     Atomic                   Forces (Hartrees/Bohr)
 Number     Number              X              Y              Z
 -------------------------------------------------------------------
      1        6           0.000003017    0.000067613    0.000000000
      2        1          -0.000050544   -0.000006767    0.000000000
      3        9          -0.000012545   -0.000102880   -0.000000000
      4       17           0.000030036    0.000021017   -0.000053529
      5       17           0.000030036    0.000021017    0.000053529
 -------------------------------------------------------------------
 Cartesian Forces:  Max     0.000102880 RMS     0.000041906
 FormGI is forming the generalized inverse of G from B-inverse, IUseBI=4.

 GradGradGradGradGradGradGradGradGradGradGradGradGradGradGradGradGradGrad
 Berny optimization.
 Internal  Forces:  Max     0.000071477 RMS     0.000041400
 Search for a local minimum.
 Step number   1 out of a maximum of    2
 All quantities printed in internal units (Hartrees-Bohrs-Radians)
 Second derivative matrix not updated -- analytic derivatives used.
 The second derivative matrix:
                          R1        R2        R3        R4        A1
           R1           0.34954
           R2           0.01284   0.36814
           R3           0.00516   0.04124   0.19714
           R4           0.00516   0.04124   0.02972   0.19714
           A1           0.00202   0.01009  -0.00335  -0.00792   0.02715
           A2          -0.00020  -0.00233   0.01157  -0.01710  -0.00905
           A3          -0.00038  -0.01527  -0.01638   0.01303  -0.01207
           A4          -0.00031   0.00968   0.01279  -0.01806  -0.01061
           A5          -0.00074   0.01789  -0.01701   0.01531  -0.02347
           A6          -0.00030  -0.01999   0.01215   0.01434   0.02880
           D1          -0.00214  -0.01640  -0.01018   0.03009  -0.02131
           D2           0.00178   0.01351  -0.02354   0.00698   0.01209
           D3           0.00068   0.02483  -0.01107   0.00404   0.00155
           D4          -0.00110   0.01132   0.01247  -0.00294  -0.01054
                          A2        A3        A4        A5        A6
           A2           0.04741
           A3          -0.02240   0.09155
           A4           0.00262   0.03157   0.07750
           A5           0.02705  -0.04886  -0.04928   0.14026
           A6          -0.04556  -0.03894  -0.05160  -0.04716   0.15408
           D1          -0.01856   0.00954  -0.03355   0.04087   0.02194
           D2          -0.00849   0.01118  -0.02269   0.02394  -0.01547
           D3          -0.01655  -0.00787   0.00760   0.02665  -0.01181
           D4          -0.00806  -0.01904   0.03029   0.00271   0.00366
                          D1        D2        D3        D4
           D1           0.05608
           D2           0.00354   0.03503
           D3           0.00350   0.01264   0.03267
           D4          -0.00004  -0.02239   0.02003   0.04243
 ITU=  0
     Eigenvalues ---    0.05245   0.07733   0.09172   0.18134   0.19107
     Eigenvalues ---    0.23529   0.24176   0.34554   0.39960
 Angle between quadratic step and forces=  35.65 degrees.
 Linear search not attempted -- first point.
 Iteration  1 RMS(Cart)=  0.00026206 RMS(Int)=  0.00000006
 Iteration  2 RMS(Cart)=  0.00000004 RMS(Int)=  0.00000004
 ClnCor:  largest displacement from symmetrization is 2.47D-08 for atom     5.
 Variable       Old X    -DE/DX   Delta X   Delta X   Delta X     New X
                                 (Linear)    (Quad)   (Total)
    R1        2.04753   0.00004   0.00000   0.00011   0.00011   2.04764
    R2        2.54985  -0.00007   0.00000  -0.00018  -0.00018   2.54967
    R3        3.36107  -0.00006   0.00000  -0.00014  -0.00014   3.36093
    R4        3.36107  -0.00006   0.00000  -0.00014  -0.00014   3.36093
    A1        1.91254   0.00004   0.00000   0.00048   0.00048   1.91302
    A2        1.89079   0.00001   0.00000   0.00010   0.00010   1.89088
    A3        1.89079   0.00003   0.00000   0.00010   0.00010   1.89088
    A4        1.90878  -0.00001   0.00000  -0.00023  -0.00023   1.90854
    A5        1.90878  -0.00004   0.00000  -0.00023  -0.00023   1.90854
    A6        1.95179  -0.00002   0.00000  -0.00018  -0.00018   1.95161
    D1       -2.08369  -0.00004   0.00000  -0.00050  -0.00050  -2.08418
    D2        2.08369   0.00004   0.00000   0.00050   0.00050   2.08418
    D3       -2.08256  -0.00002   0.00000  -0.00007  -0.00007  -2.08263
    D4        2.11694  -0.00006   0.00000  -0.00057  -0.00057   2.11637
         Item               Value     Threshold  Converged?
 Maximum Force            0.000071     0.000450     YES
 RMS     Force            0.000041     0.000300     YES
 Maximum Displacement     0.000541     0.001800     YES
 RMS     Displacement     0.000262     0.001200     YES
 Predicted change in Energy=-7.174038D-08
 Optimization completed.
    -- Stationary point found.
                           ----------------------------
                           !   Optimized Parameters   !
                           ! (Angstroms and Degrees)  !
 --------------------------                            --------------------------
 ! Name  Definition              Value          Derivative Info.                !
 --------------------------------------------------------------------------------
 ! R1    R(1,2)                  1.0835         -DE/DX =    0.0                 !
 ! R2    R(1,3)                  1.3493         -DE/DX =   -0.0001              !
 ! R3    R(1,4)                  1.7786         -DE/DX =   -0.0001              !
 ! R4    R(1,5)                  1.7786         -DE/DX =   -0.0001              !
 ! A1    A(2,1,3)              109.5807         -DE/DX =    0.0                 !
 ! A2    A(2,1,4)              108.3341         -DE/DX =    0.0                 !
 ! A3    A(2,1,5)              108.3341         -DE/DX =    0.0                 !
 ! A4    A(3,1,4)              109.3648         -DE/DX =    0.0                 !
 ! A5    A(3,1,5)              109.3648         -DE/DX =    0.0                 !
 ! A6    A(4,1,5)              111.8292         -DE/DX =    0.0                 !
 ! D1    D(2,1,4,3)           -119.3864         -DE/DX =    0.0                 !
 ! D2    D(2,1,5,3)            119.3864         -DE/DX =    0.0                 !
 ! D3    D(2,1,5,4)           -119.3218         -DE/DX =    0.0                 !
 ! D4    D(3,1,5,4)            121.2918         -DE/DX =   -0.0001              !
 --------------------------------------------------------------------------------
 GradGradGradGradGradGradGradGradGradGradGradGradGradGradGradGradGradGrad


 ----------------------------------------------------------------------

 Electric dipole moment (input orientation):
 (Debye = 10**-18 statcoulomb cm , SI units = C m)
                  (au)            (Debye)         (10**-30 SI)
   Tot        0.527260D+00      0.134016D+01      0.447030D+01
   x         -0.479492D+00     -0.121875D+01     -0.406530D+01
   y          0.219296D+00      0.557396D+00      0.185927D+01
   z          0.000000D+00      0.000000D+00      0.000000D+00

 Dipole polarizability, Alpha (input orientation).
 (esu units = cm**3 , SI units = C**2 m**2 J**-1)
 Alpha(0;0):
               (au)            (10**-24 esu)      (10**-40 SI)
   iso        0.359495D+02      0.532716D+01      0.592727D+01
   aniso      0.181647D+02      0.269173D+01      0.299496D+01
   xx         0.272665D+02      0.404048D+01      0.449564D+01
   yx         0.114412D+01      0.169541D+00      0.188640D+00
   yy         0.330708D+02      0.490058D+01      0.545263D+01
   zx         0.000000D+00      0.000000D+00      0.000000D+00
   zy         0.000000D+00      0.000000D+00      0.000000D+00
   zz         0.475112D+02      0.704043D+01      0.783353D+01

 ----------------------------------------------------------------------

 Dipole orientation:
     6          0.31369534          0.68589552          0.72218756
     1          0.45098828          0.98608683          2.74293249
     9          1.24252034          2.71677336         -0.50848500
    17          2.13435296         -2.02604172         -0.06990616
    17         -2.92856653          0.28949205         -0.06990616

 Electric dipole moment (dipole orientation):
 (Debye = 10**-18 statcoulomb cm , SI units = C m)
                  (au)            (Debye)         (10**-30 SI)
   Tot        0.527260D+00      0.134016D+01      0.447030D+01
   x          0.000000D+00      0.000000D+00      0.000000D+00
   y          0.000000D+00      0.000000D+00      0.000000D+00
   z          0.527260D+00      0.134016D+01      0.447030D+01

 Dipole polarizability, Alpha (dipole orientation).
 (esu units = cm**3 , SI units = C**2 m**2 J**-1)
 Alpha(0;0):
               (au)            (10**-24 esu)      (10**-40 SI)
   iso        0.359495D+02      0.532716D+01      0.592727D+01
   aniso      0.181647D+02      0.269173D+01      0.299496D+01
   xx         0.449892D+02      0.666671D+01      0.741772D+01
   yx        -0.551428D+01     -0.817132D+00     -0.909182D+00
   yy         0.354542D+02      0.525377D+01      0.584560D+01
   zx         0.601871D+00      0.891881D-01      0.992351D-01
   zy         0.131599D+01      0.195010D+00      0.216978D+00
   zz         0.274051D+02      0.406101D+01      0.451849D+01

 ----------------------------------------------------------------------
 1\1\GINC-GAMBA\Freq\RB3LYP\Gen\C1H1Cl2F1\IRIKURA\16-Jun-2022\0\\#N Geo
 m=AllCheck Guess=TCheck SCRF=Check GenChk RB3LYP/ChkBas Freq\\chlorodi
 fluoromethane, B3LYP/pcseg-2\\0,1\C,-0.1815416471,0.5219091649,0.\H,-1
 .0813429312,1.125516657,0.\F,0.9022143249,1.3257402364,0.\Cl,-0.176498
 5575,-0.4748571547,1.4730446435\Cl,-0.1764985575,-0.4748571547,-1.4730
 446435\\Version=ES64L-G16RevB.01\State=1-A'\HF=-1059.0739265\RMSD=2.23
 9e-09\RMSF=4.191e-05\ZeroPoint=0.0213753\Thermal=0.0255201\Dipole=-0.4
 794919,0.2192963,0.\DipoleDeriv=0.7928083,0.5311485,0.,0.3894302,1.201
 1849,0.,0.,0.,1.8317089,0.0210229,-0.0092301,0.,0.0412188,-0.0344653,0
 .,0.,0.,-0.1119778,-0.6292288,-0.5371355,0.,-0.3577153,-0.6779855,0.,0
 .,0.,-0.3731015,-0.0923012,0.0076085,-0.0192282,-0.0364669,-0.2443671,
 0.291486,0.0514204,0.2144466,-0.6733148,-0.0923012,0.0076085,0.0192282
 ,-0.0364669,-0.2443671,-0.291486,-0.0514204,-0.2144466,-0.6733148\Pola
 r=27.2665027,1.1441227,33.0707704,0.,0.,47.511161\Quadrupole=0.0312863
 ,0.2118981,-0.2431844,-1.5288991,0.,0.\PG=CS [SG(C1H1F1),X(Cl2)]\NImag
 =0\\0.54061563,-0.08516047,0.38857794,0.,0.,0.26147152,-0.23778044,0.1
 3463939,0.,0.26326108,0.14757813,-0.14218572,0.,-0.13181625,0.14826617
 ,0.,0.,-0.03753174,0.,0.,0.05574990,-0.22349177,-0.07409924,0.,-0.0365
 6609,-0.03297787,0.,0.26206855,-0.10289051,-0.12013908,0.,-0.00011326,
 0.00948311,0.,0.14860618,0.16025037,0.,0.,-0.05844821,0.,0.,0.00757614
 ,0.,0.,0.06524714,-0.03967171,0.01231016,-0.01030726,0.00554273,0.0086
 0799,-0.01429506,-0.00100534,-0.02280121,0.02165237,0.02992181,0.02023
 642,-0.06312657,0.03236950,-0.00135494,-0.00778178,0.02221577,-0.02076
 453,-0.02479720,0.02419738,0.00292815,0.08566534,-0.02104679,0.0435023
 5,-0.08274579,0.00160460,0.00966609,-0.01289715,0.01879256,0.02260820,
 -0.00718754,0.00179979,-0.07727964,0.14360596,-0.03967171,0.01231016,0
 .01030726,0.00554273,0.00860799,0.01429506,-0.00100534,-0.02280121,-0.
 02165237,0.00521251,-0.00104510,-0.00115016,0.02992181,0.02023642,-0.0
 6312657,-0.03236950,-0.00135494,-0.00778178,-0.02221577,-0.02076453,-0
 .02479720,-0.02419738,-0.00104510,0.01004021,0.00150301,0.00292815,0.0
 8566534,0.02104679,-0.04350235,-0.08274579,-0.00160460,-0.00966609,-0.
 01289715,-0.01879256,-0.02260820,-0.00718754,0.00115016,-0.00150301,-0
 .04077548,-0.00179979,0.07727964,0.14360596\\-0.00000302,-0.00006761,0
 .,0.00005054,0.00000677,0.,0.00001255,0.00010288,0.,-0.00003004,-0.000
 02102,0.00005353,-0.00003004,-0.00002102,-0.00005353\\\@


 THE PROBLEM WITH THE LADDER OF SUCCESS IS YOU CAN'T
 CLIMB IT WHILE YOU'RE TWIDDLING YOUR THUMBS.
 Job cpu time:       0 days  0 hours  4 minutes  3.9 seconds.
 Elapsed time:       0 days  0 hours  0 minutes 20.4 seconds.
 File lengths (MBytes):  RWF=     17 Int=      0 D2E=      0 Chk=      3 Scr=      1
 Normal termination of Gaussian 16 at Thu Jun 16 09:07:04 2022.
