 Entering Gaussian System, Link 0=g16
 AtFile(1): pcseg2.gbs
            -H     0
            S   4   1.00
                  0.754732D+02           0.427821D-02
                  0.113575D+02           0.328672D-01
                  0.260081D+01           0.159578D+00
                  0.735503D+00           0.500000D+00
            S   1   1.00
                  0.231761D+00           1.0000000
            S   1   1.00
                  0.741675D-01           1.0000000
            P   1   1.00
                  0.160000D+01           1.0000000
            P   1   1.00
                  0.450000D+00           1.0000000
            D   1   1.00
                  0.125000D+01           1.0000000
            ****
            -C     0
            S   7   1.00
                  0.731999D+04           0.695369D-03
                  0.109818D+04           0.537138D-02
                  0.250014D+03           0.274734D-01
                  0.707586D+02           0.105078D+00
                  0.228595D+02           0.291262D+00
                  0.803936D+01           0.500000D+00
                  0.289309D+01           0.362224D+00
            S   2   1.00
                  0.521640D+01          -0.957844D-01
                  0.556124D+00           0.500000D+00
            S   1   1.00
                  0.228813D+00           1.0000000
            S   1   1.00
                  0.936338D-01           1.0000000
            P   4   1.00
                  0.339855D+02           0.818395D-02
                  0.772957D+01           0.586921D-01
                  0.224954D+01           0.222514D+00
                  0.767681D+00           0.500000D+00
            P   1   1.00
                  0.263283D+00           1.0000000
            P   1   1.00
                  0.848744D-01           1.0000000
            D   1   1.00
                  0.140000D+01           1.0000000
            D   1   1.00
                  0.450000D+00           1.0000000
            F   1   1.00
                  0.950000D+00           1.0000000
            ****
            -O     0
            S   7   1.00
                  0.135887D+05           0.665492D-03
                  0.203847D+04           0.514222D-02
                  0.464041D+03           0.263472D-01
                  0.131339D+03           0.101500D+00
                  0.425340D+02           0.285877D+00
                  0.150429D+02           0.500000D+00
                  0.546616D+01           0.368211D+00
            S   2   1.00
                  0.100915D+02          -0.100084D+00
                  0.110429D+01           0.500000D+00
            S   1   1.00
                  0.448082D+00           1.0000000
            S   1   1.00
                  0.175325D+00           1.0000000
            P   4   1.00
                  0.608220D+02           0.908253D-02
                  0.140332D+02           0.645878D-01
                  0.418244D+01           0.241502D+00
                  0.142490D+01           0.500000D+00
            P   1   1.00
                  0.478741D+00           1.0000000
            P   1   1.00
                  0.146257D+00           1.0000000
            D   1   1.00
                  0.220000D+01           1.0000000
            D   1   1.00
                  0.650000D+00           1.0000000
            F   1   1.00
                  0.110000D+01           1.0000000
            ****
            -N     0
            S   7   1.00
                  0.101643D+05           0.682757D-03
                  0.152481D+04           0.527488D-02
                  0.347119D+03           0.270037D-01
                  0.982389D+02           0.103673D+00
                  0.317799D+02           0.289575D+00
                  0.112240D+02           0.500000D+00
                  0.406611D+01           0.364621D+00
            S   2   1.00
                  0.747898D+01          -0.975681D-01
                  0.805040D+00           0.500000D+00
            S   1   1.00
                  0.324626D+00           1.0000000
            S   1   1.00
                  0.128132D+00           1.0000000
            P   4   1.00
                  0.482704D+02           0.829547D-02
                  0.110815D+02           0.596223D-01
                  0.326643D+01           0.227889D+00
                  0.111680D+01           0.500000D+00
            P   1   1.00
                  0.382049D+00           1.0000000
            P   1   1.00
                  0.121222D+00           1.0000000
            D   1   1.00
                  0.180000D+01           1.0000000
            D   1   1.00
                  0.550000D+00           1.0000000
            F   1   1.00
                  0.102000D+01           1.0000000
            ****
            -F     0
            S   7   1.00
                  0.174507D+05           0.655972D-03
                  0.261768D+04           0.506944D-02
                  0.595857D+03           0.259899D-01
                  0.168651D+03           0.100353D+00
                  0.546654D+02           0.284095D+00
                  0.193717D+02           0.500000D+00
                  0.706202D+01           0.370721D+00
            S   2   1.00
                  0.131197D+02          -0.101997D+00
                  0.145046D+01           0.500000D+00
            S   1   1.00
                  0.588255D+00           1.0000000
            S   1   1.00
                  0.227960D+00           1.0000000
            P   4   1.00
                  0.779407D+02           0.931135D-02
                  0.180425D+02           0.663964D-01
                  0.542342D+01           0.246386D+00
                  0.184876D+01           0.500000D+00
            P   1   1.00
                  0.617455D+00           1.0000000
            P   1   1.00
                  0.185496D+00           1.0000000
            D   1   1.00
                  0.280000D+01           1.0000000
            D   1   1.00
                  0.800000D+00           1.0000000
            F   1   1.00
                  0.120000D+01           1.0000000
            ****
            -Cl     0
            S   8   1.00
                  0.154272D+06           0.222473D-03
                  0.231232D+05           0.172590D-02
                  0.526257D+04           0.899286D-02
                  0.148995D+04           0.367724D-01
                  0.485417D+03           0.121446D+00
                  0.174634D+03           0.304148D+00
                  0.672393D+02           0.500000D+00
                  0.265780D+02           0.360252D+00
            S   3   1.00
                  0.131826D+03          -0.531330D-01
                  0.400703D+02          -0.233346D+00
                  0.789448D+01           0.500000D+00
            S   2   1.00
                  0.427711D+01           0.500000D+00
                  0.196233D+01           0.370517D+00
            S   1   1.00
                  0.520793D+00           1.0000000
            S   1   1.00
                  0.181633D+00           1.0000000
            P   7   1.00
                  0.124440D+04           0.988206D-03
                  0.295109D+03           0.829674D-02
                  0.947224D+02           0.430906D-01
                  0.352588D+02           0.148443D+00
                  0.144211D+02           0.344744D+00
                  0.610371D+01           0.500000D+00
                  0.258886D+01           0.348278D+00
            P   2   1.00
                  0.109447D+02          -0.196768D-01
                  0.104413D+01           0.500000D+00
            P   1   1.00
                  0.376184D+00           1.0000000
            P   1   1.00
                  0.120613D+00           1.0000000
            D   1   1.00
                  0.231000D+01           1.0000000
            D   1   1.00
                  0.520000D+00           1.0000000
            F   1   1.00
                  0.720000D+00           1.0000000
            ****
            -S     0
            S   8   1.00
                  0.134700D+06           0.226231D-03
                  0.201904D+05           0.175488D-02
                  0.459528D+04           0.914190D-02
                  0.130109D+04           0.373551D-01
                  0.423902D+03           0.123121D+00
                  0.152485D+03           0.306801D+00
                  0.586925D+02           0.500000D+00
                  0.231461D+02           0.354358D+00
            S   3   1.00
                  0.116327D+03          -0.491772D-01
                  0.352841D+02          -0.215962D+00
                  0.677831D+01           0.500000D+00
            S   2   1.00
                  0.360404D+01           0.500000D+00
                  0.164871D+01           0.366278D+00
            S   1   1.00
                  0.421821D+00           1.0000000
            S   1   1.00
                  0.147554D+00           1.0000000
            P   7   1.00
                  0.104863D+04           0.105273D-02
                  0.248717D+03           0.879338D-02
                  0.797887D+02           0.453358D-01
                  0.296023D+02           0.154476D+00
                  0.120627D+02           0.352366D+00
                  0.507628D+01           0.500000D+00
                  0.213375D+01           0.346429D+00
            P   2   1.00
                  0.928958D+01          -0.185932D-01
                  0.837819D+00           0.500000D+00
            P   1   1.00
                  0.301495D+00           1.0000000
            P   1   1.00
                  0.974740D-01           1.0000000
            D   1   1.00
                  0.210000D+01           1.0000000
            D   1   1.00
                  0.480000D+00           1.0000000
            F   1   1.00
                  0.660000D+00           1.0000000
            ****
            -Br     0
            S    10   1.00
                  0.233625D+07           0.532336D-04
                  0.349961D+06           0.413715D-03
                  0.796444D+05           0.217123D-02
                  0.225555D+05           0.910109D-02
                  0.735546D+04           0.323789D-01
                  0.265352D+04           0.988755D-01
                  0.103517D+04           0.248138D+00
                  0.422205D+03           0.474328D+00
                  0.180035D+03           0.500000D+00
                  0.793308D+02           0.187769D+00
            S    4   1.00
                  0.620834D+03          -0.226511D-01
                  0.190829D+03          -0.109497D+00
                  0.312505D+02           0.500000D+00
                  0.135270D+02           0.492812D+00
            S    2   1.00
                  0.216097D+02          -0.165418D+00
                  0.372566D+01           0.500000D+00
            S    1   1.00
                  0.169770D+01           1.0000000
            S    1   1.00
                  0.489332D+00           1.0000000
            S    1   1.00
                  0.175712D+00           1.0000000
            P    8   1.00
                  0.960829D+04           0.478974D-03
                  0.227618D+04           0.417853D-02
                  0.736723D+03           0.229315D-01
                  0.281579D+03           0.892653D-01
                  0.118395D+03           0.255288D+00
                  0.527481D+02           0.479074D+00
                  0.245098D+02           0.500000D+00
                  0.112009D+02           0.200944D+00
            P    4   1.00
                  0.587849D+02          -0.189674D-01
                  0.918962D+01           0.264104D+00
                  0.413895D+01           0.500000D+00
                  0.184225D+01           0.319316D+00
            P    1   1.00
                  0.713862D+00           1.0000000
            P    1   1.00
                  0.274232D+00           1.0000000
            P    1   1.00
                  0.944411D-01           1.0000000
            D    7   1.00
                  0.398470D+03           0.204066D-02
                  0.118967D+03           0.175171D-01
                  0.450197D+02           0.829708D-01
                  0.190320D+02           0.236284D+00
                  0.855686D+01           0.428468D+00
                  0.382950D+01           0.500000D+00
                  0.166291D+01           0.349360D+00
            D    1   1.00
                  0.672953D+00           1.0000000
            D    1   1.00
                  0.252000D+00           1.0000000
            F    1   1.00
                  0.530000D+00           1.0000000
            ****
            -Si     0
            S    8   1.00
                  0.996133D+05           0.235546D-03
                  0.149311D+05           0.182707D-02
                  0.339820D+04           0.951425D-02
                  0.962140D+03           0.388172D-01
                  0.313430D+03           0.127328D+00
                  0.112683D+03           0.313522D+00
                  0.433372D+02           0.500000D+00
                  0.170029D+02           0.340347D+00
            S    3   1.00
                  0.884208D+02          -0.404451D-01
                  0.266756D+02          -0.178059D+00
                  0.479640D+01           0.500000D+00
            S    2   1.00
                  0.239385D+01           0.500000D+00
                  0.108333D+01           0.338016D+00
            S    1   1.00
                  0.252420D+00           1.0000000
            S    1   1.00
                  0.891210D-01           1.0000000
            P    7   1.00
                  0.709901D+03           0.123028D-02
                  0.168426D+03           0.101366D-01
                  0.539946D+02           0.511840D-01
                  0.198646D+02           0.169967D+00
                  0.801369D+01           0.370717D+00
                  0.331870D+01           0.500000D+00
                  0.136112D+01           0.344128D+00
            P    2   1.00
                  0.622158D+01          -0.166609D-01
                  0.503049D+00           0.500000D+00
            P    1   1.00
                  0.179848D+00           1.0000000
            P    1   1.00
                  0.591912D-01           1.0000000
            D    1   1.00
                  0.168000D+01           1.0000000
            D    1   1.00
                  0.380000D+00           1.0000000
            F    1   1.00
                  0.540000D+00           1.0000000
            ****
            -P     0
            S    8   1.00
                  0.116416D+06           0.230715D-03
                  0.174500D+05           0.178960D-02
                  0.397149D+04           0.932116D-02
                  0.112447D+04           0.380591D-01
                  0.366347D+03           0.125148D+00
                  0.131757D+03           0.310022D+00
                  0.506988D+02           0.500000D+00
                  0.199436D+02           0.347528D+00
            S    3   1.00
                  0.101878D+03          -0.446755D-01
                  0.308249D+02          -0.196376D+00
                  0.573688D+01           0.500000D+00
            S    2   1.00
                  0.296868D+01           0.500000D+00
                  0.135315D+01           0.355098D+00
            S    1   1.00
                  0.332196D+00           1.0000000
            S    1   1.00
                  0.116229D+00           1.0000000
            P    7   1.00
                  0.873928D+03           0.112375D-02
                  0.207298D+03           0.933330D-02
                  0.664628D+02           0.477213D-01
                  0.245665D+02           0.160733D+00
                  0.996820D+01           0.359760D+00
                  0.416536D+01           0.500000D+00
                  0.173022D+01           0.346593D+00
            P    2   1.00
                  0.772530D+01          -0.175718D-01
                  0.657252D+00           0.500000D+00
            P    1   1.00
                  0.239903D+00           1.0000000
            P    1   1.00
                  0.800988D-01           1.0000000
            D    1   1.00
                  0.189000D+01           1.0000000
            D    1   1.00
                  0.430000D+00           1.0000000
            F    1   1.00
                  0.600000D+00           1.0000000
            ****
            
 Initial command:
 /usr/local/apps/g16_b01_avx/g16/l1.exe "/wrk/irikura/Gau-1825256.inp" -scrdir="/wrk/irikura/"
 Entering Link 1 = /usr/local/apps/g16_b01_avx/g16/l1.exe PID=   1825258.
  
 Copyright (c) 1988-2017, Gaussian, Inc.  All Rights Reserved.
  
 This is part of the Gaussian(R) 16 program.  It is based on
 the Gaussian(R) 09 system (copyright 2009, Gaussian, Inc.),
 the Gaussian(R) 03 system (copyright 2003, Gaussian, Inc.),
 the Gaussian(R) 98 system (copyright 1998, Gaussian, Inc.),
 the Gaussian(R) 94 system (copyright 1995, Gaussian, Inc.),
 the Gaussian 92(TM) system (copyright 1992, Gaussian, Inc.),
 the Gaussian 90(TM) system (copyright 1990, Gaussian, Inc.),
 the Gaussian 88(TM) system (copyright 1988, Gaussian, Inc.),
 the Gaussian 86(TM) system (copyright 1986, Carnegie Mellon
 University), and the Gaussian 82(TM) system (copyright 1983,
 Carnegie Mellon University). Gaussian is a federally registered
 trademark of Gaussian, Inc.
  
 This software contains proprietary and confidential information,
 including trade secrets, belonging to Gaussian, Inc.
  
 This software is provided under written license and may be
 used, copied, transmitted, or stored only in accord with that
 written license.
  
 The following legend is applicable only to US Government
 contracts under FAR:
  
                    RESTRICTED RIGHTS LEGEND
  
 Use, reproduction and disclosure by the US Government is
 subject to restrictions as set forth in subparagraphs (a)
 and (c) of the Commercial Computer Software - Restricted
 Rights clause in FAR 52.227-19.
  
 Gaussian, Inc.
 340 Quinnipiac St., Bldg. 40, Wallingford CT 06492
  
  
 ---------------------------------------------------------------
 Warning -- This program may not be used in any manner that
 competes with the business of Gaussian, Inc. or will provide
 assistance to any competitor of Gaussian, Inc.  The licensee
 of this program is prohibited from giving any competitor of
 Gaussian, Inc. access to this program.  By using this program,
 the user acknowledges that Gaussian, Inc. is engaged in the
 business of creating and licensing software in the field of
 computational chemistry and represents and warrants to the
 licensee that it is not a competitor of Gaussian, Inc. and that
 it will not use this program in any manner prohibited above.
 ---------------------------------------------------------------
  

 Cite this work as:
 Gaussian 16, Revision B.01,
 M. J. Frisch, G. W. Trucks, H. B. Schlegel, G. E. Scuseria, 
 M. A. Robb, J. R. Cheeseman, G. Scalmani, V. Barone, 
 G. A. Petersson, H. Nakatsuji, X. Li, M. Caricato, A. V. Marenich, 
 J. Bloino, B. G. Janesko, R. Gomperts, B. Mennucci, H. P. Hratchian, 
 J. V. Ortiz, A. F. Izmaylov, J. L. Sonnenberg, D. Williams-Young, 
 F. Ding, F. Lipparini, F. Egidi, J. Goings, B. Peng, A. Petrone, 
 T. Henderson, D. Ranasinghe, V. G. Zakrzewski, J. Gao, N. Rega, 
 G. Zheng, W. Liang, M. Hada, M. Ehara, K. Toyota, R. Fukuda, 
 J. Hasegawa, M. Ishida, T. Nakajima, Y. Honda, O. Kitao, H. Nakai, 
 T. Vreven, K. Throssell, J. A. Montgomery, Jr., J. E. Peralta, 
 F. Ogliaro, M. J. Bearpark, J. J. Heyd, E. N. Brothers, K. N. Kudin, 
 V. N. Staroverov, T. A. Keith, R. Kobayashi, J. Normand, 
 K. Raghavachari, A. P. Rendell, J. C. Burant, S. S. Iyengar, 
 J. Tomasi, M. Cossi, J. M. Millam, M. Klene, C. Adamo, R. Cammi, 
 J. W. Ochterski, R. L. Martin, K. Morokuma, O. Farkas, 
 J. B. Foresman, and D. J. Fox, Gaussian, Inc., Wallingford CT, 2016.
 
 ******************************************
 Gaussian 16:  ES64L-G16RevB.01 20-Dec-2017
                27-Sep-2023 
 ******************************************
 %chk=cho.chk
 %mem=500mw
 %nprocs=4
 Will use up to    4 processors via shared memory.
 ---------------------------------------
 # b3lyp/gen opt freq CPHF(Grid=OneStep)
 ---------------------------------------
 1/18=20,19=15,26=3,38=1/1,3;
 2/9=110,12=2,17=6,18=5,40=1/2;
 3/5=7,11=2,25=1,30=1,71=1,74=-5/1,2,3;
 4//1;
 5/5=2,38=5/2;
 6/7=2,8=2,9=2,10=2,28=1/1;
 7//1,2,3,16;
 1/18=20,19=15,26=3/3(2);
 2/9=110/2;
 99//99;
 2/9=110/2;
 3/5=7,6=1,11=2,25=1,30=1,71=1,74=-5,82=7/1,2,3;
 4/5=5,16=3,69=1/1;
 5/5=2,38=5/2;
 7//1,2,3,16;
 1/18=20,19=15,26=3/3(-5);
 2/9=110/2;
 6/7=2,8=2,9=2,10=2,19=2,28=1/1;
 99/9=1/99;
 ---------------------
 formyl, B3LYP/pcseg-2
 ---------------------
 Symbolic Z-matrix:
 Charge =  0 Multiplicity = 2
 C                     0.06169   0.5825    0. 
 H                    -0.86368   1.2187    0. 
 O                     0.06169  -0.58921   0. 
 

 GradGradGradGradGradGradGradGradGradGradGradGradGradGradGradGradGradGrad
 Berny optimization.
 Initialization pass.
                           ----------------------------
                           !    Initial Parameters    !
                           ! (Angstroms and Degrees)  !
 --------------------------                            --------------------------
 ! Name  Definition              Value          Derivative Info.                !
 --------------------------------------------------------------------------------
 ! R1    R(1,2)                  1.123          estimate D2E/DX2                !
 ! R2    R(1,3)                  1.1717         estimate D2E/DX2                !
 ! A1    A(2,1,3)              124.5088         estimate D2E/DX2                !
 --------------------------------------------------------------------------------
 Trust Radius=3.00D-01 FncErr=1.00D-07 GrdErr=1.00D-06 EigMax=2.50D+02 EigMin=1.00D-04
 Number of steps in this run=     20 maximum allowed number of steps=    100.
 GradGradGradGradGradGradGradGradGradGradGradGradGradGradGradGradGradGrad

                          Input orientation:                          
 ---------------------------------------------------------------------
 Center     Atomic      Atomic             Coordinates (Angstroms)
 Number     Number       Type             X           Y           Z
 ---------------------------------------------------------------------
      1          6           0        0.061692    0.582495    0.000000
      2          1           0       -0.863684    1.218697    0.000000
      3          8           0        0.061692   -0.589208    0.000000
 ---------------------------------------------------------------------
                    Distance matrix (angstroms):
                    1          2          3
     1  C    0.000000
     2  H    1.122975   0.000000
     3  O    1.171703   2.030971   0.000000
 Stoichiometry    CHO(2)
 Framework group  CS[SG(CHO)]
 Deg. of freedom     3
 Full point group                 CS      NOp   2
 Largest Abelian subgroup         CS      NOp   2
 Largest concise Abelian subgroup C1      NOp   1
                         Standard orientation:                         
 ---------------------------------------------------------------------
 Center     Atomic      Atomic             Coordinates (Angstroms)
 Number     Number       Type             X           Y           Z
 ---------------------------------------------------------------------
      1          6           0        0.061692    0.582495    0.000000
      2          1           0       -0.863684    1.218697    0.000000
      3          8           0        0.061692   -0.589208    0.000000
 ---------------------------------------------------------------------
 Rotational constants (GHZ):         722.1447043          45.1054822          42.4537989
 General basis read from cards:  (5D, 7F)
 There are    59 symmetry adapted cartesian basis functions of A'  symmetry.
 There are    26 symmetry adapted cartesian basis functions of A"  symmetry.
 There are    50 symmetry adapted basis functions of A'  symmetry.
 There are    24 symmetry adapted basis functions of A"  symmetry.
    74 basis functions,   120 primitive gaussians,    85 cartesian basis functions
     8 alpha electrons        7 beta electrons
       nuclear repulsion energy        26.5900779865 Hartrees.
 NAtoms=    3 NActive=    3 NUniq=    3 SFac= 1.00D+00 NAtFMM=   60 NAOKFM=F Big=F
 Integral buffers will be    131072 words long.
 Raffenetti 2 integral format.
 Two-electron integral symmetry is turned on.
 One-electron integrals computed using PRISM.
 NBasis=    74 RedAO= T EigKep=  2.09D-03  NBF=    50    24
 NBsUse=    74 1.00D-06 EigRej= -1.00D+00 NBFU=    50    24
 ExpMin= 7.42D-02 ExpMax= 1.36D+04 ExpMxC= 4.64D+02 IAcc=3 IRadAn=         5 AccDes= 0.00D+00
 Harris functional with IExCor=  402 and IRadAn=       5 diagonalized for initial guess.
 HarFok:  IExCor=  402 AccDes= 0.00D+00 IRadAn=         5 IDoV= 1 UseB2=F ITyADJ=14
 ICtDFT=  3500011 ScaDFX=  1.000000  1.000000  1.000000  1.000000
 FoFCou: FMM=F IPFlag=           0 FMFlag=      100000 FMFlg1=           0
         NFxFlg=           0 DoJE=T BraDBF=F KetDBF=T FulRan=T
         wScrn=  0.000000 ICntrl=       500 IOpCl=  0 I1Cent=   200000004 NGrid=           0
         NMat0=    1 NMatS0=      1 NMatT0=    0 NMatD0=    1 NMtDS0=    0 NMtDT0=    0
 Petite list used in FoFCou.
 Initial guess orbital symmetries:
 Alpha Orbitals:
       Occupied  (A') (A') (A') (A') (A') (A") (A') (A')
       Virtual   (A") (A') (A') (A') (A") (A') (A') (A') (A") (A')
                 (A') (A') (A") (A') (A") (A') (A') (A') (A") (A")
                 (A') (A') (A') (A") (A') (A') (A") (A') (A') (A")
                 (A') (A') (A') (A") (A') (A") (A') (A") (A') (A')
                 (A') (A") (A') (A") (A') (A") (A') (A') (A") (A")
                 (A') (A') (A') (A") (A') (A") (A') (A') (A") (A")
                 (A') (A') (A') (A") (A') (A')
 Beta  Orbitals:
       Occupied  (A') (A') (A') (A') (A') (A") (A')
       Virtual   (A') (A") (A') (A') (A') (A") (A') (A') (A') (A")
                 (A') (A') (A') (A") (A') (A") (A') (A') (A') (A")
                 (A") (A') (A') (A') (A") (A') (A') (A") (A') (A')
                 (A") (A') (A') (A') (A") (A') (A") (A') (A") (A')
                 (A') (A') (A") (A') (A") (A') (A") (A') (A') (A")
                 (A") (A') (A') (A') (A") (A') (A") (A') (A') (A")
                 (A") (A') (A') (A') (A") (A') (A')
 The electronic state of the initial guess is 2-A'.
 Initial guess <Sx>= 0.0000 <Sy>= 0.0000 <Sz>= 0.5000 <S**2>= 0.7500 S= 0.5000
 Keep R1 and R2 ints in memory in symmetry-blocked form, NReq=7570190.
 Requested convergence on RMS density matrix=1.00D-08 within 128 cycles.
 Requested convergence on MAX density matrix=1.00D-06.
 Requested convergence on             energy=1.00D-06.
 No special actions if energy rises.
 Integral accuracy reduced to 1.0D-05 until final iterations.
 Initial convergence to 1.0D-05 achieved.  Increase integral accuracy.
 SCF Done:  E(UB3LYP) =  -113.903637110     A.U. after   14 cycles
            NFock= 14  Conv=0.22D-08     -V/T= 2.0029
 <Sx>= 0.0000 <Sy>= 0.0000 <Sz>= 0.5000 <S**2>= 0.7533 S= 0.5017
 <L.S>=  0.00000000000    
 Annihilation of the first spin contaminant:
 S**2 before annihilation     0.7533,   after     0.7500

 **********************************************************************

            Population analysis using the SCF Density.

 **********************************************************************

 Orbital symmetries:
 Alpha Orbitals:
       Occupied  (A') (A') (A') (A') (A') (A') (A") (A')
       Virtual   (A") (A') (A') (A') (A") (A') (A') (A') (A") (A')
                 (A') (A') (A") (A') (A') (A") (A') (A') (A") (A")
                 (A') (A') (A') (A') (A") (A') (A') (A") (A') (A")
                 (A') (A') (A') (A") (A') (A") (A') (A") (A') (A')
                 (A') (A") (A') (A") (A') (A") (A') (A') (A") (A")
                 (A') (A') (A') (A") (A') (A") (A') (A') (A") (A')
                 (A") (A') (A') (A") (A') (A')
 Beta  Orbitals:
       Occupied  (A') (A') (A') (A') (A') (A") (A')
       Virtual   (A') (A") (A') (A') (A") (A') (A') (A') (A') (A")
                 (A') (A') (A') (A") (A') (A') (A") (A') (A') (A")
                 (A") (A') (A') (A') (A') (A") (A') (A") (A') (A')
                 (A") (A') (A') (A') (A") (A') (A") (A') (A") (A')
                 (A') (A") (A') (A') (A") (A') (A") (A') (A') (A")
                 (A") (A') (A') (A') (A") (A') (A") (A') (A') (A")
                 (A") (A') (A') (A') (A") (A') (A')
 The electronic state is 2-A'.
 Alpha  occ. eigenvalues --  -19.19714 -10.28493  -1.12264  -0.62649  -0.51371
 Alpha  occ. eigenvalues --   -0.45213  -0.44745  -0.22755
 Alpha virt. eigenvalues --   -0.06158   0.02831   0.09399   0.15638   0.16515
 Alpha virt. eigenvalues --    0.24121   0.29677   0.31530   0.40196   0.41962
 Alpha virt. eigenvalues --    0.49704   0.67546   0.69331   0.80405   0.97515
 Alpha virt. eigenvalues --    0.98234   1.03673   1.09477   1.18246   1.22046
 Alpha virt. eigenvalues --    1.25257   1.39100   1.51817   1.61550   1.61670
 Alpha virt. eigenvalues --    1.87509   1.92894   1.94056   2.08150   2.38115
 Alpha virt. eigenvalues --    2.39408   2.54083   2.89790   3.14530   3.16268
 Alpha virt. eigenvalues --    3.20220   3.35269   3.53762   3.67568   3.71042
 Alpha virt. eigenvalues --    3.82675   3.83696   3.89754   3.90216   3.97269
 Alpha virt. eigenvalues --    4.05886   4.16305   4.23805   4.24481   4.29079
 Alpha virt. eigenvalues --    4.38118   4.55331   4.62081   4.63562   4.92767
 Alpha virt. eigenvalues --    5.28800   5.45406   5.53425   5.58018   6.01800
 Alpha virt. eigenvalues --    6.01802   6.12231   6.18316   6.36778   6.51955
 Alpha virt. eigenvalues --    7.23181
  Beta  occ. eigenvalues --  -19.18810 -10.27494  -1.10672  -0.59907  -0.49097
  Beta  occ. eigenvalues --   -0.43990  -0.40017
  Beta virt. eigenvalues --   -0.08901  -0.04648   0.03476   0.09651   0.16943
  Beta virt. eigenvalues --    0.17570   0.25886   0.31297   0.31763   0.40385
  Beta virt. eigenvalues --    0.43140   0.51499   0.67972   0.71411   0.83255
  Beta virt. eigenvalues --    0.99930   1.00297   1.06155   1.10955   1.19313
  Beta virt. eigenvalues --    1.23190   1.28669   1.41423   1.53688   1.63451
  Beta virt. eigenvalues --    1.63573   1.88992   1.94589   1.94910   2.09991
  Beta virt. eigenvalues --    2.38715   2.41886   2.57153   2.90937   3.17350
  Beta virt. eigenvalues --    3.19482   3.22017   3.37303   3.54988   3.69515
  Beta virt. eigenvalues --    3.73062   3.85468   3.85713   3.92083   3.92429
  Beta virt. eigenvalues --    3.99222   4.09245   4.19241   4.26157   4.27266
  Beta virt. eigenvalues --    4.32331   4.40896   4.57368   4.65354   4.65546
  Beta virt. eigenvalues --    4.95909   5.31123   5.48813   5.56221   5.58947
  Beta virt. eigenvalues --    6.04750   6.05043   6.14146   6.20312   6.37178
  Beta virt. eigenvalues --    6.54639   7.24228
          Condensed to atoms (all electrons):
               1          2          3
     1  C    5.142111   0.214810   0.483627
     2  H    0.214810   0.758741  -0.036817
     3  O    0.483627  -0.036817   7.775909
          Atomic-Atomic Spin Densities.
               1          2          3
     1  C    0.972150  -0.181922  -0.193464
     2  H   -0.181922   0.357723  -0.013915
     3  O   -0.193464  -0.013915   0.448728
 Mulliken charges and spin densities:
               1          2
     1  C    0.159452   0.596764
     2  H    0.063267   0.161887
     3  O   -0.222719   0.241349
 Sum of Mulliken charges =  -0.00000   1.00000
 Mulliken charges and spin densities with hydrogens summed into heavy atoms:
               1          2
     1  C    0.222719   0.758651
     3  O   -0.222719   0.241349
 Electronic spatial extent (au):  <R**2>=             50.8554
 Charge=             -0.0000 electrons
 Dipole moment (field-independent basis, Debye):
    X=             -0.9904    Y=              1.3533    Z=              0.0000  Tot=              1.6770
 Quadrupole moment (field-independent basis, Debye-Ang):
   XX=            -11.5651   YY=            -11.7624   ZZ=            -10.9836
   XY=             -1.1336   XZ=              0.0000   YZ=              0.0000
 Traceless Quadrupole moment (field-independent basis, Debye-Ang):
   XX=             -0.1281   YY=             -0.3253   ZZ=              0.4534
   XY=             -1.1336   XZ=              0.0000   YZ=              0.0000
 Octapole moment (field-independent basis, Debye-Ang**2):
  XXX=             -1.1953  YYY=             -2.4127  ZZZ=              0.0000  XYY=             -1.7288
  XXY=             -0.9120  XXZ=              0.0000  XZZ=             -0.2370  YZZ=             -0.8897
  YYZ=              0.0000  XYZ=              0.0000
 Hexadecapole moment (field-independent basis, Debye-Ang**3):
 XXXX=            -16.1655 YYYY=            -40.9312 ZZZZ=            -10.0833 XXXY=              1.1001
 XXXZ=              0.0000 YYYX=              0.0223 YYYZ=              0.0000 ZZZX=              0.0000
 ZZZY=              0.0000 XXYY=             -9.4509 XXZZ=             -4.4606 YYZZ=             -8.4451
 XXYZ=              0.0000 YYXZ=              0.0000 ZZXY=              0.5775
 N-N= 2.659007798652D+01 E-N=-3.208790578988D+02  KE= 1.135768741064D+02
 Symmetry A'   KE= 1.096354234089D+02
 Symmetry A"   KE= 3.941450697517D+00
 Symmetry A'   SP= 1.000000000000D+00
 Symmetry A"   SP=-5.002034485398D-15
                          Isotropic Fermi Contact Couplings
        Atom                 a.u.       MegaHertz       Gauss      10(-4) cm-1
     1  C(13)              0.37768     424.58342     151.50192     141.62578
     2  H(1)               0.08202     366.63396     130.82411     122.29593
     3  O(17)              0.09549     -57.88306     -20.65411     -19.30771
 --------------------------------------------------------
       Center         ----  Spin Dipole Couplings  ----
                      3XX-RR        3YY-RR        3ZZ-RR
 --------------------------------------------------------
     1   Atom        0.431772     -0.112849     -0.318923
     2   Atom        0.012855      0.017245     -0.030099
     3   Atom        1.440391     -0.618985     -0.821407
 --------------------------------------------------------
                        XY            XZ            YZ
 --------------------------------------------------------
     1   Atom        0.441770      0.000000      0.000000
     2   Atom       -0.031432      0.000000      0.000000
     3   Atom        0.473887      0.000000      0.000000
 --------------------------------------------------------


 ---------------------------------------------------------------------------------
              Anisotropic Spin Dipole Couplings in Principal Axis System
 ---------------------------------------------------------------------------------

       Atom             a.u.   MegaHertz   Gauss  10(-4) cm-1        Axes

              Baa    -0.3595   -48.240   -17.213   -16.091 -0.4875  0.8731 -0.0000
     1 C(13)  Bbb    -0.3189   -42.796   -15.271   -14.275  0.0000  0.0000  1.0000
              Bcc     0.6784    91.037    32.484    30.367  0.8731  0.4875  0.0000
 
              Baa    -0.0301   -16.060    -5.730    -5.357  0.0000  0.0000  1.0000
     2 H(1)   Bbb    -0.0165    -8.782    -3.134    -2.929  0.7313  0.6820  0.0000
              Bcc     0.0466    24.841     8.864     8.286 -0.6820  0.7313  0.0000
 
              Baa    -0.8214    59.436    21.208    19.826  0.0000  0.0000  1.0000
     3 O(17)  Bbb    -0.7228    52.301    18.662    17.446 -0.2140  0.9768 -0.0000
              Bcc     1.5442  -111.738   -39.871   -37.272  0.9768  0.2140  0.0000
 

 ---------------------------------------------------------------------------------

 Calling FoFJK, ICntrl=      2127 FMM=F ISym2X=1 I1Cent= 0 IOpClX= 1 NMat=1 NMatS=1 NMatT=0.
 ***** Axes restored to original set *****
 -------------------------------------------------------------------
 Center     Atomic                   Forces (Hartrees/Bohr)
 Number     Number              X              Y              Z
 -------------------------------------------------------------------
      1        6          -0.000002909   -0.000010686   -0.000000000
      2        1           0.000001030    0.000001398   -0.000000000
      3        8           0.000001879    0.000009289   -0.000000000
 -------------------------------------------------------------------
 Cartesian Forces:  Max     0.000010686 RMS     0.000004893

 GradGradGradGradGradGradGradGradGradGradGradGradGradGradGradGradGradGrad
 Berny optimization.
 FormGI is forming the generalized inverse of G from B-inverse, IUseBI=4.
 Internal  Forces:  Max     0.000009254 RMS     0.000005801
 Search for a local minimum.
 Step number   1 out of a maximum of   20
 All quantities printed in internal units (Hartrees-Bohrs-Radians)
 Mixed Optimization -- En-DIIS/RFO-DIIS
 Second derivative matrix not updated -- first step.
 The second derivative matrix:
                          R1        R2        A1
           R1           0.31264
           R2           0.00000   1.20431
           A1           0.00000   0.00000   0.16000
 ITU=  0
     Eigenvalues ---    0.16000   0.31264   1.20431
 RFO step:  Lambda= 0.00000000D+00 EMin= 1.60000000D-01
 Linear search not attempted -- first point.
 Iteration  1 RMS(Cart)=  0.00001404 RMS(Int)=  0.00000000
 Iteration  2 RMS(Cart)=  0.00000000 RMS(Int)=  0.00000000
 ClnCor:  largest displacement from symmetrization is 0.00D+00 for atom     0.
 Variable       Old X    -DE/DX   Delta X   Delta X   Delta X     New X
                                 (Linear)    (Quad)   (Total)
    R1        2.12212  -0.00000   0.00000  -0.00000  -0.00000   2.12212
    R2        2.21420  -0.00001   0.00000  -0.00001  -0.00001   2.21419
    A1        2.17309   0.00000   0.00000   0.00002   0.00002   2.17311
         Item               Value     Threshold  Converged?
 Maximum Force            0.000009     0.000450     YES
 RMS     Force            0.000006     0.000300     YES
 Maximum Displacement     0.000014     0.001800     YES
 RMS     Displacement     0.000014     0.001200     YES
 Predicted change in Energy=-8.343903D-11
 Optimization completed.
    -- Stationary point found.
                           ----------------------------
                           !   Optimized Parameters   !
                           ! (Angstroms and Degrees)  !
 --------------------------                            --------------------------
 ! Name  Definition              Value          Derivative Info.                !
 --------------------------------------------------------------------------------
 ! R1    R(1,2)                  1.123          -DE/DX =    0.0                 !
 ! R2    R(1,3)                  1.1717         -DE/DX =    0.0                 !
 ! A1    A(2,1,3)              124.5088         -DE/DX =    0.0                 !
 --------------------------------------------------------------------------------
 GradGradGradGradGradGradGradGradGradGradGradGradGradGradGradGradGradGrad

                          Input orientation:                          
 ---------------------------------------------------------------------
 Center     Atomic      Atomic             Coordinates (Angstroms)
 Number     Number       Type             X           Y           Z
 ---------------------------------------------------------------------
      1          6           0        0.061692    0.582495    0.000000
      2          1           0       -0.863684    1.218697    0.000000
      3          8           0        0.061692   -0.589208    0.000000
 ---------------------------------------------------------------------
                    Distance matrix (angstroms):
                    1          2          3
     1  C    0.000000
     2  H    1.122975   0.000000
     3  O    1.171703   2.030971   0.000000
 Stoichiometry    CHO(2)
 Framework group  CS[SG(CHO)]
 Deg. of freedom     3
 Full point group                 CS      NOp   2
 Largest Abelian subgroup         CS      NOp   2
 Largest concise Abelian subgroup C1      NOp   1
                         Standard orientation:                         
 ---------------------------------------------------------------------
 Center     Atomic      Atomic             Coordinates (Angstroms)
 Number     Number       Type             X           Y           Z
 ---------------------------------------------------------------------
      1          6           0        0.061692    0.582495    0.000000
      2          1           0       -0.863684    1.218697    0.000000
      3          8           0        0.061692   -0.589208    0.000000
 ---------------------------------------------------------------------
 Rotational constants (GHZ):         722.1447043          45.1054822          42.4537989
 1\1\GINC-GAMBA\FOpt\UB3LYP\Gen\C1H1O1(2)\IRIKURA\27-Sep-2023\0\\# b3ly
 p/gen opt freq CPHF(Grid=OneStep)\\formyl, B3LYP/pcseg-2\\0,2\C,0.0616
 92,0.582495,0.\H,-0.863684,1.218697,0.\O,0.061692,-0.589208,0.\\Versio
 n=ES64L-G16RevB.01\State=2-A'\HF=-113.9036371\S2=0.753341\S2-1=0.\S2A=
 0.750007\RMSD=2.218e-09\RMSF=4.893e-06\Dipole=-0.3896439,0.5324279,0.\
 Quadrupole=-0.0952177,-0.2418795,0.3370972,-0.8427956,0.,0.\PG=CS [SG(
 C1H1O1)]\\@


 FRICTION IS A DRAG,
 AND ENTROPY AIN'T WHAT IT USED TO BE.
 Job cpu time:       0 days  0 hours  0 minutes 16.7 seconds.
 Elapsed time:       0 days  0 hours  0 minutes  4.2 seconds.
 File lengths (MBytes):  RWF=     10 Int=      0 D2E=      0 Chk=      2 Scr=      1
 Normal termination of Gaussian 16 at Wed Sep 27 17:26:23 2023.
 Link1:  Proceeding to internal job step number  2.
 ------------------------------------------------------------------
 #N Geom=AllCheck Guess=TCheck SCRF=Check GenChk UB3LYP/ChkBas Freq
 ------------------------------------------------------------------
 1/10=4,29=7,30=1,38=1,40=1/1,3;
 2/12=2,40=1/2;
 3/5=7,6=2,11=2,14=-4,25=1,30=1,67=1,70=2,71=2,74=-5,82=7,116=2,140=1/1,2,3;
 4/5=101/1;
 5/5=2,38=6,98=1/2;
 8/6=4,10=90,11=11/1;
 11/6=1,8=1,9=11,15=111,16=1/1,2,10;
 10/6=1,60=-420/2;
 6/7=2,8=2,9=2,10=2,28=1/1;
 7/8=1,10=1,25=1/1,2,3,16;
 1/10=4,30=1/3;
 99//99;
 Structure from the checkpoint file:  "cho.chk"
 ---------------------
 formyl, B3LYP/pcseg-2
 ---------------------
 Charge =  0 Multiplicity = 2
 Redundant internal coordinates found in file.  (old form).
 C,0,0.061692,0.582495,0.
 H,0,-0.863684,1.218697,0.
 O,0,0.061692,-0.589208,0.
 Recover connectivity data from disk.

 GradGradGradGradGradGradGradGradGradGradGradGradGradGradGradGradGradGrad
 Berny optimization.
 Initialization pass.
                           ----------------------------
                           !    Initial Parameters    !
                           ! (Angstroms and Degrees)  !
 --------------------------                            --------------------------
 ! Name  Definition              Value          Derivative Info.                !
 --------------------------------------------------------------------------------
 ! R1    R(1,2)                  1.123          calculate D2E/DX2 analytically  !
 ! R2    R(1,3)                  1.1717         calculate D2E/DX2 analytically  !
 ! A1    A(2,1,3)              124.5088         calculate D2E/DX2 analytically  !
 --------------------------------------------------------------------------------
 Trust Radius=3.00D-01 FncErr=1.00D-07 GrdErr=1.00D-07 EigMax=2.50D+02 EigMin=1.00D-04
 Number of steps in this run=      2 maximum allowed number of steps=      2.
 GradGradGradGradGradGradGradGradGradGradGradGradGradGradGradGradGradGrad

                          Input orientation:                          
 ---------------------------------------------------------------------
 Center     Atomic      Atomic             Coordinates (Angstroms)
 Number     Number       Type             X           Y           Z
 ---------------------------------------------------------------------
      1          6           0        0.061692    0.582495    0.000000
      2          1           0       -0.863684    1.218697    0.000000
      3          8           0        0.061692   -0.589208    0.000000
 ---------------------------------------------------------------------
                    Distance matrix (angstroms):
                    1          2          3
     1  C    0.000000
     2  H    1.122975   0.000000
     3  O    1.171703   2.030971   0.000000
 Stoichiometry    CHO(2)
 Framework group  CS[SG(CHO)]
 Deg. of freedom     3
 Full point group                 CS      NOp   2
 Largest Abelian subgroup         CS      NOp   2
 Largest concise Abelian subgroup C1      NOp   1
                         Standard orientation:                         
 ---------------------------------------------------------------------
 Center     Atomic      Atomic             Coordinates (Angstroms)
 Number     Number       Type             X           Y           Z
 ---------------------------------------------------------------------
      1          6           0        0.061692    0.582495    0.000000
      2          1           0       -0.863684    1.218697    0.000000
      3          8           0        0.061692   -0.589208    0.000000
 ---------------------------------------------------------------------
 Rotational constants (GHZ):         722.1447043          45.1054822          42.4537989
 Basis read from chk: "cho.chk" (5D, 7F)
 There are    59 symmetry adapted cartesian basis functions of A'  symmetry.
 There are    26 symmetry adapted cartesian basis functions of A"  symmetry.
 There are    50 symmetry adapted basis functions of A'  symmetry.
 There are    24 symmetry adapted basis functions of A"  symmetry.
    74 basis functions,   120 primitive gaussians,    85 cartesian basis functions
     8 alpha electrons        7 beta electrons
       nuclear repulsion energy        26.5900779865 Hartrees.
 NAtoms=    3 NActive=    3 NUniq=    3 SFac= 1.00D+00 NAtFMM=   60 NAOKFM=F Big=F
 Integral buffers will be    131072 words long.
 Raffenetti 2 integral format.
 Two-electron integral symmetry is turned on.
 One-electron integrals computed using PRISM.
 NBasis=    74 RedAO= T EigKep=  2.09D-03  NBF=    50    24
 NBsUse=    74 1.00D-06 EigRej= -1.00D+00 NBFU=    50    24
 Initial guess from the checkpoint file:  "cho.chk"
 B after Tr=     0.000000    0.000000    0.000000
         Rot=    1.000000    0.000000    0.000000    0.000000 Ang=   0.00 deg.
 Initial guess orbital symmetries:
 Alpha Orbitals:
       Occupied  (A') (A') (A') (A') (A') (A') (A") (A')
       Virtual   (A") (A') (A') (A') (A") (A') (A') (A') (A") (A')
                 (A') (A') (A") (A') (A') (A") (A') (A') (A") (A")
                 (A') (A') (A') (A') (A") (A') (A') (A") (A') (A")
                 (A') (A') (A') (A") (A') (A") (A') (A") (A') (A')
                 (A') (A") (A') (A") (A') (A") (A') (A') (A") (A")
                 (A') (A') (A') (A") (A') (A") (A') (A') (A") (A')
                 (A") (A') (A') (A") (A') (A')
 Beta  Orbitals:
       Occupied  (A') (A') (A') (A') (A') (A") (A')
       Virtual   (A') (A") (A') (A') (A") (A') (A') (A') (A') (A")
                 (A') (A') (A') (A") (A') (A') (A") (A') (A') (A")
                 (A") (A') (A') (A') (A') (A") (A') (A") (A') (A')
                 (A") (A') (A') (A') (A") (A') (A") (A') (A") (A')
                 (A') (A") (A') (A') (A") (A') (A") (A') (A') (A")
                 (A") (A') (A') (A') (A") (A') (A") (A') (A') (A")
                 (A") (A') (A') (A') (A") (A') (A')
 Initial guess <Sx>= 0.0000 <Sy>= 0.0000 <Sz>= 0.5000 <S**2>= 0.7533 S= 0.5017
 Keep R1 and R2 ints in memory in symmetry-blocked form, NReq=7570190.
 Requested convergence on RMS density matrix=1.00D-08 within 128 cycles.
 Requested convergence on MAX density matrix=1.00D-06.
 Requested convergence on             energy=1.00D-06.
 No special actions if energy rises.
 SCF Done:  E(UB3LYP) =  -113.903637110     A.U. after    1 cycles
            NFock=  1  Conv=0.44D-09     -V/T= 2.0029
 <Sx>= 0.0000 <Sy>= 0.0000 <Sz>= 0.5000 <S**2>= 0.7533 S= 0.5017
 <L.S>=  0.00000000000    
 Annihilation of the first spin contaminant:
 S**2 before annihilation     0.7533,   after     0.7500
 DoSCS=F DFT=T ScalE2(SS,OS)=  1.000000  1.000000
 Range of M.O.s used for correlation:     1    74
 NBasis=    74 NAE=     8 NBE=     7 NFC=     0 NFV=     0
 NROrb=     74 NOA=     8 NOB=     7 NVA=    66 NVB=    67
 Symmetrizing basis deriv contribution to polar:
 IMax=3 JMax=2 DiffMx= 0.00D+00
 G2DrvN: will do     4 centers at a time, making    1 passes.
 Calling FoFCou, ICntrl=  3107 FMM=F I1Cent=   0 AccDes= 0.00D+00.
 End of G2Drv F.D. properties file   721 does not exist.
 End of G2Drv F.D. properties file   722 does not exist.
 End of G2Drv F.D. properties file   788 does not exist.
          IDoAtm=111
          Differentiating once with respect to electric field.
                with respect to dipole field.
          Differentiating once with respect to nuclear coordinates.
 Keep R1 and R2 ints in memory in symmetry-blocked form, NReq=7563877.
          There are    12 degrees of freedom in the 1st order CPHF.  IDoFFX=6 NUNeed=     3.
      9 vectors produced by pass  0 Test12= 8.31D-15 8.33D-09 XBig12= 3.62D+01 3.22D+00.
 AX will form     9 AO Fock derivatives at one time.
      9 vectors produced by pass  1 Test12= 8.31D-15 8.33D-09 XBig12= 1.69D+01 1.17D+00.
      9 vectors produced by pass  2 Test12= 8.31D-15 8.33D-09 XBig12= 5.27D-01 2.43D-01.
      9 vectors produced by pass  3 Test12= 8.31D-15 8.33D-09 XBig12= 1.02D-02 4.78D-02.
      9 vectors produced by pass  4 Test12= 8.31D-15 8.33D-09 XBig12= 6.39D-05 2.02D-03.
      9 vectors produced by pass  5 Test12= 8.31D-15 8.33D-09 XBig12= 3.69D-07 1.69D-04.
      9 vectors produced by pass  6 Test12= 8.31D-15 8.33D-09 XBig12= 1.56D-09 1.07D-05.
      3 vectors produced by pass  7 Test12= 8.31D-15 8.33D-09 XBig12= 5.30D-12 6.50D-07.
      2 vectors produced by pass  8 Test12= 8.31D-15 8.33D-09 XBig12= 1.89D-14 3.46D-08.
 InvSVY:  IOpt=1 It=  1 EMax= 1.11D-15
 Solved reduced A of dimension    68 with     9 vectors.
 Isotropic polarizability for W=    0.000000       15.13 Bohr**3.
 End of Minotr F.D. properties file   721 does not exist.
 End of Minotr F.D. properties file   722 does not exist.
 End of Minotr F.D. properties file   788 does not exist.

 **********************************************************************

            Population analysis using the SCF Density.

 **********************************************************************

 Orbital symmetries:
 Alpha Orbitals:
       Occupied  (A') (A') (A') (A') (A') (A') (A") (A')
       Virtual   (A") (A') (A') (A') (A") (A') (A') (A') (A") (A')
                 (A') (A') (A") (A') (A') (A") (A') (A') (A") (A")
                 (A') (A') (A') (A') (A") (A') (A') (A") (A') (A")
                 (A') (A') (A') (A") (A') (A") (A') (A") (A') (A')
                 (A') (A") (A') (A") (A') (A") (A') (A') (A") (A")
                 (A') (A') (A') (A") (A') (A") (A') (A') (A") (A')
                 (A") (A') (A') (A") (A') (A')
 Beta  Orbitals:
       Occupied  (A') (A') (A') (A') (A') (A") (A')
       Virtual   (A') (A") (A') (A') (A") (A') (A') (A') (A') (A")
                 (A') (A') (A') (A") (A') (A') (A") (A') (A') (A")
                 (A") (A') (A') (A') (A') (A") (A') (A") (A') (A')
                 (A") (A') (A') (A') (A") (A') (A") (A') (A") (A')
                 (A') (A") (A') (A') (A") (A') (A") (A') (A') (A")
                 (A") (A') (A') (A') (A") (A') (A") (A') (A') (A")
                 (A") (A') (A') (A') (A") (A') (A')
 The electronic state is 2-A'.
 Alpha  occ. eigenvalues --  -19.19714 -10.28493  -1.12264  -0.62649  -0.51371
 Alpha  occ. eigenvalues --   -0.45213  -0.44745  -0.22755
 Alpha virt. eigenvalues --   -0.06158   0.02831   0.09399   0.15638   0.16515
 Alpha virt. eigenvalues --    0.24121   0.29677   0.31530   0.40196   0.41962
 Alpha virt. eigenvalues --    0.49704   0.67546   0.69331   0.80405   0.97515
 Alpha virt. eigenvalues --    0.98234   1.03673   1.09477   1.18246   1.22046
 Alpha virt. eigenvalues --    1.25257   1.39100   1.51817   1.61550   1.61670
 Alpha virt. eigenvalues --    1.87509   1.92894   1.94056   2.08150   2.38115
 Alpha virt. eigenvalues --    2.39408   2.54083   2.89790   3.14530   3.16268
 Alpha virt. eigenvalues --    3.20220   3.35269   3.53762   3.67568   3.71042
 Alpha virt. eigenvalues --    3.82675   3.83696   3.89754   3.90216   3.97269
 Alpha virt. eigenvalues --    4.05886   4.16305   4.23805   4.24481   4.29079
 Alpha virt. eigenvalues --    4.38118   4.55331   4.62081   4.63562   4.92767
 Alpha virt. eigenvalues --    5.28800   5.45406   5.53425   5.58018   6.01800
 Alpha virt. eigenvalues --    6.01802   6.12231   6.18316   6.36777   6.51955
 Alpha virt. eigenvalues --    7.23181
  Beta  occ. eigenvalues --  -19.18810 -10.27494  -1.10672  -0.59907  -0.49097
  Beta  occ. eigenvalues --   -0.43990  -0.40017
  Beta virt. eigenvalues --   -0.08901  -0.04648   0.03476   0.09651   0.16943
  Beta virt. eigenvalues --    0.17570   0.25886   0.31297   0.31763   0.40385
  Beta virt. eigenvalues --    0.43140   0.51499   0.67972   0.71411   0.83255
  Beta virt. eigenvalues --    0.99930   1.00297   1.06155   1.10955   1.19313
  Beta virt. eigenvalues --    1.23190   1.28669   1.41423   1.53688   1.63451
  Beta virt. eigenvalues --    1.63573   1.88992   1.94589   1.94910   2.09991
  Beta virt. eigenvalues --    2.38715   2.41886   2.57153   2.90937   3.17350
  Beta virt. eigenvalues --    3.19482   3.22017   3.37303   3.54988   3.69515
  Beta virt. eigenvalues --    3.73062   3.85468   3.85713   3.92083   3.92429
  Beta virt. eigenvalues --    3.99222   4.09245   4.19241   4.26157   4.27266
  Beta virt. eigenvalues --    4.32331   4.40896   4.57368   4.65354   4.65546
  Beta virt. eigenvalues --    4.95909   5.31123   5.48813   5.56221   5.58947
  Beta virt. eigenvalues --    6.04750   6.05043   6.14146   6.20312   6.37178
  Beta virt. eigenvalues --    6.54639   7.24228
          Condensed to atoms (all electrons):
               1          2          3
     1  C    5.142111   0.214810   0.483627
     2  H    0.214810   0.758740  -0.036817
     3  O    0.483627  -0.036817   7.775909
          Atomic-Atomic Spin Densities.
               1          2          3
     1  C    0.972150  -0.181922  -0.193464
     2  H   -0.181922   0.357723  -0.013915
     3  O   -0.193464  -0.013915   0.448728
 Mulliken charges and spin densities:
               1          2
     1  C    0.159452   0.596764
     2  H    0.063267   0.161887
     3  O   -0.222719   0.241349
 Sum of Mulliken charges =   0.00000   1.00000
 Mulliken charges and spin densities with hydrogens summed into heavy atoms:
               1          2
     1  C    0.222719   0.758651
     3  O   -0.222719   0.241349
 APT charges:
               1
     1  C    0.353919
     2  H    0.051991
     3  O   -0.405910
 Sum of APT charges =   0.00000
 APT charges with hydrogens summed into heavy atoms:
               1
     1  C    0.405910
     3  O   -0.405910
 Electronic spatial extent (au):  <R**2>=             50.8554
 Charge=              0.0000 electrons
 Dipole moment (field-independent basis, Debye):
    X=             -0.9904    Y=              1.3533    Z=              0.0000  Tot=              1.6770
 Quadrupole moment (field-independent basis, Debye-Ang):
   XX=            -11.5651   YY=            -11.7624   ZZ=            -10.9836
   XY=             -1.1336   XZ=              0.0000   YZ=              0.0000
 Traceless Quadrupole moment (field-independent basis, Debye-Ang):
   XX=             -0.1281   YY=             -0.3253   ZZ=              0.4534
   XY=             -1.1336   XZ=              0.0000   YZ=              0.0000
 Octapole moment (field-independent basis, Debye-Ang**2):
  XXX=             -1.1953  YYY=             -2.4127  ZZZ=              0.0000  XYY=             -1.7288
  XXY=             -0.9120  XXZ=              0.0000  XZZ=             -0.2370  YZZ=             -0.8897
  YYZ=              0.0000  XYZ=              0.0000
 Hexadecapole moment (field-independent basis, Debye-Ang**3):
 XXXX=            -16.1655 YYYY=            -40.9312 ZZZZ=            -10.0833 XXXY=              1.1001
 XXXZ=              0.0000 YYYX=              0.0223 YYYZ=              0.0000 ZZZX=              0.0000
 ZZZY=              0.0000 XXYY=             -9.4509 XXZZ=             -4.4606 YYZZ=             -8.4451
 XXYZ=              0.0000 YYXZ=              0.0000 ZZXY=              0.5775
 N-N= 2.659007798652D+01 E-N=-3.208790582143D+02  KE= 1.135768742559D+02
 Symmetry A'   KE= 1.096354234904D+02
 Symmetry A"   KE= 3.941450765512D+00
 Symmetry A'   SP= 1.000000000000D+00
 Symmetry A"   SP=-2.072337256225D-15
  Exact polarizability:  15.090  -1.951  19.983   0.000   0.000  10.316
 Approx polarizability:  17.136  -2.095  31.587  -0.000  -0.000  13.318
                          Isotropic Fermi Contact Couplings
        Atom                 a.u.       MegaHertz       Gauss      10(-4) cm-1
     1  C(13)              0.37768     424.58340     151.50192     141.62578
     2  H(1)               0.08202     366.63395     130.82411     122.29592
     3  O(17)              0.09549     -57.88308     -20.65412     -19.30772
 --------------------------------------------------------
       Center         ----  Spin Dipole Couplings  ----
                      3XX-RR        3YY-RR        3ZZ-RR
 --------------------------------------------------------
     1   Atom        0.431772     -0.112849     -0.318923
     2   Atom        0.012855      0.017245     -0.030099
     3   Atom        1.440391     -0.618985     -0.821407
 --------------------------------------------------------
                        XY            XZ            YZ
 --------------------------------------------------------
     1   Atom        0.441770      0.000000      0.000000
     2   Atom       -0.031432      0.000000      0.000000
     3   Atom        0.473887      0.000000      0.000000
 --------------------------------------------------------


 ---------------------------------------------------------------------------------
              Anisotropic Spin Dipole Couplings in Principal Axis System
 ---------------------------------------------------------------------------------

       Atom             a.u.   MegaHertz   Gauss  10(-4) cm-1        Axes

              Baa    -0.3595   -48.240   -17.213   -16.091 -0.4875  0.8731 -0.0000
     1 C(13)  Bbb    -0.3189   -42.796   -15.271   -14.275  0.0000  0.0000  1.0000
              Bcc     0.6784    91.037    32.484    30.367  0.8731  0.4875  0.0000
 
              Baa    -0.0301   -16.060    -5.730    -5.357  0.0000  0.0000  1.0000
     2 H(1)   Bbb    -0.0165    -8.782    -3.134    -2.929  0.7313  0.6820  0.0000
              Bcc     0.0466    24.841     8.864     8.286 -0.6820  0.7313  0.0000
 
              Baa    -0.8214    59.436    21.208    19.826  0.0000  0.0000  1.0000
     3 O(17)  Bbb    -0.7228    52.301    18.662    17.446 -0.2140  0.9768 -0.0000
              Bcc     1.5442  -111.738   -39.871   -37.272  0.9768  0.2140  0.0000
 

 ---------------------------------------------------------------------------------

 Calling FoFJK, ICntrl=    100127 FMM=F ISym2X=1 I1Cent= 0 IOpClX= 1 NMat=1 NMatS=1 NMatT=0.
 Full mass-weighted force constant matrix:
 Low frequencies ---   -7.8073   -0.0025   -0.0023   -0.0017    2.5846    3.9125
 Low frequencies --- 1106.2974 1933.3829 2651.3265
 Diagonal vibrational polarizability:
        0.2382387       1.6335112       0.0000000
 Harmonic frequencies (cm**-1), IR intensities (KM/Mole), Raman scattering
 activities (A**4/AMU), depolarization ratios for plane and unpolarized
 incident light, reduced masses (AMU), force constants (mDyne/A),
 and normal coordinates:
                      1                      2                      3
                     A'                     A'                     A'
 Frequencies --   1106.2974              1933.3829              2651.3265
 Red. masses --      1.2525                11.6726                 1.0791
 Frc consts  --      0.9032                25.7072                 4.4691
 IR Inten    --     37.6537                98.8269                86.8053
  Atom  AN      X      Y      Z        X      Y      Z        X      Y      Z
     1   6    -0.12  -0.03  -0.00     0.03   0.73   0.00    -0.06   0.05   0.00
     2   1     0.52   0.84  -0.00    -0.33   0.19   0.00     0.80  -0.59   0.00
     3   8     0.06  -0.03  -0.00    -0.00  -0.56   0.00    -0.00   0.00   0.00

 -------------------
 - Thermochemistry -
 -------------------
 Temperature   298.150 Kelvin.  Pressure   1.00000 Atm.
 Atom     1 has atomic number  6 and mass  12.00000
 Atom     2 has atomic number  1 and mass   1.00783
 Atom     3 has atomic number  8 and mass  15.99491
 Molecular mass:    29.00274 amu.
 Principal axes and moments of inertia in atomic units:
                           1         2         3
     Eigenvalues --     2.49914  40.01157  42.51071
           X           -0.11261   0.99364   0.00000
           Y            0.99364   0.11261   0.00000
           Z           -0.00000   0.00000   1.00000
 This molecule is an asymmetric top.
 Rotational symmetry number  1.
 Rotational temperatures (Kelvin)     34.65748     2.16472     2.03746
 Rotational constants (GHZ):         722.14470    45.10548    42.45380
 Zero-point vibrational energy      34039.8 (Joules/Mol)
                                    8.13570 (Kcal/Mol)
 Vibrational temperatures:   1591.72  2781.71  3814.67
          (Kelvin)
 
 Zero-point correction=                           0.012965 (Hartree/Particle)
 Thermal correction to Energy=                    0.015823
 Thermal correction to Enthalpy=                  0.016767
 Thermal correction to Gibbs Free Energy=        -0.008687
 Sum of electronic and zero-point Energies=           -113.890672
 Sum of electronic and thermal Energies=              -113.887814
 Sum of electronic and thermal Enthalpies=            -113.886870
 Sum of electronic and thermal Free Energies=         -113.912324
 
                     E (Thermal)             CV                S
                      KCal/Mol        Cal/Mol-Kelvin    Cal/Mol-Kelvin
 Total                    9.929              6.252             53.573
 Electronic               0.000              0.000              1.377
 Translational            0.889              2.981             36.028
 Rotational               0.889              2.981             16.104
 Vibrational              8.151              0.291              0.063
                       Q            Log10(Q)             Ln(Q)
 Total Bot       0.990476D+04          3.995844          9.200771
 Total V=0       0.910659D+10          9.959356         22.932264
 Vib (Bot)       0.109300D-05         -5.961381        -13.726588
 Vib (V=0)       0.100492D+01          0.002130          0.004905
 Electronic      0.200000D+01          0.301030          0.693147
 Translational   0.613921D+07          6.788112         15.630206
 Rotational      0.738045D+03          2.868083          6.604005
 ***** Axes restored to original set *****
 -------------------------------------------------------------------
 Center     Atomic                   Forces (Hartrees/Bohr)
 Number     Number              X              Y              Z
 -------------------------------------------------------------------
      1        6          -0.000002914   -0.000010675   -0.000000000
      2        1           0.000001033    0.000001394   -0.000000000
      3        8           0.000001880    0.000009281   -0.000000000
 -------------------------------------------------------------------
 Cartesian Forces:  Max     0.000010675 RMS     0.000004889
 FormGI is forming the generalized inverse of G from B-inverse, IUseBI=4.

 GradGradGradGradGradGradGradGradGradGradGradGradGradGradGradGradGradGrad
 Berny optimization.
 Internal  Forces:  Max     0.000009246 RMS     0.000005797
 Search for a local minimum.
 Step number   1 out of a maximum of    2
 All quantities printed in internal units (Hartrees-Bohrs-Radians)
 Second derivative matrix not updated -- analytic derivatives used.
 The second derivative matrix:
                          R1        R2        A1
           R1           0.25039
           R2           0.04887   0.99076
           A1           0.01980   0.03438   0.16642
 ITU=  0
     Eigenvalues ---    0.16133   0.25074   0.99550
 Angle between quadratic step and forces=  45.39 degrees.
 Linear search not attempted -- first point.
 Iteration  1 RMS(Cart)=  0.00001464 RMS(Int)=  0.00000000
 Iteration  2 RMS(Cart)=  0.00000000 RMS(Int)=  0.00000000
 ClnCor:  largest displacement from symmetrization is 0.00D+00 for atom     0.
 Variable       Old X    -DE/DX   Delta X   Delta X   Delta X     New X
                                 (Linear)    (Quad)   (Total)
    R1        2.12212  -0.00000   0.00000  -0.00000  -0.00000   2.12212
    R2        2.21420  -0.00001   0.00000  -0.00001  -0.00001   2.21419
    A1        2.17309   0.00000   0.00000   0.00003   0.00003   2.17311
         Item               Value     Threshold  Converged?
 Maximum Force            0.000009     0.000450     YES
 RMS     Force            0.000006     0.000300     YES
 Maximum Displacement     0.000014     0.001800     YES
 RMS     Displacement     0.000015     0.001200     YES
 Predicted change in Energy=-9.743523D-11
 Optimization completed.
    -- Stationary point found.
                           ----------------------------
                           !   Optimized Parameters   !
                           ! (Angstroms and Degrees)  !
 --------------------------                            --------------------------
 ! Name  Definition              Value          Derivative Info.                !
 --------------------------------------------------------------------------------
 ! R1    R(1,2)                  1.123          -DE/DX =    0.0                 !
 ! R2    R(1,3)                  1.1717         -DE/DX =    0.0                 !
 ! A1    A(2,1,3)              124.5088         -DE/DX =    0.0                 !
 --------------------------------------------------------------------------------
 GradGradGradGradGradGradGradGradGradGradGradGradGradGradGradGradGradGrad


 ----------------------------------------------------------------------

 Electric dipole moment (input orientation):
 (Debye = 10**-18 statcoulomb cm , SI units = C m)
                  (au)            (Debye)         (10**-30 SI)
   Tot        0.659774D+00      0.167698D+01      0.559380D+01
   x         -0.389644D+00     -0.990376D+00     -0.330354D+01
   y          0.532428D+00      0.135330D+01      0.451411D+01
   z          0.000000D+00      0.000000D+00      0.000000D+00

 Dipole polarizability, Alpha (input orientation).
 (esu units = cm**3 , SI units = C**2 m**2 J**-1)
 Alpha(0;0):
               (au)            (10**-24 esu)      (10**-40 SI)
   iso        0.151298D+02      0.224200D+01      0.249456D+01
   aniso      0.902836D+01      0.133786D+01      0.148857D+01
   xx         0.150900D+02      0.223610D+01      0.248800D+01
   yx        -0.195060D+01     -0.289049D+00     -0.321610D+00
   yy         0.199834D+02      0.296123D+01      0.329481D+01
   zx         0.000000D+00      0.000000D+00      0.000000D+00
   zy         0.000000D+00      0.000000D+00      0.000000D+00
   zz         0.103160D+02      0.152868D+01      0.170088D+01

 ----------------------------------------------------------------------

 Dipole orientation:
     6          0.60052161          0.43947647          0.81944443
     1          0.03468970          0.02538677          2.82237728
     8         -0.45472646         -0.33278000         -0.96738047

 Electric dipole moment (dipole orientation):
 (Debye = 10**-18 statcoulomb cm , SI units = C m)
                  (au)            (Debye)         (10**-30 SI)
   Tot        0.659774D+00      0.167698D+01      0.559380D+01
   x          0.000000D+00      0.000000D+00      0.000000D+00
   y          0.000000D+00      0.000000D+00      0.000000D+00
   z          0.659774D+00      0.167698D+01      0.559380D+01

 Dipole polarizability, Alpha (dipole orientation).
 (esu units = cm**3 , SI units = C**2 m**2 J**-1)
 Alpha(0;0):
               (au)            (10**-24 esu)      (10**-40 SI)
   iso        0.151298D+02      0.224200D+01      0.249456D+01
   aniso      0.902836D+01      0.133786D+01      0.148857D+01
   xx         0.133256D+02      0.197465D+01      0.219709D+01
   yx         0.220247D+01      0.326372D+00      0.363138D+00
   yy         0.119279D+02      0.176753D+01      0.196664D+01
   zx         0.140590D+01      0.208332D+00      0.231801D+00
   zy         0.102887D+01      0.152463D+00      0.169638D+00
   zz         0.201359D+02      0.298383D+01      0.331996D+01

 ----------------------------------------------------------------------
 1\1\GINC-GAMBA\Freq\UB3LYP\Gen\C1H1O1(2)\IRIKURA\27-Sep-2023\0\\#N Geo
 m=AllCheck Guess=TCheck SCRF=Check GenChk UB3LYP/ChkBas Freq\\formyl, 
 B3LYP/pcseg-2\\0,2\C,0.061692,0.582495,0.\H,-0.863684,1.218697,0.\O,0.
 061692,-0.589208,0.\\Version=ES64L-G16RevB.01\State=2-A'\HF=-113.90363
 71\S2=0.753341\S2-1=0.\S2A=0.750007\RMSD=4.386e-10\RMSF=4.889e-06\Zero
 Point=0.0129651\Thermal=0.0158228\Dipole=-0.3896439,0.532428,0.\Dipole
 Deriv=0.3332853,-0.2533016,0.,-0.3744893,0.8318115,0.,0.,0.,-0.1033408
 ,-0.129909,0.2459273,0.,0.1362601,0.0630658,0.,0.,0.,0.2228168,-0.2033
 763,0.0073742,0.,0.2382293,-0.8948773,0.,0.,0.,-0.119476\Polar=15.0899
 501,-1.9505998,19.9833712,0.,0.,10.3160296\Quadrupole=-0.0952177,-0.24
 18795,0.3370972,-0.8427956,0.,0.\PG=CS [SG(C1H1O1)]\NImag=0\\0.2325145
 9,-0.05316639,1.02286133,0.,0.,0.00000342,-0.18587283,0.07189460,0.,0.
 17318023,0.06873077,-0.07313458,0.,-0.10298523,0.11416824,0.,0.,0.0000
 0111,0.,0.,-0.00000224,-0.04664176,-0.01872821,0.,0.01269260,0.0342544
 7,0.,0.03394915,-0.01556438,-0.94972675,0.,0.03109064,-0.04103367,0.,-
 0.01552625,0.99076042,0.,0.,-0.00000453,0.,0.,0.00000113,0.,0.,0.00000
 341\\0.00000291,0.00001068,0.,-0.00000103,-0.00000139,0.,-0.00000188,-
 0.00000928,0.\\\@


 ... IT CAN BE VERY DIFFICULT, IN THESE COMPLEX TIMES,
 TO UNDERSTAND JUST HOW SCIENTISTS DO WHAT THEY DO.

                     DON MOSER IN THE FEBRUARY 1979 SMITHSONIAN
 Job cpu time:       0 days  0 hours  1 minutes 12.3 seconds.
 Elapsed time:       0 days  0 hours  0 minutes 18.1 seconds.
 File lengths (MBytes):  RWF=     10 Int=      0 D2E=      0 Chk=      2 Scr=      1
 Normal termination of Gaussian 16 at Wed Sep 27 17:26:41 2023.
 AtFile(1): ccpvtz-f12.gbs
            -H     0
            S    3   1.00
                 82.6400000              0.0020060
                 12.4100000              0.0153430
                  2.8240000              0.0755790
            S    1   1.00
                  0.7977000              1.0000000
            S    1   1.00
                  0.2581000              1.0000000
            S    1   1.00
                  0.0898900              1.0000000
            P    1   1.00
                  1.5513000              1.0000000
            P    1   1.00
                  0.5580000              1.0000000
            P    1   1.00
                  0.2007000              1.0000000
            D    1   1.00
                  0.4648000              1.0000000
            ****
            -He     0
            S    4   1.00
                528.5000000              0.0009400
                 79.3100000              0.0072140
                 18.0500000              0.0359750
                  5.0850000              0.1277820
            S    1   1.00
                  1.6090000              1.0000000
            S    1   1.00
                  0.5363000              1.0000000
            S    1   1.00
                  0.1833000              1.0000000
            S    1   1.00
                  0.0481900              1.0000000
            P    1   1.00
                  3.7026000              1.0000000
            P    1   1.00
                  1.2284000              1.0000000
            P    1   1.00
                  0.4075000              1.0000000
            D    1   1.00
                  0.6525000              1.0000000
            ****
            -Li     0
            S    9   1.00
               6601.0000000              0.0001170
                989.7000000              0.0009110
                225.7000000              0.0047280
                 64.2900000              0.0191970
                 21.1800000              0.0630470
                  7.7240000              0.1632080
                  3.0030000              0.3148270
                  1.2120000              0.3939360
                  0.4930000              0.1969180
            S    9   1.00
               6601.0000000             -0.0000180
                989.7000000             -0.0001420
                225.7000000             -0.0007410
                 64.2900000             -0.0030200
                 21.1800000             -0.0101230
                  7.7240000             -0.0270940
                  3.0030000             -0.0573590
                  1.2120000             -0.0938950
                  0.4930000             -0.1210910
            S    1   1.00
                  0.0951500              1.0000000
            S    1   1.00
                  0.0479100              1.0000000
            S    1   1.00
                  0.0222000              1.0000000
            S    1   1.00
                  0.0064000              1.0000000
            P    2   1.00
                  6.2500000              0.0033880
                  1.3700000              0.0193160
            P    1   1.00
                  0.3672000              1.0000000
            P    1   1.00
                  0.1192000              1.0000000
            P    1   1.00
                  0.0447400              1.0000000
            P    1   1.00
                  0.0179500              1.0000000
            P    1   1.00
                  0.0075000              1.0000000
            D    1   1.00
                  0.2351180              1.0000000
            D    1   1.00
                  0.1194040              1.0000000
            D    1   1.00
                  0.0606390              1.0000000
            F    1   1.00
                  0.1637750              1.0000000
            F    1   1.00
                  0.0759100              1.0000000
            ****
            -Be     0
            S    9   1.00
              14630.0000000              0.0000920
               2191.0000000              0.0007130
                498.2000000              0.0037350
                140.9000000              0.0154680
                 45.8600000              0.0528740
                 16.4700000              0.1456940
                  6.3190000              0.3026810
                  2.5350000              0.4049360
                  1.0350000              0.2223870
            S    9   1.00
              14630.0000000             -0.0000170
               2191.0000000             -0.0001300
                498.2000000             -0.0006790
                140.9000000             -0.0028570
                 45.8600000             -0.0098130
                 16.4700000             -0.0286090
                  6.3190000             -0.0637600
                  2.5350000             -0.1172310
                  1.0350000             -0.1212020
            S    1   1.00
                  0.2528000              1.0000000
            S    1   1.00
                  0.1052000              1.0000000
            S    1   1.00
                  0.0426100              1.0000000
            S    1   1.00
                  0.0141000              1.0000000
            P    2   1.00
                 14.0300000              0.0040990
                  3.1680000              0.0256260
            P    1   1.00
                  0.9024000              1.0000000
            P    1   1.00
                  0.3036000              1.0000000
            P    1   1.00
                  0.1130000              1.0000000
            P    1   1.00
                  0.0428600              1.0000000
            P    1   1.00
                  0.0084000              1.0000000
            D    1   1.00
                  0.4670460              1.0000000
            D    1   1.00
                  0.2205970              1.0000000
            D    1   1.00
                  0.1041940              1.0000000
            F    1   1.00
                  0.3166400              1.0000000
            F    1   1.00
                  0.1457880              1.0000000
            ****
            -B     0
            S    9   1.00
              23870.0000000              0.0000880
               3575.0000000              0.0006870
                812.8000000              0.0036000
                229.7000000              0.0149490
                 74.6900000              0.0514350
                 26.8100000              0.1433020
                 10.3200000              0.3009350
                  4.1780000              0.4035260
                  1.7270000              0.2253400
            S    9   1.00
              23870.0000000             -0.0000180
               3575.0000000             -0.0001390
                812.8000000             -0.0007250
                229.7000000             -0.0030630
                 74.6900000             -0.0105810
                 26.8100000             -0.0313650
                 10.3200000             -0.0710120
                  4.1780000             -0.1321030
                  1.7270000             -0.1230720
            S    1   1.00
                  0.4704000              1.0000000
            S    1   1.00
                  0.1896000              1.0000000
            S    1   1.00
                  0.0739400              1.0000000
            S    1   1.00
                  0.0272100              1.0000000
            P    2   1.00
                 22.2600000              0.0050950
                  5.0580000              0.0332060
            P    1   1.00
                  1.4870000              1.0000000
            P    1   1.00
                  0.5071000              1.0000000
            P    1   1.00
                  0.1812000              1.0000000
            P    1   1.00
                  0.0646300              1.0000000
            P    1   1.00
                  0.0187800              1.0000000
            D    1   1.00
                  1.4403000              1.0000000
            D    1   1.00
                  0.5333000              1.0000000
            D    1   1.00
                  0.1975000              1.0000000
            F    1   1.00
                  0.8479000              1.0000000
            F    1   1.00
                  0.2484000              1.0000000
            ****
            -C     0
            S    9   1.00
              33980.0000000              0.0000910
               5089.0000000              0.0007040
               1157.0000000              0.0036930
                326.6000000              0.0153600
                106.1000000              0.0529290
                 38.1100000              0.1470430
                 14.7500000              0.3056310
                  6.0350000              0.3993450
                  2.5300000              0.2170510
            S    9   1.00
              33980.0000000             -0.0000190
               5089.0000000             -0.0001510
               1157.0000000             -0.0007850
                326.6000000             -0.0033240
[...]
 contracts under FAR:
  
                    RESTRICTED RIGHTS LEGEND
  
 Use, reproduction and disclosure by the US Government is
 subject to restrictions as set forth in subparagraphs (a)
 and (c) of the Commercial Computer Software - Restricted
 Rights clause in FAR 52.227-19.
  
 Gaussian, Inc.
 340 Quinnipiac St., Bldg. 40, Wallingford CT 06492
  
  
 ---------------------------------------------------------------
 Warning -- This program may not be used in any manner that
 competes with the business of Gaussian, Inc. or will provide
 assistance to any competitor of Gaussian, Inc.  The licensee
 of this program is prohibited from giving any competitor of
 Gaussian, Inc. access to this program.  By using this program,
 the user acknowledges that Gaussian, Inc. is engaged in the
 business of creating and licensing software in the field of
 computational chemistry and represents and warrants to the
 licensee that it is not a competitor of Gaussian, Inc. and that
 it will not use this program in any manner prohibited above.
 ---------------------------------------------------------------
  

 Cite this work as:
 Gaussian 16, Revision B.01,
 M. J. Frisch, G. W. Trucks, H. B. Schlegel, G. E. Scuseria, 
 M. A. Robb, J. R. Cheeseman, G. Scalmani, V. Barone, 
 G. A. Petersson, H. Nakatsuji, X. Li, M. Caricato, A. V. Marenich, 
 J. Bloino, B. G. Janesko, R. Gomperts, B. Mennucci, H. P. Hratchian, 
 J. V. Ortiz, A. F. Izmaylov, J. L. Sonnenberg, D. Williams-Young, 
 F. Ding, F. Lipparini, F. Egidi, J. Goings, B. Peng, A. Petrone, 
 T. Henderson, D. Ranasinghe, V. G. Zakrzewski, J. Gao, N. Rega, 
 G. Zheng, W. Liang, M. Hada, M. Ehara, K. Toyota, R. Fukuda, 
 J. Hasegawa, M. Ishida, T. Nakajima, Y. Honda, O. Kitao, H. Nakai, 
 T. Vreven, K. Throssell, J. A. Montgomery, Jr., J. E. Peralta, 
 F. Ogliaro, M. J. Bearpark, J. J. Heyd, E. N. Brothers, K. N. Kudin, 
 V. N. Staroverov, T. A. Keith, R. Kobayashi, J. Normand, 
 K. Raghavachari, A. P. Rendell, J. C. Burant, S. S. Iyengar, 
 J. Tomasi, M. Cossi, J. M. Millam, M. Klene, C. Adamo, R. Cammi, 
 J. W. Ochterski, R. L. Martin, K. Morokuma, O. Farkas, 
 J. B. Foresman, and D. J. Fox, Gaussian, Inc., Wallingford CT, 2016.
 
 ******************************************
 Gaussian 16:  ES64L-G16RevB.01 20-Dec-2017
                27-Sep-2023 
 ******************************************
 %chk=cho.chk
 %mem=500mw
 %nprocs=4
 Will use up to    4 processors via shared memory.
 ---------------------------------
 # rohf/gen geom=check guess=check
 ---------------------------------
 1/29=2,38=1,172=1/1;
 2/12=2,40=1/2;
 3/5=7,11=2,14=-4,25=1,30=1,116=101/1,2,3;
 4/5=1/1;
 5/5=2,38=6/2;
 6/7=2,8=2,9=2,10=2,28=1/1;
 99/5=1,9=1/99;
 ------------------------
 formyl, ROHF/cc-pVTZ-F12
 ------------------------
 Structure from the checkpoint file:  "cho.chk"
 Charge =  0 Multiplicity = 2
 Redundant internal coordinates found in file.  (old form).
 C,0,0.061692,0.582495,0.
 H,0,-0.863684,1.218697,0.
 O,0,0.061692,-0.589208,0.
 Recover connectivity data from disk.
                           ----------------------------
                           !    Current Parameters    !
                           ! (Angstroms and Degrees)  !
 --------------------------                            --------------------------
 ! Name  Definition              Value                                          !
 --------------------------------------------------------------------------------
 ! R1    R(1,2)                  1.123                                          !
 ! R2    R(1,3)                  1.1717                                         !
 ! A1    A(2,1,3)              124.5088                                         !
 --------------------------------------------------------------------------------
                          Input orientation:                          
 ---------------------------------------------------------------------
 Center     Atomic      Atomic             Coordinates (Angstroms)
 Number     Number       Type             X           Y           Z
 ---------------------------------------------------------------------
      1          6           0        0.061692    0.582495    0.000000
      2          1           0       -0.863684    1.218697    0.000000
      3          8           0        0.061692   -0.589208    0.000000
 ---------------------------------------------------------------------
                    Distance matrix (angstroms):
                    1          2          3
     1  C    0.000000
     2  H    1.122975   0.000000
     3  O    1.171703   2.030971   0.000000
 Stoichiometry    CHO(2)
 Framework group  CS[SG(CHO)]
 Deg. of freedom     3
 Full point group                 CS      NOp   2
 Largest Abelian subgroup         CS      NOp   2
 Largest concise Abelian subgroup C1      NOp   1
                         Standard orientation:                         
 ---------------------------------------------------------------------
 Center     Atomic      Atomic             Coordinates (Angstroms)
 Number     Number       Type             X           Y           Z
 ---------------------------------------------------------------------
      1          6           0        0.061692    0.582495    0.000000
      2          1           0       -0.863684    1.218697    0.000000
      3          8           0        0.061692   -0.589208    0.000000
 ---------------------------------------------------------------------
 Rotational constants (GHZ):         722.1447043          45.1054822          42.4537989
 General basis read from cards:  (5D, 7F)
 There are    98 symmetry adapted cartesian basis functions of A'  symmetry.
 There are    45 symmetry adapted cartesian basis functions of A"  symmetry.
 There are    83 symmetry adapted basis functions of A'  symmetry.
 There are    41 symmetry adapted basis functions of A"  symmetry.
   124 basis functions,   177 primitive gaussians,   143 cartesian basis functions
     8 alpha electrons        7 beta electrons
       nuclear repulsion energy        26.5900779865 Hartrees.
 NAtoms=    3 NActive=    3 NUniq=    3 SFac= 1.00D+00 NAtFMM=   60 NAOKFM=F Big=F
 Integral buffers will be    131072 words long.
 Raffenetti 2 integral format.
 Two-electron integral symmetry is turned on.
 One-electron integrals computed using PRISM.
 NBasis=   124 RedAO= T EigKep=  2.25D-04  NBF=    83    41
 NBsUse=   124 1.00D-06 EigRej= -1.00D+00 NBFU=    83    41
 Initial guess from the checkpoint file:  "cho.chk"
 B after Tr=     0.000000    0.000000    0.000000
         Rot=    1.000000    0.000000    0.000000    0.000000 Ang=   0.00 deg.
 BiOrM2:  NumA=       8 NumB=       7.
 Eigenvalues of SAB:
  0.99999997  0.99999981  0.99998999  0.99992890  0.99985608
  0.99952832  0.99902865 -0.18623899
 BiOrM2:  NumA=       1 NumB=     117.
 Eigenvalues of SAB:
  1.00000000 -0.00841586 -0.02208870 -5.68805623 34.87123360
 32.74308524  3.16079868 -0.00960034 -0.12600749  0.00000000
  0.06355480  0.70633085  0.00000000 -0.16869053 -2.13768517
  0.00000000-11.12403519-10.16183846  0.00000000 -4.18210263
 -6.14754304  0.00000000 -0.15333820  0.20822891  0.00000000
  0.22330160  0.00000000  0.00000000  0.22138212  0.15874777
 -1.98415627  0.00000000  0.00000000 -2.20397184 -0.88513772
 -6.08057416  0.00000000  0.00000000 -4.00411788 -3.52355804
  0.00000000  0.14363967  0.46817068  0.00000000  0.00000000
  0.09157551  0.94395946  0.00000000  0.65026290  0.63906984
  0.00000000  0.00000000  0.16448469  2.33632241  0.29087541
 -1.23455048-20.75368662 -6.08095394  0.42283758 -0.26116261
  0.00000000 -4.37814661  2.88305698  0.00000000 -5.41600270
  4.82076244  0.00000000  0.88524909  0.00000000  0.00000000
 -0.37820882  1.68846723  0.23719945  0.54530543  3.18687841
-10.26790969-26.35798403-11.96608690 -0.01052273  0.05314255
  0.00000000  0.03896351 -0.22064803  0.00000000 -0.09644639
  1.17275664  0.00000000  0.20131649-10.79084673  0.00000000
  0.56411445-10.09822466  0.00000000  0.42135961 -2.26446484
  0.00000000 -0.14037601  0.00000000  0.00000000 -0.23976124
  0.01458688  0.75251752  0.00000000  0.00000000  1.30468196
 -0.07081424  1.59618030  0.00000000  0.00000000  2.85178442
  0.49473963  0.00000000  0.02100907  0.31707640  0.00000000
  0.00000000  0.06538157
 BiOrM2:  NumA=     116 NumB=     116.
 Eigenvalues of SAB:
  1.00000000  1.00000000  1.00000000  1.00000000  1.00000000
  1.00000000  1.00000000  1.00000000  1.00000000  1.00000000
  1.00000000  1.00000000  1.00000000  1.00000000  1.00000000
  1.00000000  1.00000000  1.00000000  1.00000000  1.00000000
  1.00000000  1.00000000  1.00000000  1.00000000  1.00000000
  1.00000000  1.00000000  1.00000000  1.00000000  1.00000000
  1.00000000  1.00000000  1.00000000  1.00000000  1.00000000
  1.00000000  1.00000000  1.00000000  1.00000000  1.00000000
  1.00000000  1.00000000  1.00000000  1.00000000  1.00000000
  1.00000000  1.00000000  1.00000000  1.00000000  1.00000000
  1.00000000  1.00000000  1.00000000  1.00000000  1.00000000
  1.00000000  1.00000000  1.00000000  1.00000000  1.00000000
  1.00000000  1.00000000  1.00000000  1.00000000  1.00000000
  1.00000000  1.00000000  1.00000000  1.00000000  1.00000000
  1.00000000  1.00000000  1.00000000  1.00000000  1.00000000
  1.00000000  1.00000000  1.00000000  1.00000000  1.00000000
  1.00000000  1.00000000  1.00000000  1.00000000  1.00000000
  1.00000000  1.00000000  1.00000000  1.00000000  1.00000000
  1.00000000  1.00000000  1.00000000  1.00000000  1.00000000
  1.00000000  1.00000000  1.00000000  1.00000000  1.00000000
  1.00000000  1.00000000  1.00000000  1.00000000  1.00000000
  1.00000000  1.00000000  1.00000000  1.00000000  0.99999997
  0.99999981  0.99998999  0.99992890  0.99985608  0.99952832
  0.99902865
 Initial guess orbital symmetries:
       Occupied  (A') (A') (A') (A') (A") (A') (A') (A')
       Virtual   (A') (A') (A") (A") (A") (A") (A") (A") (A") (A")
                 (A") (A") (A") (A") (A") (A") (A") (A") (A") (A")
                 (A") (A") (A") (A") (A") (A") (A") (A") (A") (A")
                 (A") (A") (A") (A") (A") (A") (A") (A") (A") (A")
                 (A") (A") (A") (A") (A") (A") (A") (A") (A") (A")
                 (A") (A") (A") (A") (A") (A") (A") (A") (A") (A")
                 (A") (A") (A") (A") (A") (A") (A") (A") (A") (A")
                 (A") (A") (A") (A") (A") (A") (A") (A") (A") (A")
                 (A") (A") (A") (A") (A") (A") (A") (A") (A") (A")
                 (A") (A") (A") (A") (A") (A") (A") (A") (A") (A")
                 (A") (A") (A") (A") (A") (A") (A') (A') (A') (A')
                 (A') (A') (A') (A") (A') (A')
 Keep R1 and R2 ints in memory in symmetry-blocked form, NReq=45745023.
 Requested convergence on RMS density matrix=1.00D-08 within 128 cycles.
 Requested convergence on MAX density matrix=1.00D-06.
 Requested convergence on             energy=1.00D-06.
 No special actions if energy rises.
 An orbital has undefined symmetry, so N**3 symmetry is turned off.
 SCF Done:  E(ROHF) =  -113.296337178     A.U. after   16 cycles
            NFock= 16  Conv=0.41D-08     -V/T= 2.0012
 <Sx>= 0.0000 <Sy>= 0.0000 <Sz>= 0.5000 <S**2>= 0.7500 S= 0.5000
 <L.S>=  0.00000000000    
 Annihilation of the first spin contaminant:
 S**2 before annihilation     0.7500,   after     0.7500

 **********************************************************************

            Population analysis using the SCF Density.

 **********************************************************************

 Orbital symmetries:
       Occupied  (A') (A') (A') (A') (A') (A") (A') (A')
       Virtual   (A') (A") (A') (A') (A") (A') (A') (A") (A') (A')
                 (A') (A') (A") (A") (A') (A') (A') (A') (A') (A")
                 (A') (A") (A') (A') (A") (A') (A') (A') (A") (A')
                 (A') (A") (A") (A') (A') (A") (A') (A") (A') (A')
                 (A') (A") (A") (A') (A') (A') (A') (A") (A") (A')
                 (A') (A') (A") (A") (A') (A') (A") (A') (A") (A')
                 (A") (A') (A') (A') (A') (A") (A") (A') (A') (A")
                 (A') (A') (A') (A") (A') (A") (A') (A") (A') (A')
                 (A') (A") (A") (A') (A') (A') (A') (A") (A') (A")
                 (A') (A") (A') (A") (A') (A') (A") (A') (A') (A')
                 (A") (A') (A') (A") (A') (A") (A') (A') (A") (A')
                 (A') (A') (A") (A') (A') (A')
 The electronic state is 2-A'.
 Alpha  occ. eigenvalues --  -20.60965 -11.34599  -1.44492  -0.81613  -0.68072
 Alpha  occ. eigenvalues --   -0.57600  -0.57411  -0.09362
 Alpha virt. eigenvalues --    0.05513   0.05918   0.07333   0.07696   0.13244
 Alpha virt. eigenvalues --    0.16849   0.18773   0.19425   0.21725   0.28468
 Alpha virt. eigenvalues --    0.32953   0.39136   0.43585   0.46119   0.47101
 Alpha virt. eigenvalues --    0.50051   0.56471   0.65491   0.69470   0.71605
 Alpha virt. eigenvalues --    0.77932   0.80054   0.80278   0.91710   0.94414
 Alpha virt. eigenvalues --    1.07938   1.09199   1.21127   1.22163   1.26169
 Alpha virt. eigenvalues --    1.36654   1.37627   1.51313   1.51989   1.54167
 Alpha virt. eigenvalues --    1.55594   1.61280   1.61347   1.64872   1.72819
 Alpha virt. eigenvalues --    1.74915   1.79163   1.88954   1.89652   1.90046
 Alpha virt. eigenvalues --    2.04605   2.06935   2.07202   2.21978   2.32556
 Alpha virt. eigenvalues --    2.35637   2.38172   2.38568   2.39951   2.44334
 Alpha virt. eigenvalues --    2.57289   2.73092   2.81528   2.91393   2.97797
 Alpha virt. eigenvalues --    3.06879   3.08157   3.31464   3.43096   3.47280
 Alpha virt. eigenvalues --    3.81576   3.85024   3.86972   3.93984   4.02257
 Alpha virt. eigenvalues --    4.03136   4.07360   4.14318   4.57549   4.58455
 Alpha virt. eigenvalues --    4.75923   4.82858   4.98621   5.08849   5.30463
 Alpha virt. eigenvalues --    5.51222   5.57445   5.67382   5.73076   5.89418
 Alpha virt. eigenvalues --    6.44275   6.86686   6.87487   6.93212   7.11893
 Alpha virt. eigenvalues --    7.20440   7.44985   7.54115   7.84303   7.90299
 Alpha virt. eigenvalues --    8.10862   8.27008   8.48660   8.71275   9.19606
 Alpha virt. eigenvalues --   10.00087  10.19797  10.84452  11.18045  11.18956
 Alpha virt. eigenvalues --   11.60435  11.65473  12.36766  20.58254  20.72818
 Alpha virt. eigenvalues --   21.57948  24.51673  37.60296  37.76220  38.27047
 Alpha virt. eigenvalues --   42.79965
          Condensed to atoms (all electrons):
               1          2          3
     1  C    4.978733   0.283932   0.500387
     2  H    0.283932   0.648964  -0.066866
     3  O    0.500387  -0.066866   7.937398
          Atomic-Atomic Spin Densities.
               1          2          3
     1  C    1.004824  -0.132119  -0.126645
     2  H   -0.132119   0.251879  -0.028214
     3  O   -0.126645  -0.028214   0.317254
 Mulliken charges and spin densities:
               1          2
     1  C    0.236948   0.746060
     2  H    0.133970   0.091546
     3  O   -0.370918   0.162395
 Sum of Mulliken charges =  -0.00000   1.00000
 Mulliken charges and spin densities with hydrogens summed into heavy atoms:
               1          2
     1  C    0.370918   0.837605
     3  O   -0.370918   0.162395
 Electronic spatial extent (au):  <R**2>=             50.4144
 Charge=             -0.0000 electrons
 Dipole moment (field-independent basis, Debye):
    X=             -0.9135    Y=              1.9918    Z=              0.0000  Tot=              2.1913
 Quadrupole moment (field-independent basis, Debye-Ang):
   XX=            -11.3128   YY=            -11.4687   ZZ=            -10.9364
   XY=             -1.0694   XZ=              0.0000   YZ=              0.0000
 Traceless Quadrupole moment (field-independent basis, Debye-Ang):
   XX=             -0.0735   YY=             -0.2294   ZZ=              0.3029
   XY=             -1.0694   XZ=              0.0000   YZ=              0.0000
 Octapole moment (field-independent basis, Debye-Ang**2):
  XXX=             -1.3305  YYY=             -1.6953  ZZZ=              0.0000  XYY=             -1.7123
  XXY=             -0.3679  XXZ=              0.0000  XZZ=             -0.1734  YZZ=             -0.5724
  YYZ=              0.0000  XYZ=              0.0000
 Hexadecapole moment (field-independent basis, Debye-Ang**3):
 XXXX=            -14.5468 YYYY=            -39.5066 ZZZZ=             -9.7658 XXXY=              0.8521
 XXXZ=              0.0000 YYYX=             -0.0766 YYYZ=              0.0000 ZZZX=              0.0000
 ZZZY=              0.0000 XXYY=             -8.8458 XXZZ=             -4.1880 YYZZ=             -8.1209
 XXYZ=              0.0000 YYXZ=              0.0000 ZZXY=              0.6144
 N-N= 2.659007798652D+01 E-N=-3.203534910111D+02  KE= 1.131582090108D+02
 Symmetry A'   KE= 1.094369732410D+02
 Symmetry A"   KE= 3.721235769822D+00
 Symmetry A'   SP= 1.000000000000D+00
 Symmetry A"   SP= 0.000000000000D+00
                          Isotropic Fermi Contact Couplings
        Atom                 a.u.       MegaHertz       Gauss      10(-4) cm-1
     1  C(13)              0.38493     432.73686     154.41127     144.34548
     2  H(1)               0.05421     242.32219      86.46658      80.82998
     3  O(17)              0.02763     -16.74675      -5.97566      -5.58611
 --------------------------------------------------------
       Center         ----  Spin Dipole Couplings  ----
                      3XX-RR        3YY-RR        3ZZ-RR
 --------------------------------------------------------
     1   Atom        0.498398     -0.122670     -0.375729
     2   Atom        0.026908      0.008761     -0.035669
     3   Atom        0.780995     -0.313931     -0.467064
 --------------------------------------------------------
                        XY            XZ            YZ
 --------------------------------------------------------
     1   Atom        0.451953      0.000000      0.000000
     2   Atom       -0.035534      0.000000      0.000000
     3   Atom        0.338694      0.000000      0.000000
 --------------------------------------------------------


 ---------------------------------------------------------------------------------
              Anisotropic Spin Dipole Couplings in Principal Axis System
 ---------------------------------------------------------------------------------

       Atom             a.u.   MegaHertz   Gauss  10(-4) cm-1        Axes

              Baa    -0.3757   -50.419   -17.991   -16.818  0.0000  0.0000  1.0000
     1 C(13)  Bbb    -0.3605   -48.374   -17.261   -16.136 -0.4657  0.8850 -0.0000
              Bcc     0.7362    98.794    35.252    32.954  0.8850  0.4657  0.0000
 
              Baa    -0.0357   -19.031    -6.791    -6.348  0.0000  0.0000  1.0000
     2 H(1)   Bbb    -0.0188   -10.052    -3.587    -3.353  0.6134  0.7898  0.0000
              Bcc     0.0545    29.083    10.378     9.701  0.7898 -0.6134 -0.0000
 
              Baa    -0.4671    33.796    12.059    11.273  0.0000  0.0000  1.0000
     3 O(17)  Bbb    -0.4102    29.684    10.592     9.902 -0.2735  0.9619 -0.0000
              Bcc     0.8773   -63.480   -22.651   -21.175  0.9619  0.2735  0.0000
 

 ---------------------------------------------------------------------------------

 1\1\GINC-GAMBA\SP\ROHF\Gen\C1H1O1(2)\IRIKURA\27-Sep-2023\0\\# rohf/gen
  geom=check guess=check\\formyl, ROHF/cc-pVTZ-F12\\0,2\C,0,0.061692,0.
 582495,0.\H,0,-0.863684,1.218697,0.\O,0,0.061692,-0.589208,0.\\Version
 =ES64L-G16RevB.01\State=2-A'\HF=-113.2963372\RMSD=4.125e-09\Dipole=-0.
 3594109,0.7836452,0.\Quadrupole=-0.0546589,-0.1705247,0.2251836,-0.795
 1035,0.,0.\PG=CS [SG(C1H1O1)]\\@


 NATURE REVEALS EVERY SECRET ONCE.
                    - RALPH WALDO EMERSON
 Job cpu time:       0 days  0 hours  0 minutes 13.1 seconds.
 Elapsed time:       0 days  0 hours  0 minutes  3.6 seconds.
 File lengths (MBytes):  RWF=     10 Int=      0 D2E=      0 Chk=      3 Scr=      1
 Normal termination of Gaussian 16 at Wed Sep 27 17:26:45 2023.
