 Entering Gaussian System, Link 0=g16
 AtFile(1): pcseg2.gbs
            -H     0
            S   4   1.00
                  0.754732D+02           0.427821D-02
                  0.113575D+02           0.328672D-01
                  0.260081D+01           0.159578D+00
                  0.735503D+00           0.500000D+00
            S   1   1.00
                  0.231761D+00           1.0000000
            S   1   1.00
                  0.741675D-01           1.0000000
            P   1   1.00
                  0.160000D+01           1.0000000
            P   1   1.00
                  0.450000D+00           1.0000000
            D   1   1.00
                  0.125000D+01           1.0000000
            ****
            -C     0
            S   7   1.00
                  0.731999D+04           0.695369D-03
                  0.109818D+04           0.537138D-02
                  0.250014D+03           0.274734D-01
                  0.707586D+02           0.105078D+00
                  0.228595D+02           0.291262D+00
                  0.803936D+01           0.500000D+00
                  0.289309D+01           0.362224D+00
            S   2   1.00
                  0.521640D+01          -0.957844D-01
                  0.556124D+00           0.500000D+00
            S   1   1.00
                  0.228813D+00           1.0000000
            S   1   1.00
                  0.936338D-01           1.0000000
            P   4   1.00
                  0.339855D+02           0.818395D-02
                  0.772957D+01           0.586921D-01
                  0.224954D+01           0.222514D+00
                  0.767681D+00           0.500000D+00
            P   1   1.00
                  0.263283D+00           1.0000000
            P   1   1.00
                  0.848744D-01           1.0000000
            D   1   1.00
                  0.140000D+01           1.0000000
            D   1   1.00
                  0.450000D+00           1.0000000
            F   1   1.00
                  0.950000D+00           1.0000000
            ****
            -O     0
            S   7   1.00
                  0.135887D+05           0.665492D-03
                  0.203847D+04           0.514222D-02
                  0.464041D+03           0.263472D-01
                  0.131339D+03           0.101500D+00
                  0.425340D+02           0.285877D+00
                  0.150429D+02           0.500000D+00
                  0.546616D+01           0.368211D+00
            S   2   1.00
                  0.100915D+02          -0.100084D+00
                  0.110429D+01           0.500000D+00
            S   1   1.00
                  0.448082D+00           1.0000000
            S   1   1.00
                  0.175325D+00           1.0000000
            P   4   1.00
                  0.608220D+02           0.908253D-02
                  0.140332D+02           0.645878D-01
                  0.418244D+01           0.241502D+00
                  0.142490D+01           0.500000D+00
            P   1   1.00
                  0.478741D+00           1.0000000
            P   1   1.00
                  0.146257D+00           1.0000000
            D   1   1.00
                  0.220000D+01           1.0000000
            D   1   1.00
                  0.650000D+00           1.0000000
            F   1   1.00
                  0.110000D+01           1.0000000
            ****
            -N     0
            S   7   1.00
                  0.101643D+05           0.682757D-03
                  0.152481D+04           0.527488D-02
                  0.347119D+03           0.270037D-01
                  0.982389D+02           0.103673D+00
                  0.317799D+02           0.289575D+00
                  0.112240D+02           0.500000D+00
                  0.406611D+01           0.364621D+00
            S   2   1.00
                  0.747898D+01          -0.975681D-01
                  0.805040D+00           0.500000D+00
            S   1   1.00
                  0.324626D+00           1.0000000
            S   1   1.00
                  0.128132D+00           1.0000000
            P   4   1.00
                  0.482704D+02           0.829547D-02
                  0.110815D+02           0.596223D-01
                  0.326643D+01           0.227889D+00
                  0.111680D+01           0.500000D+00
            P   1   1.00
                  0.382049D+00           1.0000000
            P   1   1.00
                  0.121222D+00           1.0000000
            D   1   1.00
                  0.180000D+01           1.0000000
            D   1   1.00
                  0.550000D+00           1.0000000
            F   1   1.00
                  0.102000D+01           1.0000000
            ****
            -F     0
            S   7   1.00
                  0.174507D+05           0.655972D-03
                  0.261768D+04           0.506944D-02
                  0.595857D+03           0.259899D-01
                  0.168651D+03           0.100353D+00
                  0.546654D+02           0.284095D+00
                  0.193717D+02           0.500000D+00
                  0.706202D+01           0.370721D+00
            S   2   1.00
                  0.131197D+02          -0.101997D+00
                  0.145046D+01           0.500000D+00
            S   1   1.00
                  0.588255D+00           1.0000000
            S   1   1.00
                  0.227960D+00           1.0000000
            P   4   1.00
                  0.779407D+02           0.931135D-02
                  0.180425D+02           0.663964D-01
                  0.542342D+01           0.246386D+00
                  0.184876D+01           0.500000D+00
            P   1   1.00
                  0.617455D+00           1.0000000
            P   1   1.00
                  0.185496D+00           1.0000000
            D   1   1.00
                  0.280000D+01           1.0000000
            D   1   1.00
                  0.800000D+00           1.0000000
            F   1   1.00
                  0.120000D+01           1.0000000
            ****
            -Cl     0
            S   8   1.00
                  0.154272D+06           0.222473D-03
                  0.231232D+05           0.172590D-02
                  0.526257D+04           0.899286D-02
                  0.148995D+04           0.367724D-01
                  0.485417D+03           0.121446D+00
                  0.174634D+03           0.304148D+00
                  0.672393D+02           0.500000D+00
                  0.265780D+02           0.360252D+00
            S   3   1.00
                  0.131826D+03          -0.531330D-01
                  0.400703D+02          -0.233346D+00
                  0.789448D+01           0.500000D+00
            S   2   1.00
                  0.427711D+01           0.500000D+00
                  0.196233D+01           0.370517D+00
            S   1   1.00
                  0.520793D+00           1.0000000
            S   1   1.00
                  0.181633D+00           1.0000000
            P   7   1.00
                  0.124440D+04           0.988206D-03
                  0.295109D+03           0.829674D-02
                  0.947224D+02           0.430906D-01
                  0.352588D+02           0.148443D+00
                  0.144211D+02           0.344744D+00
                  0.610371D+01           0.500000D+00
                  0.258886D+01           0.348278D+00
            P   2   1.00
                  0.109447D+02          -0.196768D-01
                  0.104413D+01           0.500000D+00
            P   1   1.00
                  0.376184D+00           1.0000000
            P   1   1.00
                  0.120613D+00           1.0000000
            D   1   1.00
                  0.231000D+01           1.0000000
            D   1   1.00
                  0.520000D+00           1.0000000
            F   1   1.00
                  0.720000D+00           1.0000000
            ****
            -S     0
            S   8   1.00
                  0.134700D+06           0.226231D-03
                  0.201904D+05           0.175488D-02
                  0.459528D+04           0.914190D-02
                  0.130109D+04           0.373551D-01
                  0.423902D+03           0.123121D+00
                  0.152485D+03           0.306801D+00
                  0.586925D+02           0.500000D+00
                  0.231461D+02           0.354358D+00
            S   3   1.00
                  0.116327D+03          -0.491772D-01
                  0.352841D+02          -0.215962D+00
                  0.677831D+01           0.500000D+00
            S   2   1.00
                  0.360404D+01           0.500000D+00
                  0.164871D+01           0.366278D+00
            S   1   1.00
                  0.421821D+00           1.0000000
            S   1   1.00
                  0.147554D+00           1.0000000
            P   7   1.00
                  0.104863D+04           0.105273D-02
                  0.248717D+03           0.879338D-02
                  0.797887D+02           0.453358D-01
                  0.296023D+02           0.154476D+00
                  0.120627D+02           0.352366D+00
                  0.507628D+01           0.500000D+00
                  0.213375D+01           0.346429D+00
            P   2   1.00
                  0.928958D+01          -0.185932D-01
                  0.837819D+00           0.500000D+00
            P   1   1.00
                  0.301495D+00           1.0000000
            P   1   1.00
                  0.974740D-01           1.0000000
            D   1   1.00
                  0.210000D+01           1.0000000
            D   1   1.00
                  0.480000D+00           1.0000000
            F   1   1.00
                  0.660000D+00           1.0000000
            ****
            -Br     0
            S    10   1.00
                  0.233625D+07           0.532336D-04
                  0.349961D+06           0.413715D-03
                  0.796444D+05           0.217123D-02
                  0.225555D+05           0.910109D-02
                  0.735546D+04           0.323789D-01
                  0.265352D+04           0.988755D-01
                  0.103517D+04           0.248138D+00
                  0.422205D+03           0.474328D+00
                  0.180035D+03           0.500000D+00
                  0.793308D+02           0.187769D+00
            S    4   1.00
                  0.620834D+03          -0.226511D-01
                  0.190829D+03          -0.109497D+00
                  0.312505D+02           0.500000D+00
                  0.135270D+02           0.492812D+00
            S    2   1.00
                  0.216097D+02          -0.165418D+00
                  0.372566D+01           0.500000D+00
            S    1   1.00
                  0.169770D+01           1.0000000
            S    1   1.00
                  0.489332D+00           1.0000000
            S    1   1.00
                  0.175712D+00           1.0000000
            P    8   1.00
                  0.960829D+04           0.478974D-03
                  0.227618D+04           0.417853D-02
                  0.736723D+03           0.229315D-01
                  0.281579D+03           0.892653D-01
                  0.118395D+03           0.255288D+00
                  0.527481D+02           0.479074D+00
                  0.245098D+02           0.500000D+00
                  0.112009D+02           0.200944D+00
            P    4   1.00
                  0.587849D+02          -0.189674D-01
                  0.918962D+01           0.264104D+00
                  0.413895D+01           0.500000D+00
                  0.184225D+01           0.319316D+00
            P    1   1.00
                  0.713862D+00           1.0000000
            P    1   1.00
                  0.274232D+00           1.0000000
            P    1   1.00
                  0.944411D-01           1.0000000
            D    7   1.00
                  0.398470D+03           0.204066D-02
                  0.118967D+03           0.175171D-01
                  0.450197D+02           0.829708D-01
                  0.190320D+02           0.236284D+00
                  0.855686D+01           0.428468D+00
                  0.382950D+01           0.500000D+00
                  0.166291D+01           0.349360D+00
            D    1   1.00
                  0.672953D+00           1.0000000
            D    1   1.00
                  0.252000D+00           1.0000000
            F    1   1.00
                  0.530000D+00           1.0000000
            ****
            -Si     0
            S    8   1.00
                  0.996133D+05           0.235546D-03
                  0.149311D+05           0.182707D-02
                  0.339820D+04           0.951425D-02
                  0.962140D+03           0.388172D-01
                  0.313430D+03           0.127328D+00
                  0.112683D+03           0.313522D+00
                  0.433372D+02           0.500000D+00
                  0.170029D+02           0.340347D+00
            S    3   1.00
                  0.884208D+02          -0.404451D-01
                  0.266756D+02          -0.178059D+00
                  0.479640D+01           0.500000D+00
            S    2   1.00
                  0.239385D+01           0.500000D+00
                  0.108333D+01           0.338016D+00
            S    1   1.00
                  0.252420D+00           1.0000000
            S    1   1.00
                  0.891210D-01           1.0000000
            P    7   1.00
                  0.709901D+03           0.123028D-02
                  0.168426D+03           0.101366D-01
                  0.539946D+02           0.511840D-01
                  0.198646D+02           0.169967D+00
                  0.801369D+01           0.370717D+00
                  0.331870D+01           0.500000D+00
                  0.136112D+01           0.344128D+00
            P    2   1.00
                  0.622158D+01          -0.166609D-01
                  0.503049D+00           0.500000D+00
            P    1   1.00
                  0.179848D+00           1.0000000
            P    1   1.00
                  0.591912D-01           1.0000000
            D    1   1.00
                  0.168000D+01           1.0000000
            D    1   1.00
                  0.380000D+00           1.0000000
            F    1   1.00
                  0.540000D+00           1.0000000
            ****
            -P     0
            S    8   1.00
                  0.116416D+06           0.230715D-03
                  0.174500D+05           0.178960D-02
                  0.397149D+04           0.932116D-02
                  0.112447D+04           0.380591D-01
                  0.366347D+03           0.125148D+00
                  0.131757D+03           0.310022D+00
                  0.506988D+02           0.500000D+00
                  0.199436D+02           0.347528D+00
            S    3   1.00
                  0.101878D+03          -0.446755D-01
                  0.308249D+02          -0.196376D+00
                  0.573688D+01           0.500000D+00
            S    2   1.00
                  0.296868D+01           0.500000D+00
                  0.135315D+01           0.355098D+00
            S    1   1.00
                  0.332196D+00           1.0000000
            S    1   1.00
                  0.116229D+00           1.0000000
            P    7   1.00
                  0.873928D+03           0.112375D-02
                  0.207298D+03           0.933330D-02
                  0.664628D+02           0.477213D-01
                  0.245665D+02           0.160733D+00
                  0.996820D+01           0.359760D+00
                  0.416536D+01           0.500000D+00
                  0.173022D+01           0.346593D+00
            P    2   1.00
                  0.772530D+01          -0.175718D-01
                  0.657252D+00           0.500000D+00
            P    1   1.00
                  0.239903D+00           1.0000000
            P    1   1.00
                  0.800988D-01           1.0000000
            D    1   1.00
                  0.189000D+01           1.0000000
            D    1   1.00
                  0.430000D+00           1.0000000
            F    1   1.00
                  0.600000D+00           1.0000000
            ****
            
 Initial command:
 /usr/local/apps/g16_b01_avx/g16/l1.exe "/wrk/irikura/Gau-6040.inp" -scrdir="/wrk/irikura/"
 Entering Link 1 = /usr/local/apps/g16_b01_avx/g16/l1.exe PID=      6042.
  
 Copyright (c) 1988-2017, Gaussian, Inc.  All Rights Reserved.
  
 This is part of the Gaussian(R) 16 program.  It is based on
 the Gaussian(R) 09 system (copyright 2009, Gaussian, Inc.),
 the Gaussian(R) 03 system (copyright 2003, Gaussian, Inc.),
 the Gaussian(R) 98 system (copyright 1998, Gaussian, Inc.),
 the Gaussian(R) 94 system (copyright 1995, Gaussian, Inc.),
 the Gaussian 92(TM) system (copyright 1992, Gaussian, Inc.),
 the Gaussian 90(TM) system (copyright 1990, Gaussian, Inc.),
 the Gaussian 88(TM) system (copyright 1988, Gaussian, Inc.),
 the Gaussian 86(TM) system (copyright 1986, Carnegie Mellon
 University), and the Gaussian 82(TM) system (copyright 1983,
 Carnegie Mellon University). Gaussian is a federally registered
 trademark of Gaussian, Inc.
  
 This software contains proprietary and confidential information,
 including trade secrets, belonging to Gaussian, Inc.
  
 This software is provided under written license and may be
 used, copied, transmitted, or stored only in accord with that
 written license.
  
 The following legend is applicable only to US Government
 contracts under FAR:
  
                    RESTRICTED RIGHTS LEGEND
  
 Use, reproduction and disclosure by the US Government is
 subject to restrictions as set forth in subparagraphs (a)
 and (c) of the Commercial Computer Software - Restricted
 Rights clause in FAR 52.227-19.
  
 Gaussian, Inc.
 340 Quinnipiac St., Bldg. 40, Wallingford CT 06492
  
  
 ---------------------------------------------------------------
 Warning -- This program may not be used in any manner that
 competes with the business of Gaussian, Inc. or will provide
 assistance to any competitor of Gaussian, Inc.  The licensee
 of this program is prohibited from giving any competitor of
 Gaussian, Inc. access to this program.  By using this program,
 the user acknowledges that Gaussian, Inc. is engaged in the
 business of creating and licensing software in the field of
 computational chemistry and represents and warrants to the
 licensee that it is not a competitor of Gaussian, Inc. and that
 it will not use this program in any manner prohibited above.
 ---------------------------------------------------------------
  

 Cite this work as:
 Gaussian 16, Revision B.01,
 M. J. Frisch, G. W. Trucks, H. B. Schlegel, G. E. Scuseria, 
 M. A. Robb, J. R. Cheeseman, G. Scalmani, V. Barone, 
 G. A. Petersson, H. Nakatsuji, X. Li, M. Caricato, A. V. Marenich, 
 J. Bloino, B. G. Janesko, R. Gomperts, B. Mennucci, H. P. Hratchian, 
 J. V. Ortiz, A. F. Izmaylov, J. L. Sonnenberg, D. Williams-Young, 
 F. Ding, F. Lipparini, F. Egidi, J. Goings, B. Peng, A. Petrone, 
 T. Henderson, D. Ranasinghe, V. G. Zakrzewski, J. Gao, N. Rega, 
 G. Zheng, W. Liang, M. Hada, M. Ehara, K. Toyota, R. Fukuda, 
 J. Hasegawa, M. Ishida, T. Nakajima, Y. Honda, O. Kitao, H. Nakai, 
 T. Vreven, K. Throssell, J. A. Montgomery, Jr., J. E. Peralta, 
 F. Ogliaro, M. J. Bearpark, J. J. Heyd, E. N. Brothers, K. N. Kudin, 
 V. N. Staroverov, T. A. Keith, R. Kobayashi, J. Normand, 
 K. Raghavachari, A. P. Rendell, J. C. Burant, S. S. Iyengar, 
 J. Tomasi, M. Cossi, J. M. Millam, M. Klene, C. Adamo, R. Cammi, 
 J. W. Ochterski, R. L. Martin, K. Morokuma, O. Farkas, 
 J. B. Foresman, and D. J. Fox, Gaussian, Inc., Wallingford CT, 2016.
 
 ******************************************
 Gaussian 16:  ES64L-G16RevB.01 20-Dec-2017
                15-Jun-2022 
 ******************************************
 %mem=500mw
 %nprocs=4
 Will use up to    4 processors via shared memory.
 --------------------
 # b3lyp/gen opt freq
 --------------------
 1/18=20,19=15,26=3,38=1/1,3;
 2/9=110,12=2,17=6,18=5,40=1/2;
 3/5=7,11=2,25=1,30=1,71=1,74=-5/1,2,3;
 4//1;
 5/5=2,38=5/2;
 6/7=2,8=2,9=2,10=2,28=1/1;
 7//1,2,3,16;
 1/18=20,19=15,26=3/3(2);
 2/9=110/2;
 99//99;
 2/9=110/2;
 3/5=7,6=1,11=2,25=1,30=1,71=1,74=-5,82=7/1,2,3;
 4/5=5,16=3,69=1/1;
 5/5=2,38=5/2;
 7//1,2,3,16;
 1/18=20,19=15,26=3/3(-5);
 2/9=110/2;
 6/7=2,8=2,9=2,10=2,19=2,28=1/1;
 99/9=1/99;
 ---------------------
 formyl, B3LYP/pcseg-2
 ---------------------
 Symbolic Z-matrix:
 Charge =  0 Multiplicity = 2
 C
 H                    1    r
 O                    1    ro       2    a
       Variables:
  r                     1.                       
  ro                    1.3                      
  a                   115.                       
 

 GradGradGradGradGradGradGradGradGradGradGradGradGradGradGradGradGradGrad
 Berny optimization.
 Initialization pass.
                           ----------------------------
                           !    Initial Parameters    !
                           ! (Angstroms and Degrees)  !
 --------------------------                            --------------------------
 ! Name  Definition              Value          Derivative Info.                !
 --------------------------------------------------------------------------------
 ! R1    R(1,2)                  1.0            estimate D2E/DX2                !
 ! R2    R(1,3)                  1.3            estimate D2E/DX2                !
 ! A1    A(2,1,3)              115.0            estimate D2E/DX2                !
 --------------------------------------------------------------------------------
 Trust Radius=3.00D-01 FncErr=1.00D-07 GrdErr=1.00D-06 EigMax=2.50D+02 EigMin=1.00D-04
 Number of steps in this run=     20 maximum allowed number of steps=    100.
 GradGradGradGradGradGradGradGradGradGradGradGradGradGradGradGradGradGrad

                          Input orientation:                          
 ---------------------------------------------------------------------
 Center     Atomic      Atomic             Coordinates (Angstroms)
 Number     Number       Type             X           Y           Z
 ---------------------------------------------------------------------
      1          6           0        0.000000    0.000000    0.000000
      2          1           0        0.000000    0.000000    1.000000
      3          8           0        1.178200    0.000000   -0.549404
 ---------------------------------------------------------------------
                    Distance matrix (angstroms):
                    1          2          3
     1  C    0.000000
     2  H    1.000000   0.000000
     3  O    1.300000   1.946486   0.000000
 Stoichiometry    CHO(2)
 Framework group  CS[SG(CHO)]
 Deg. of freedom     3
 Full point group                 CS      NOp   2
 Largest Abelian subgroup         CS      NOp   2
 Largest concise Abelian subgroup C1      NOp   1
                         Standard orientation:                         
 ---------------------------------------------------------------------
 Center     Atomic      Atomic             Coordinates (Angstroms)
 Number     Number       Type             X           Y           Z
 ---------------------------------------------------------------------
      1          6           0        0.060421    0.665159    0.000000
      2          1           0       -0.845887    1.087777    0.000000
      3          8           0        0.060421   -0.634841    0.000000
 ---------------------------------------------------------------------
 Rotational constants (GHZ):         709.3108332          38.8911144          36.8695762
 General basis read from cards:  (5D, 7F)
 There are    59 symmetry adapted cartesian basis functions of A'  symmetry.
 There are    26 symmetry adapted cartesian basis functions of A"  symmetry.
 There are    50 symmetry adapted basis functions of A'  symmetry.
 There are    24 symmetry adapted basis functions of A"  symmetry.
    74 basis functions,   120 primitive gaussians,    85 cartesian basis functions
     8 alpha electrons        7 beta electrons
       nuclear repulsion energy        24.8888169227 Hartrees.
 NAtoms=    3 NActive=    3 NUniq=    3 SFac= 1.00D+00 NAtFMM=   60 NAOKFM=F Big=F
 Integral buffers will be    131072 words long.
 Raffenetti 2 integral format.
 Two-electron integral symmetry is turned on.
 One-electron integrals computed using PRISM.
 NBasis=    74 RedAO= T EigKep=  2.43D-03  NBF=    50    24
 NBsUse=    74 1.00D-06 EigRej= -1.00D+00 NBFU=    50    24
 ExpMin= 7.42D-02 ExpMax= 1.36D+04 ExpMxC= 4.64D+02 IAcc=3 IRadAn=         5 AccDes= 0.00D+00
 Harris functional with IExCor=  402 and IRadAn=       5 diagonalized for initial guess.
 HarFok:  IExCor=  402 AccDes= 0.00D+00 IRadAn=         5 IDoV= 1 UseB2=F ITyADJ=14
 ICtDFT=  3500011 ScaDFX=  1.000000  1.000000  1.000000  1.000000
 FoFCou: FMM=F IPFlag=           0 FMFlag=      100000 FMFlg1=           0
         NFxFlg=           0 DoJE=T BraDBF=F KetDBF=T FulRan=T
         wScrn=  0.000000 ICntrl=       500 IOpCl=  0 I1Cent=   200000004 NGrid=           0
         NMat0=    1 NMatS0=      1 NMatT0=    0 NMatD0=    1 NMtDS0=    0 NMtDT0=    0
 Petite list used in FoFCou.
 Initial guess orbital symmetries:
 Alpha Orbitals:
       Occupied  (A') (A') (A') (A') (A') (A") (A') (A')
       Virtual   (A") (A') (A') (A') (A") (A') (A') (A') (A') (A")
                 (A') (A') (A") (A') (A') (A") (A') (A') (A") (A")
                 (A') (A') (A') (A") (A') (A') (A") (A') (A') (A")
                 (A') (A') (A') (A") (A') (A") (A') (A") (A') (A')
                 (A') (A") (A') (A') (A") (A") (A') (A") (A') (A')
                 (A") (A') (A") (A') (A') (A") (A') (A") (A') (A')
                 (A") (A') (A') (A") (A') (A')
 Beta  Orbitals:
       Occupied  (A') (A') (A') (A') (A') (A") (A')
       Virtual   (A') (A") (A') (A') (A') (A") (A') (A') (A') (A')
                 (A") (A') (A') (A") (A') (A') (A") (A') (A') (A")
                 (A") (A') (A') (A') (A") (A') (A') (A") (A') (A')
                 (A") (A') (A') (A') (A") (A') (A") (A') (A") (A')
                 (A') (A') (A") (A') (A') (A") (A") (A') (A") (A')
                 (A') (A") (A') (A") (A') (A') (A") (A') (A") (A')
                 (A') (A") (A') (A') (A") (A') (A')
 The electronic state of the initial guess is 2-A'.
 Initial guess <Sx>= 0.0000 <Sy>= 0.0000 <Sz>= 0.5000 <S**2>= 0.7500 S= 0.5000
 Keep R1 and R2 ints in memory in symmetry-blocked form, NReq=7570190.
 Requested convergence on RMS density matrix=1.00D-08 within 128 cycles.
 Requested convergence on MAX density matrix=1.00D-06.
 Requested convergence on             energy=1.00D-06.
 No special actions if energy rises.
 Integral accuracy reduced to 1.0D-05 until final iterations.
 Initial convergence to 1.0D-05 achieved.  Increase integral accuracy.
 SCF Done:  E(UB3LYP) =  -113.872980530     A.U. after   15 cycles
            NFock= 15  Conv=0.37D-08     -V/T= 2.0048
 <Sx>= 0.0000 <Sy>= 0.0000 <Sz>= 0.5000 <S**2>= 0.7538 S= 0.5019
 <L.S>=  0.00000000000    
 Annihilation of the first spin contaminant:
 S**2 before annihilation     0.7538,   after     0.7500

 **********************************************************************

            Population analysis using the SCF Density.

 **********************************************************************

 Orbital symmetries:
 Alpha Orbitals:
       Occupied  (A') (A') (A') (A') (A') (A') (A") (A')
       Virtual   (A") (A') (A') (A') (A") (A') (A') (A') (A') (A")
                 (A') (A') (A") (A') (A') (A") (A') (A') (A") (A")
                 (A') (A') (A') (A") (A') (A') (A") (A') (A') (A")
                 (A') (A') (A') (A") (A') (A") (A') (A") (A') (A')
                 (A') (A") (A') (A') (A") (A") (A') (A") (A') (A")
                 (A') (A') (A") (A') (A') (A") (A') (A") (A') (A')
                 (A") (A') (A') (A") (A') (A')
 Beta  Orbitals:
       Occupied  (A') (A') (A') (A') (A') (A") (A')
       Virtual   (A') (A") (A') (A') (A") (A') (A') (A') (A') (A')
                 (A") (A') (A') (A") (A') (A') (A") (A') (A') (A")
                 (A") (A') (A') (A') (A") (A') (A') (A") (A') (A')
                 (A") (A') (A') (A') (A") (A') (A") (A') (A") (A')
                 (A') (A') (A") (A') (A') (A") (A") (A') (A") (A')
                 (A") (A') (A') (A") (A') (A') (A") (A') (A") (A')
                 (A') (A") (A') (A') (A") (A') (A')
 The electronic state is 2-A'.
 Alpha  occ. eigenvalues --  -19.20540 -10.30009  -1.06330  -0.66744  -0.49881
 Alpha  occ. eigenvalues --   -0.42669  -0.41210  -0.26587
 Alpha virt. eigenvalues --   -0.09730   0.03058   0.08929   0.15654   0.16635
 Alpha virt. eigenvalues --    0.24274   0.32076   0.33800   0.36827   0.39789
 Alpha virt. eigenvalues --    0.40146   0.66850   0.69868   0.78625   0.94897
 Alpha virt. eigenvalues --    0.97569   1.04347   1.09350   1.19179   1.23034
 Alpha virt. eigenvalues --    1.28556   1.35268   1.49007   1.58569   1.73081
 Alpha virt. eigenvalues --    1.86091   1.89560   1.94402   2.04999   2.31330
 Alpha virt. eigenvalues --    2.42103   2.44264   2.80574   3.10551   3.15163
 Alpha virt. eigenvalues --    3.22613   3.44168   3.45847   3.53255   3.69979
 Alpha virt. eigenvalues --    3.84291   3.88836   3.89468   3.93078   3.94875
 Alpha virt. eigenvalues --    4.03623   4.11822   4.16792   4.31756   4.38030
 Alpha virt. eigenvalues --    4.38347   4.57164   4.64634   4.71642   5.10558
 Alpha virt. eigenvalues --    5.14180   5.48855   5.63802   5.65530   5.94087
 Alpha virt. eigenvalues --    6.00487   6.04273   6.19043   6.41811   6.54410
 Alpha virt. eigenvalues --    6.76279
  Beta  occ. eigenvalues --  -19.19432 -10.28946  -1.04205  -0.64046  -0.47414
  Beta  occ. eigenvalues --   -0.40324  -0.36749
  Beta virt. eigenvalues --   -0.12130  -0.08111   0.03386   0.09345   0.17049
  Beta virt. eigenvalues --    0.17426   0.25643   0.32403   0.35093   0.38213
  Beta virt. eigenvalues --    0.40015   0.41932   0.67321   0.71636   0.81090
  Beta virt. eigenvalues --    0.96911   0.99396   1.06623   1.10632   1.20211
  Beta virt. eigenvalues --    1.24140   1.32216   1.37807   1.50971   1.60735
  Beta virt. eigenvalues --    1.74705   1.87006   1.90126   1.97126   2.06388
  Beta virt. eigenvalues --    2.32029   2.44728   2.47862   2.81805   3.13639
  Beta virt. eigenvalues --    3.18190   3.24072   3.46228   3.46773   3.55118
  Beta virt. eigenvalues --    3.71664   3.87800   3.91262   3.92002   3.95161
  Beta virt. eigenvalues --    3.96360   4.07257   4.13978   4.19209   4.33730
  Beta virt. eigenvalues --    4.40669   4.40926   4.60613   4.66478   4.73561
  Beta virt. eigenvalues --    5.12620   5.15583   5.51397   5.65425   5.67943
  Beta virt. eigenvalues --    5.97263   6.04132   6.07374   6.21757   6.42359
  Beta virt. eigenvalues --    6.57499   6.77716
          Condensed to atoms (all electrons):
               1          2          3
     1  C    5.035832   0.311858   0.420035
     2  H    0.311858   0.653404  -0.034748
     3  O    0.420035  -0.034748   7.916474
          Atomic-Atomic Spin Densities.
               1          2          3
     1  C    0.841008  -0.104135  -0.149041
     2  H   -0.104135   0.204130  -0.014394
     3  O   -0.149041  -0.014394   0.490001
 Mulliken charges and spin densities:
               1          2
     1  C    0.232275   0.587833
     2  H    0.069486   0.085601
     3  O   -0.301761   0.326566
 Sum of Mulliken charges =   0.00000   1.00000
 Mulliken charges and spin densities with hydrogens summed into heavy atoms:
               1          2
     1  C    0.301761   0.673434
     3  O   -0.301761   0.326566
 Electronic spatial extent (au):  <R**2>=             53.4984
 Charge=              0.0000 electrons
 Dipole moment (field-independent basis, Debye):
    X=             -1.1683    Y=              1.6560    Z=              0.0000  Tot=              2.0266
 Quadrupole moment (field-independent basis, Debye-Ang):
   XX=            -11.4183   YY=            -11.7847   ZZ=            -11.1513
   XY=             -1.1908   XZ=              0.0000   YZ=              0.0000
 Traceless Quadrupole moment (field-independent basis, Debye-Ang):
   XX=              0.0331   YY=             -0.3333   ZZ=              0.3001
   XY=             -1.1908   XZ=              0.0000   YZ=              0.0000
 Octapole moment (field-independent basis, Debye-Ang**2):
  XXX=             -2.0085  YYY=             -2.2893  ZZZ=              0.0000  XYY=             -1.9370
  XXY=             -0.4937  XXZ=              0.0000  XZZ=             -0.4278  YZZ=             -0.6299
  YYZ=              0.0000  XYZ=              0.0000
 Hexadecapole moment (field-independent basis, Debye-Ang**3):
 XXXX=            -14.5342 YYYY=            -44.5233 ZZZZ=            -10.4997 XXXY=              0.0128
 XXXZ=              0.0000 YYYX=             -0.6102 YYYZ=              0.0000 ZZZX=              0.0000
 ZZZY=              0.0000 XXYY=             -9.6564 XXZZ=             -4.3018 YYZZ=             -8.9349
 XXYZ=              0.0000 YYXZ=              0.0000 ZZXY=              0.2794
 N-N= 2.488881692273D+01 E-N=-3.173224254363D+02  KE= 1.133338161917D+02
 Symmetry A'   KE= 1.094376816416D+02
 Symmetry A"   KE= 3.896134550115D+00
 Symmetry A'   SP= 1.000000000000D+00
 Symmetry A"   SP=-6.068034131605D-15
                          Isotropic Fermi Contact Couplings
        Atom                 a.u.       MegaHertz       Gauss      10(-4) cm-1
     1  C(13)              0.37123     417.33378     148.91507     139.20756
     2  H(1)               0.06551     292.81872     104.48500      97.67381
     3  O(17)              0.10417     -63.14889     -22.53309     -21.06420
 --------------------------------------------------------
       Center         ----  Spin Dipole Couplings  ----
                      3XX-RR        3YY-RR        3ZZ-RR
 --------------------------------------------------------
     1   Atom        0.506486     -0.151939     -0.354547
     2   Atom        0.034789      0.008667     -0.043456
     3   Atom        1.752812     -0.776458     -0.976354
 --------------------------------------------------------
                        XY            XZ            YZ
 --------------------------------------------------------
     1   Atom        0.436333      0.000000      0.000000
     2   Atom       -0.050138      0.000000      0.000000
     3   Atom        0.581673      0.000000      0.000000
 --------------------------------------------------------


 ---------------------------------------------------------------------------------
              Anisotropic Spin Dipole Couplings in Principal Axis System
 ---------------------------------------------------------------------------------

       Atom             a.u.   MegaHertz   Gauss  10(-4) cm-1        Axes

              Baa    -0.3693   -49.560   -17.684   -16.531 -0.4459  0.8951 -0.0000
     1 C(13)  Bbb    -0.3545   -47.577   -16.977   -15.870  0.0000  0.0000  1.0000
              Bcc     0.7239    97.136    34.661    32.401  0.8951  0.4459  0.0000
 
              Baa    -0.0435   -23.186    -8.273    -7.734  0.0000  0.0000  1.0000
     2 H(1)   Bbb    -0.0301   -16.051    -5.727    -5.354  0.6115  0.7912  0.0000
              Bcc     0.0735    39.237    14.001    13.088  0.7912 -0.6115 -0.0000
 
              Baa    -0.9764    70.648    25.209    23.566  0.0000  0.0000  1.0000
     3 O(17)  Bbb    -0.9038    65.400    23.336    21.815 -0.2139  0.9769 -0.0000
              Bcc     1.8802  -136.048   -48.545   -45.381  0.9769  0.2139  0.0000
 

 ---------------------------------------------------------------------------------

 Calling FoFJK, ICntrl=      2127 FMM=F ISym2X=1 I1Cent= 0 IOpClX= 1 NMat=1 NMatS=1 NMatT=0.
 ***** Axes restored to original set *****
 -------------------------------------------------------------------
 Center     Atomic                   Forces (Hartrees/Bohr)
 Number     Number              X              Y              Z
 -------------------------------------------------------------------
      1        6           0.145650167   -0.000000000   -0.140376235
      2        1          -0.010394205   -0.000000000    0.086127806
      3        8          -0.135255962   -0.000000000    0.054248429
 -------------------------------------------------------------------
 Cartesian Forces:  Max     0.145650167 RMS     0.087991518

 GradGradGradGradGradGradGradGradGradGradGradGradGradGradGradGradGradGrad
 Berny optimization.
 FormGI is forming the generalized inverse of G from B-inverse, IUseBI=4.
 Internal  Forces:  Max     0.145509850 RMS     0.098280094
 Search for a local minimum.
 Step number   1 out of a maximum of   20
 All quantities printed in internal units (Hartrees-Bohrs-Radians)
 Mixed Optimization -- RFO/linear search
 Second derivative matrix not updated -- first step.
 The second derivative matrix:
                          R1        R2        A1
           R1           0.47688
           R2           0.00000   0.67193
           A1           0.00000   0.00000   0.16000
 ITU=  0
     Eigenvalues ---    0.16000   0.47688   0.67193
 RFO step:  Lambda=-4.55836966D-02 EMin= 1.60000000D-01
 Linear search not attempted -- first point.
 Iteration  1 RMS(Cart)=  0.10728502 RMS(Int)=  0.00583274
 Iteration  2 RMS(Cart)=  0.00438255 RMS(Int)=  0.00001519
 Iteration  3 RMS(Cart)=  0.00001791 RMS(Int)=  0.00000000
 Iteration  4 RMS(Cart)=  0.00000000 RMS(Int)=  0.00000000
 ClnCor:  largest displacement from symmetrization is 2.42D-16 for atom     2.
 Variable       Old X    -DE/DX   Delta X   Delta X   Delta X     New X
                                 (Linear)    (Quad)   (Total)
    R1        1.88973   0.08613   0.00000   0.16485   0.16485   2.05457
    R2        2.45664  -0.14551   0.00000  -0.20280  -0.20280   2.25385
    A1        2.00713   0.01964   0.00000   0.09555   0.09555   2.10267
         Item               Value     Threshold  Converged?
 Maximum Force            0.145510     0.000450     NO 
 RMS     Force            0.098280     0.000300     NO 
 Maximum Displacement     0.122637     0.001800     NO 
 RMS     Displacement     0.108536     0.001200     NO 
 Predicted change in Energy=-2.455663D-02
 GradGradGradGradGradGradGradGradGradGradGradGradGradGradGradGradGradGrad

                          Input orientation:                          
 ---------------------------------------------------------------------
 Center     Atomic      Atomic             Coordinates (Angstroms)
 Number     Number       Type             X           Y           Z
 ---------------------------------------------------------------------
      1          6           0        0.064897    0.000000   -0.038953
      2          1           0       -0.026930    0.000000    1.044396
      3          8           0        1.140233    0.000000   -0.554847
 ---------------------------------------------------------------------
                    Distance matrix (angstroms):
                    1          2          3
     1  C    0.000000
     2  H    1.087234   0.000000
     3  O    1.192684   1.979861   0.000000
 Stoichiometry    CHO(2)
 Framework group  CS[SG(CHO)]
 Deg. of freedom     3
 Full point group                 CS      NOp   2
 Largest Abelian subgroup         CS      NOp   2
 Largest concise Abelian subgroup C1      NOp   1
                         Standard orientation:                         
 ---------------------------------------------------------------------
 Center     Atomic      Atomic             Coordinates (Angstroms)
 Number     Number       Type             X           Y           Z
 ---------------------------------------------------------------------
      1          6           0        0.062469    0.599339    0.000000
      2          1           0       -0.874570    1.150732    0.000000
      3          8           0        0.062469   -0.593346    0.000000
 ---------------------------------------------------------------------
 Rotational constants (GHZ):         688.6601751          44.5197946          41.8164854
 Basis read from rwf:  (5D, 7F)
 There are    59 symmetry adapted cartesian basis functions of A'  symmetry.
 There are    26 symmetry adapted cartesian basis functions of A"  symmetry.
 There are    50 symmetry adapted basis functions of A'  symmetry.
 There are    24 symmetry adapted basis functions of A"  symmetry.
    74 basis functions,   120 primitive gaussians,    85 cartesian basis functions
     8 alpha electrons        7 beta electrons
       nuclear repulsion energy        26.3554727706 Hartrees.
 NAtoms=    3 NActive=    3 NUniq=    3 SFac= 1.00D+00 NAtFMM=   60 NAOKFM=F Big=F
 Integral buffers will be    131072 words long.
 Raffenetti 2 integral format.
 Two-electron integral symmetry is turned on.
 One-electron integrals computed using PRISM.
 NBasis=    74 RedAO= T EigKep=  2.13D-03  NBF=    50    24
 NBsUse=    74 1.00D-06 EigRej= -1.00D+00 NBFU=    50    24
 Initial guess from the checkpoint file:  "/wrk/irikura/Gau-6042.chk"
 B after Tr=    -0.000000    0.000000    0.000000
         Rot=    0.999999   -0.000000    0.000000    0.001586 Ang=   0.18 deg.
 Initial guess orbital symmetries:
 Alpha Orbitals:
       Occupied  (A') (A') (A') (A') (A') (A') (A") (A')
       Virtual   (A") (A') (A') (A') (A") (A') (A') (A') (A') (A")
                 (A') (A') (A") (A') (A') (A") (A') (A') (A") (A")
                 (A') (A') (A') (A") (A') (A') (A") (A') (A') (A")
                 (A') (A') (A') (A") (A') (A") (A') (A") (A') (A')
                 (A') (A") (A') (A') (A") (A") (A') (A") (A') (A")
                 (A') (A') (A") (A') (A') (A") (A') (A") (A') (A')
                 (A") (A') (A') (A") (A') (A')
 Beta  Orbitals:
       Occupied  (A') (A') (A') (A') (A') (A") (A')
       Virtual   (A') (A") (A') (A') (A") (A') (A') (A') (A') (A')
                 (A") (A') (A') (A") (A') (A') (A") (A') (A') (A")
                 (A") (A') (A') (A') (A") (A') (A') (A") (A') (A')
                 (A") (A') (A') (A') (A") (A') (A") (A') (A") (A')
                 (A') (A') (A") (A') (A') (A") (A") (A') (A") (A')
                 (A") (A') (A') (A") (A') (A') (A") (A') (A") (A')
                 (A') (A") (A') (A') (A") (A') (A')
 Initial guess <Sx>= 0.0000 <Sy>= 0.0000 <Sz>= 0.5000 <S**2>= 0.7537 S= 0.5019
 ExpMin= 7.42D-02 ExpMax= 1.36D+04 ExpMxC= 4.64D+02 IAcc=3 IRadAn=         5 AccDes= 0.00D+00
 Harris functional with IExCor=  402 and IRadAn=       5 diagonalized for initial guess.
 HarFok:  IExCor=  402 AccDes= 0.00D+00 IRadAn=         5 IDoV= 1 UseB2=F ITyADJ=14
 ICtDFT=  3500011 ScaDFX=  1.000000  1.000000  1.000000  1.000000
 FoFCou: FMM=F IPFlag=           0 FMFlag=      100000 FMFlg1=           0
         NFxFlg=           0 DoJE=T BraDBF=F KetDBF=T FulRan=T
         wScrn=  0.000000 ICntrl=       500 IOpCl=  0 I1Cent=   200000004 NGrid=           0
         NMat0=    1 NMatS0=      1 NMatT0=    0 NMatD0=    1 NMtDS0=    0 NMtDT0=    0
 Petite list used in FoFCou.
 Keep R1 and R2 ints in memory in symmetry-blocked form, NReq=7570190.
 Requested convergence on RMS density matrix=1.00D-08 within 128 cycles.
 Requested convergence on MAX density matrix=1.00D-06.
 Requested convergence on             energy=1.00D-06.
 No special actions if energy rises.
 Integral accuracy reduced to 1.0D-05 until final iterations.
 Initial convergence to 1.0D-05 achieved.  Increase integral accuracy.
 SCF Done:  E(UB3LYP) =  -113.901988012     A.U. after   14 cycles
            NFock= 14  Conv=0.64D-08     -V/T= 2.0032
 <Sx>= 0.0000 <Sy>= 0.0000 <Sz>= 0.5000 <S**2>= 0.7534 S= 0.5017
 <L.S>=  0.00000000000    
 Annihilation of the first spin contaminant:
 S**2 before annihilation     0.7534,   after     0.7500
 Calling FoFJK, ICntrl=      2127 FMM=F ISym2X=1 I1Cent= 0 IOpClX= 1 NMat=1 NMatS=1 NMatT=0.
 ***** Axes restored to original set *****
 -------------------------------------------------------------------
 Center     Atomic                   Forces (Hartrees/Bohr)
 Number     Number              X              Y              Z
 -------------------------------------------------------------------
      1        6           0.037347668    0.000000000   -0.027069795
      2        1          -0.007223321    0.000000000    0.018329550
      3        8          -0.030124347   -0.000000000    0.008740244
 -------------------------------------------------------------------
 Cartesian Forces:  Max     0.037347668 RMS     0.019719249

 GradGradGradGradGradGradGradGradGradGradGradGradGradGradGradGradGradGrad
 Berny optimization.
 Using GEDIIS/GDIIS optimizer.
 FormGI is forming the generalized inverse of G from B-inverse, IUseBI=4.
 Internal  Forces:  Max     0.030941002 RMS     0.021971992
 Search for a local minimum.
 Step number   2 out of a maximum of   20
 All quantities printed in internal units (Hartrees-Bohrs-Radians)
 Mixed Optimization -- RFO/linear search
 Update second derivatives using D2CorX and points    1    2
 DE= -2.90D-02 DEPred=-2.46D-02 R= 1.18D+00
 TightC=F SS=  1.41D+00  RLast= 2.78D-01 DXNew= 5.0454D-01 8.3479D-01
 Trust test= 1.18D+00 RLast= 2.78D-01 DXMaxT set to 5.05D-01
 The second derivative matrix:
                          R1        R2        A1
           R1           0.45883
           R2           0.03513   0.60448
           A1          -0.01318   0.02330   0.15628
 ITU=  1  0
 Use linear search instead of GDIIS.
     Eigenvalues ---    0.15433   0.45189   0.61337
 RFO step:  Lambda=-3.48209696D-04 EMin= 1.54332121D-01
 Quartic linear search produced a step of  0.24621.
 Iteration  1 RMS(Cart)=  0.04681834 RMS(Int)=  0.00122342
 Iteration  2 RMS(Cart)=  0.00098144 RMS(Int)=  0.00000017
 Iteration  3 RMS(Cart)=  0.00000020 RMS(Int)=  0.00000000
 ClnCor:  largest displacement from symmetrization is 1.89D-15 for atom     2.
 Variable       Old X    -DE/DX   Delta X   Delta X   Delta X     New X
                                 (Linear)    (Quad)   (Total)
    R1        2.05457   0.01887   0.04059  -0.00237   0.03821   2.09279
    R2        2.25385  -0.03094  -0.04993   0.00187  -0.04806   2.20579
    A1        2.10267   0.01161   0.02352   0.04638   0.06990   2.17257
         Item               Value     Threshold  Converged?
 Maximum Force            0.030941     0.000450     NO 
 RMS     Force            0.021972     0.000300     NO 
 Maximum Displacement     0.054347     0.001800     NO 
 RMS     Displacement     0.046604     0.001200     NO 
 Predicted change in Energy=-1.782699D-03
 GradGradGradGradGradGradGradGradGradGradGradGradGradGradGradGradGradGrad

                          Input orientation:                          
 ---------------------------------------------------------------------
 Center     Atomic      Atomic             Coordinates (Angstroms)
 Number     Number       Type             X           Y           Z
 ---------------------------------------------------------------------
      1          6           0        0.093655   -0.000000   -0.038454
      2          1           0       -0.047864    0.000000    1.059922
      3          8           0        1.132409    0.000000   -0.570871
 ---------------------------------------------------------------------
                    Distance matrix (angstroms):
                    1          2          3
     1  C    0.000000
     2  H    1.107456   0.000000
     3  O    1.167251   2.013089   0.000000
 Stoichiometry    CHO(2)
 Framework group  CS[SG(CHO)]
 Deg. of freedom     3
 Full point group                 CS      NOp   2
 Largest Abelian subgroup         CS      NOp   2
 Largest concise Abelian subgroup C1      NOp   1
                         Standard orientation:                         
 ---------------------------------------------------------------------
 Center     Atomic      Atomic             Coordinates (Angstroms)
 Number     Number       Type             X           Y           Z
 ---------------------------------------------------------------------
      1          6           0        0.060861    0.580738    0.000000
      2          1           0       -0.852048    1.207679    0.000000
      3          8           0        0.060861   -0.586513    0.000000
 ---------------------------------------------------------------------
 Rotational constants (GHZ):         740.5932521          45.5366962          42.8989762
 Basis read from rwf:  (5D, 7F)
 There are    59 symmetry adapted cartesian basis functions of A'  symmetry.
 There are    26 symmetry adapted cartesian basis functions of A"  symmetry.
 There are    50 symmetry adapted basis functions of A'  symmetry.
 There are    24 symmetry adapted basis functions of A"  symmetry.
    74 basis functions,   120 primitive gaussians,    85 cartesian basis functions
     8 alpha electrons        7 beta electrons
       nuclear repulsion energy        26.7308915637 Hartrees.
 NAtoms=    3 NActive=    3 NUniq=    3 SFac= 1.00D+00 NAtFMM=   60 NAOKFM=F Big=F
 Integral buffers will be    131072 words long.
 Raffenetti 2 integral format.
 Two-electron integral symmetry is turned on.
 One-electron integrals computed using PRISM.
 NBasis=    74 RedAO= T EigKep=  2.05D-03  NBF=    50    24
 NBsUse=    74 1.00D-06 EigRej= -1.00D+00 NBFU=    50    24
 Initial guess from the checkpoint file:  "/wrk/irikura/Gau-6042.chk"
 B after Tr=     0.000000   -0.000000   -0.000000
         Rot=    0.999983   -0.000000    0.000000    0.005745 Ang=   0.66 deg.
 Initial guess orbital symmetries:
 Alpha Orbitals:
       Occupied  (A') (A') (A') (A') (A') (A') (A") (A')
       Virtual   (A") (A') (A') (A') (A") (A') (A') (A') (A") (A')
                 (A') (A') (A") (A') (A') (A") (A') (A') (A") (A")
                 (A') (A') (A') (A") (A') (A') (A") (A') (A') (A")
                 (A') (A') (A') (A") (A') (A") (A') (A") (A') (A')
                 (A') (A") (A') (A") (A') (A") (A') (A") (A') (A")
                 (A') (A') (A') (A") (A') (A") (A') (A") (A') (A")
                 (A') (A') (A') (A") (A') (A')
 Beta  Orbitals:
       Occupied  (A') (A') (A') (A') (A') (A") (A')
       Virtual   (A') (A") (A') (A') (A") (A') (A') (A') (A') (A")
                 (A') (A') (A') (A") (A') (A') (A") (A') (A') (A")
                 (A") (A') (A') (A') (A") (A') (A') (A") (A') (A')
                 (A") (A') (A') (A') (A") (A') (A") (A') (A") (A')
                 (A') (A') (A") (A') (A") (A') (A") (A') (A") (A')
                 (A") (A') (A') (A') (A") (A') (A") (A') (A") (A')
                 (A") (A') (A') (A') (A") (A') (A')
 Initial guess <Sx>= 0.0000 <Sy>= 0.0000 <Sz>= 0.5000 <S**2>= 0.7533 S= 0.5017
 ExpMin= 7.42D-02 ExpMax= 1.36D+04 ExpMxC= 4.64D+02 IAcc=3 IRadAn=         5 AccDes= 0.00D+00
 Harris functional with IExCor=  402 and IRadAn=       5 diagonalized for initial guess.
 HarFok:  IExCor=  402 AccDes= 0.00D+00 IRadAn=         5 IDoV= 1 UseB2=F ITyADJ=14
 ICtDFT=  3500011 ScaDFX=  1.000000  1.000000  1.000000  1.000000
 FoFCou: FMM=F IPFlag=           0 FMFlag=      100000 FMFlg1=           0
         NFxFlg=           0 DoJE=T BraDBF=F KetDBF=T FulRan=T
         wScrn=  0.000000 ICntrl=       500 IOpCl=  0 I1Cent=   200000004 NGrid=           0
         NMat0=    1 NMatS0=      1 NMatT0=    0 NMatD0=    1 NMtDS0=    0 NMtDT0=    0
 Petite list used in FoFCou.
 Keep R1 and R2 ints in memory in symmetry-blocked form, NReq=7570190.
 Requested convergence on RMS density matrix=1.00D-08 within 128 cycles.
 Requested convergence on MAX density matrix=1.00D-06.
 Requested convergence on             energy=1.00D-06.
 No special actions if energy rises.
 Integral accuracy reduced to 1.0D-05 until final iterations.
 Initial convergence to 1.0D-05 achieved.  Increase integral accuracy.
 SCF Done:  E(UB3LYP) =  -113.903477653     A.U. after   13 cycles
            NFock= 13  Conv=0.61D-08     -V/T= 2.0025
 <Sx>= 0.0000 <Sy>= 0.0000 <Sz>= 0.5000 <S**2>= 0.7533 S= 0.5016
 <L.S>=  0.00000000000    
 Annihilation of the first spin contaminant:
 S**2 before annihilation     0.7533,   after     0.7500
 Calling FoFJK, ICntrl=      2127 FMM=F ISym2X=1 I1Cent= 0 IOpClX= 1 NMat=1 NMatS=1 NMatT=0.
 ***** Axes restored to original set *****
 -------------------------------------------------------------------
 Center     Atomic                   Forces (Hartrees/Bohr)
 Number     Number              X              Y              Z
 -------------------------------------------------------------------
      1        6          -0.007113156   -0.000000000   -0.003126507
      2        1          -0.001504046   -0.000000000    0.008038990
      3        8           0.008617202   -0.000000000   -0.004912483
 -------------------------------------------------------------------
 Cartesian Forces:  Max     0.008617202 RMS     0.005007197

 GradGradGradGradGradGradGradGradGradGradGradGradGradGradGradGradGradGrad
 Berny optimization.
 Using GEDIIS/GDIIS optimizer.
 FormGI is forming the generalized inverse of G from B-inverse, IUseBI=4.
 Internal  Forces:  Max     0.009909372 RMS     0.007434420
 Search for a local minimum.
 Step number   3 out of a maximum of   20
 All quantities printed in internal units (Hartrees-Bohrs-Radians)
 Mixed Optimization -- RFO/linear search
 Update second derivatives using D2CorX and points    1    2    3
 DE= -1.49D-03 DEPred=-1.78D-03 R= 8.36D-01
 TightC=F SS=  1.41D+00  RLast= 9.30D-02 DXNew= 8.4853D-01 2.7912D-01
 Trust test= 8.36D-01 RLast= 9.30D-02 DXMaxT set to 5.05D-01
 The second derivative matrix:
                          R1        R2        A1
           R1           0.40126
           R2           0.05370   0.87112
           A1          -0.02924  -0.01480   0.15795
 ITU=  1  1  0
 Use linear search instead of GDIIS.
     Eigenvalues ---    0.15438   0.39831   0.87763
 RFO step:  Lambda=-2.72493238D-04 EMin= 1.54381729D-01
 Quartic linear search produced a step of -0.02935.
 Iteration  1 RMS(Cart)=  0.01562969 RMS(Int)=  0.00005502
 Iteration  2 RMS(Cart)=  0.00004740 RMS(Int)=  0.00000000
 Iteration  3 RMS(Cart)=  0.00000000 RMS(Int)=  0.00000000
 ClnCor:  largest displacement from symmetrization is 5.99D-16 for atom     2.
 Variable       Old X    -DE/DX   Delta X   Delta X   Delta X     New X
                                 (Linear)    (Quad)   (Total)
    R1        2.09279   0.00817  -0.00112   0.02093   0.01981   2.11260
    R2        2.20579   0.00991   0.00141   0.00890   0.01031   2.21609
    A1        2.17257   0.00097  -0.00205   0.01307   0.01101   2.18359
         Item               Value     Threshold  Converged?
 Maximum Force            0.009909     0.000450     NO 
 RMS     Force            0.007434     0.000300     NO 
 Maximum Displacement     0.016446     0.001800     NO 
 RMS     Displacement     0.015648     0.001200     NO 
 Predicted change in Energy=-1.371086D-04
 GradGradGradGradGradGradGradGradGradGradGradGradGradGradGradGradGradGrad

                          Input orientation:                          
 ---------------------------------------------------------------------
 Center     Atomic      Atomic             Coordinates (Angstroms)
 Number     Number       Type             X           Y           Z
 ---------------------------------------------------------------------
      1          6           0        0.095690   -0.000000   -0.039200
      2          1           0       -0.054352   -0.000000    1.068625
      3          8           0        1.136862   -0.000000   -0.578829
 ---------------------------------------------------------------------
                    Distance matrix (angstroms):
                    1          2          3
     1  C    0.000000
     2  H    1.117939   0.000000
     3  O    1.172706   2.033002   0.000000
 Stoichiometry    CHO(2)
 Framework group  CS[SG(CHO)]
 Deg. of freedom     3
 Full point group                 CS      NOp   2
 Largest Abelian subgroup         CS      NOp   2
 Largest concise Abelian subgroup C1      NOp   1
                         Standard orientation:                         
 ---------------------------------------------------------------------
 Center     Atomic      Atomic             Coordinates (Angstroms)
 Number     Number       Type             X           Y           Z
 ---------------------------------------------------------------------
      1          6           0        0.060968    0.582577   -0.000000
      2          1           0       -0.853556    1.225564   -0.000000
      3          8           0        0.060968   -0.590129    0.000000
 ---------------------------------------------------------------------
 Rotational constants (GHZ):         740.2654032          44.9747233          42.3987906
 Basis read from rwf:  (5D, 7F)
 There are    59 symmetry adapted cartesian basis functions of A'  symmetry.
 There are    26 symmetry adapted cartesian basis functions of A"  symmetry.
 There are    50 symmetry adapted basis functions of A'  symmetry.
 There are    24 symmetry adapted basis functions of A"  symmetry.
    74 basis functions,   120 primitive gaussians,    85 cartesian basis functions
     8 alpha electrons        7 beta electrons
       nuclear repulsion energy        26.5821908539 Hartrees.
 NAtoms=    3 NActive=    3 NUniq=    3 SFac= 1.00D+00 NAtFMM=   60 NAOKFM=F Big=F
 Integral buffers will be    131072 words long.
 Raffenetti 2 integral format.
 Two-electron integral symmetry is turned on.
 One-electron integrals computed using PRISM.
 NBasis=    74 RedAO= T EigKep=  2.09D-03  NBF=    50    24
 NBsUse=    74 1.00D-06 EigRej= -1.00D+00 NBFU=    50    24
 Initial guess from the checkpoint file:  "/wrk/irikura/Gau-6042.chk"
 B after Tr=     0.000000    0.000000    0.000000
         Rot=    0.999999    0.000000    0.000000    0.001018 Ang=   0.12 deg.
 Initial guess orbital symmetries:
 Alpha Orbitals:
       Occupied  (A') (A') (A') (A') (A') (A') (A") (A')
       Virtual   (A") (A') (A') (A') (A") (A') (A') (A') (A") (A')
                 (A') (A') (A") (A') (A') (A") (A') (A') (A") (A")
                 (A') (A') (A') (A") (A') (A') (A') (A") (A') (A")
                 (A') (A') (A') (A") (A') (A") (A') (A") (A') (A')
                 (A") (A') (A') (A") (A') (A") (A') (A') (A") (A")
                 (A') (A') (A') (A") (A') (A") (A') (A') (A") (A")
                 (A') (A') (A') (A") (A') (A')
 Beta  Orbitals:
       Occupied  (A') (A') (A') (A') (A') (A") (A')
       Virtual   (A') (A") (A') (A') (A") (A') (A') (A') (A') (A")
                 (A') (A') (A') (A") (A') (A') (A") (A') (A') (A")
                 (A") (A') (A') (A') (A") (A') (A') (A") (A') (A')
                 (A") (A') (A') (A') (A") (A') (A") (A') (A") (A')
                 (A') (A") (A') (A') (A") (A') (A") (A') (A') (A")
                 (A") (A') (A') (A") (A') (A') (A") (A') (A') (A")
                 (A") (A') (A') (A') (A") (A') (A')
 Initial guess <Sx>= 0.0000 <Sy>= 0.0000 <Sz>= 0.5000 <S**2>= 0.7533 S= 0.5016
 Keep R1 and R2 ints in memory in symmetry-blocked form, NReq=7570190.
 Requested convergence on RMS density matrix=1.00D-08 within 128 cycles.
 Requested convergence on MAX density matrix=1.00D-06.
 Requested convergence on             energy=1.00D-06.
 No special actions if energy rises.
 SCF Done:  E(UB3LYP) =  -113.903616898     A.U. after   11 cycles
            NFock= 11  Conv=0.16D-08     -V/T= 2.0029
 <Sx>= 0.0000 <Sy>= 0.0000 <Sz>= 0.5000 <S**2>= 0.7533 S= 0.5016
 <L.S>=  0.00000000000    
 Annihilation of the first spin contaminant:
 S**2 before annihilation     0.7533,   after     0.7500
 Calling FoFJK, ICntrl=      2127 FMM=F ISym2X=1 I1Cent= 0 IOpClX= 1 NMat=1 NMatS=1 NMatT=0.
 ***** Axes restored to original set *****
 -------------------------------------------------------------------
 Center     Atomic                   Forces (Hartrees/Bohr)
 Number     Number              X              Y              Z
 -------------------------------------------------------------------
      1        6           0.000770771    0.000000000   -0.003674219
      2        1           0.000471684   -0.000000000    0.002210175
      3        8          -0.001242454   -0.000000000    0.001464044
 -------------------------------------------------------------------
 Cartesian Forces:  Max     0.003674219 RMS     0.001594729

 GradGradGradGradGradGradGradGradGradGradGradGradGradGradGradGradGradGrad
 Berny optimization.
 Using GEDIIS/GDIIS optimizer.
 FormGI is forming the generalized inverse of G from B-inverse, IUseBI=4.
 Internal  Forces:  Max     0.002126829 RMS     0.001851554
 Search for a local minimum.
 Step number   4 out of a maximum of   20
 All quantities printed in internal units (Hartrees-Bohrs-Radians)
 Mixed Optimization -- RFO/linear search
 Update second derivatives using D2CorX and points    1    2    3    4
 DE= -1.39D-04 DEPred=-1.37D-04 R= 1.02D+00
 TightC=F SS=  1.41D+00  RLast= 2.49D-02 DXNew= 8.4853D-01 7.4701D-02
 Trust test= 1.02D+00 RLast= 2.49D-02 DXMaxT set to 5.05D-01
 The second derivative matrix:
                          R1        R2        A1
           R1           0.27777
           R2           0.05348   0.98097
           A1          -0.00142   0.04676   0.19361
 ITU=  1  1  1  0
 Use linear search instead of GDIIS.
     Eigenvalues ---    0.19059   0.27402   0.98774
 RFO step:  Lambda=-3.28061681D-05 EMin= 1.90593018D-01
 Quartic linear search produced a step of  0.02308.
 Iteration  1 RMS(Cart)=  0.00500059 RMS(Int)=  0.00001540
 Iteration  2 RMS(Cart)=  0.00001612 RMS(Int)=  0.00000000
 Iteration  3 RMS(Cart)=  0.00000000 RMS(Int)=  0.00000000
 ClnCor:  largest displacement from symmetrization is 2.04D-15 for atom     2.
 Variable       Old X    -DE/DX   Delta X   Delta X   Delta X     New X
                                 (Linear)    (Quad)   (Total)
    R1        2.11260   0.00213   0.00046   0.00754   0.00799   2.12059
    R2        2.21609  -0.00178   0.00024  -0.00211  -0.00187   2.21422
    A1        2.18359  -0.00161   0.00025  -0.00806  -0.00781   2.17578
         Item               Value     Threshold  Converged?
 Maximum Force            0.002127     0.000450     NO 
 RMS     Force            0.001852     0.000300     NO 
 Maximum Displacement     0.006192     0.001800     NO 
 RMS     Displacement     0.005005     0.001200     NO 
 Predicted change in Energy=-1.646150D-05
 GradGradGradGradGradGradGradGradGradGradGradGradGradGradGradGradGradGrad

                          Input orientation:                          
 ---------------------------------------------------------------------
 Center     Atomic      Atomic             Coordinates (Angstroms)
 Number     Number       Type             X           Y           Z
 ---------------------------------------------------------------------
      1          6           0        0.094141    0.000000   -0.042476
      2          1           0       -0.052792   -0.000000    1.070032
      3          8           0        1.136851   -0.000000   -0.576960
 ---------------------------------------------------------------------
                    Distance matrix (angstroms):
                    1          2          3
     1  C    0.000000
     2  H    1.122169   0.000000
     3  O    1.171715   2.031707   0.000000
 Stoichiometry    CHO(2)
 Framework group  CS[SG(CHO)]
 Deg. of freedom     3
 Full point group                 CS      NOp   2
 Largest Abelian subgroup         CS      NOp   2
 Largest concise Abelian subgroup C1      NOp   1
                         Standard orientation:                         
 ---------------------------------------------------------------------
 Center     Atomic      Atomic             Coordinates (Angstroms)
 Number     Number       Type             X           Y           Z
 ---------------------------------------------------------------------
      1          6           0        0.061533    0.582366   -0.000000
      2          1           0       -0.861464    1.220598   -0.000000
      3          8           0        0.061533   -0.589349    0.000000
 ---------------------------------------------------------------------
 Rotational constants (GHZ):         726.1788780          45.0854130          42.4498774
 Basis read from rwf:  (5D, 7F)
 There are    59 symmetry adapted cartesian basis functions of A'  symmetry.
 There are    26 symmetry adapted cartesian basis functions of A"  symmetry.
 There are    50 symmetry adapted basis functions of A'  symmetry.
 There are    24 symmetry adapted basis functions of A"  symmetry.
    74 basis functions,   120 primitive gaussians,    85 cartesian basis functions
     8 alpha electrons        7 beta electrons
       nuclear repulsion energy        26.5911246115 Hartrees.
 NAtoms=    3 NActive=    3 NUniq=    3 SFac= 1.00D+00 NAtFMM=   60 NAOKFM=F Big=F
 Integral buffers will be    131072 words long.
 Raffenetti 2 integral format.
 Two-electron integral symmetry is turned on.
 One-electron integrals computed using PRISM.
 NBasis=    74 RedAO= T EigKep=  2.09D-03  NBF=    50    24
 NBsUse=    74 1.00D-06 EigRej= -1.00D+00 NBFU=    50    24
 Initial guess from the checkpoint file:  "/wrk/irikura/Gau-6042.chk"
 B after Tr=    -0.000000    0.000000   -0.000000
         Rot=    0.999999   -0.000000   -0.000000   -0.001051 Ang=  -0.12 deg.
 Initial guess orbital symmetries:
 Alpha Orbitals:
       Occupied  (A') (A') (A') (A') (A') (A') (A") (A')
       Virtual   (A") (A') (A') (A') (A") (A') (A') (A') (A") (A')
                 (A') (A') (A") (A') (A') (A") (A') (A') (A") (A")
                 (A') (A') (A') (A") (A') (A') (A') (A") (A') (A")
                 (A') (A') (A') (A") (A') (A") (A') (A") (A') (A')
                 (A') (A") (A') (A") (A') (A") (A') (A') (A") (A")
                 (A') (A') (A') (A") (A') (A") (A') (A') (A") (A")
                 (A') (A') (A') (A") (A') (A')
 Beta  Orbitals:
       Occupied  (A') (A') (A') (A') (A') (A") (A')
       Virtual   (A') (A") (A') (A') (A") (A') (A') (A') (A') (A")
                 (A') (A') (A') (A") (A') (A') (A") (A') (A') (A")
                 (A") (A') (A') (A') (A") (A') (A') (A") (A') (A')
                 (A") (A') (A') (A') (A") (A') (A") (A') (A") (A')
                 (A') (A") (A') (A') (A") (A') (A") (A') (A') (A")
                 (A") (A') (A') (A") (A') (A') (A") (A') (A') (A")
                 (A") (A') (A') (A') (A") (A') (A')
 Initial guess <Sx>= 0.0000 <Sy>= 0.0000 <Sz>= 0.5000 <S**2>= 0.7533 S= 0.5017
 Keep R1 and R2 ints in memory in symmetry-blocked form, NReq=7570190.
 Requested convergence on RMS density matrix=1.00D-08 within 128 cycles.
 Requested convergence on MAX density matrix=1.00D-06.
 Requested convergence on             energy=1.00D-06.
 No special actions if energy rises.
 SCF Done:  E(UB3LYP) =  -113.903636307     A.U. after   10 cycles
            NFock= 10  Conv=0.62D-08     -V/T= 2.0029
 <Sx>= 0.0000 <Sy>= 0.0000 <Sz>= 0.5000 <S**2>= 0.7533 S= 0.5017
 <L.S>=  0.00000000000    
 Annihilation of the first spin contaminant:
 S**2 before annihilation     0.7533,   after     0.7500
 Calling FoFJK, ICntrl=      2127 FMM=F ISym2X=1 I1Cent= 0 IOpClX= 1 NMat=1 NMatS=1 NMatT=0.
 ***** Axes restored to original set *****
 -------------------------------------------------------------------
 Center     Atomic                   Forces (Hartrees/Bohr)
 Number     Number              X              Y              Z
 -------------------------------------------------------------------
      1        6          -0.000191434    0.000000000   -0.000540106
      2        1           0.000150826   -0.000000000    0.000350810
      3        8           0.000040608   -0.000000000    0.000189296
 -------------------------------------------------------------------
 Cartesian Forces:  Max     0.000540106 RMS     0.000238435

 GradGradGradGradGradGradGradGradGradGradGradGradGradGradGradGradGradGrad
 Berny optimization.
 Using GEDIIS/GDIIS optimizer.
 FormGI is forming the generalized inverse of G from B-inverse, IUseBI=4.
 Internal  Forces:  Max     0.000414260 RMS     0.000306440
 Search for a local minimum.
 Step number   5 out of a maximum of   20
 All quantities printed in internal units (Hartrees-Bohrs-Radians)
 Mixed Optimization -- En-DIIS/RFO-DIIS
 Update second derivatives using D2CorX and points    2    3    4    5
 DE= -1.94D-05 DEPred=-1.65D-05 R= 1.18D+00
 TightC=F SS=  1.41D+00  RLast= 1.13D-02 DXNew= 8.4853D-01 3.3994D-02
 Trust test= 1.18D+00 RLast= 1.13D-02 DXMaxT set to 5.05D-01
 The second derivative matrix:
                          R1        R2        A1
           R1           0.26305
           R2           0.05724   0.98672
           A1           0.02522   0.04314   0.16908
 ITU=  1  1  1  1
 Use linear search instead of GDIIS.
     Eigenvalues ---    0.16175   0.26343   0.99368
 RFO step:  Lambda=-2.92584442D-07 EMin= 1.61745918D-01
 Quartic linear search produced a step of  0.22256.
 Iteration  1 RMS(Cart)=  0.00154488 RMS(Int)=  0.00000170
 Iteration  2 RMS(Cart)=  0.00000181 RMS(Int)=  0.00000000
 Iteration  3 RMS(Cart)=  0.00000000 RMS(Int)=  0.00000000
 ClnCor:  largest displacement from symmetrization is 3.59D-15 for atom     2.
 Variable       Old X    -DE/DX   Delta X   Delta X   Delta X     New X
                                 (Linear)    (Quad)   (Total)
    R1        2.12059   0.00033   0.00178  -0.00026   0.00152   2.12212
    R2        2.21422  -0.00005  -0.00042   0.00039  -0.00002   2.21420
    A1        2.17578  -0.00041  -0.00174  -0.00095  -0.00269   2.17309
         Item               Value     Threshold  Converged?
 Maximum Force            0.000414     0.000450     YES
 RMS     Force            0.000306     0.000300     NO 
 Maximum Displacement     0.001555     0.001800     YES
 RMS     Displacement     0.001546     0.001200     NO 
 Predicted change in Energy=-8.006400D-07
 GradGradGradGradGradGradGradGradGradGradGradGradGradGradGradGradGradGrad

                          Input orientation:                          
 ---------------------------------------------------------------------
 Center     Atomic      Atomic             Coordinates (Angstroms)
 Number     Number       Type             X           Y           Z
 ---------------------------------------------------------------------
      1          6           0        0.093455    0.000000   -0.043299
      2          1           0       -0.052165   -0.000000    1.070194
      3          8           0        1.136911   -0.000000   -0.576299
 ---------------------------------------------------------------------
                    Distance matrix (angstroms):
                    1          2          3
     1  C    0.000000
     2  H    1.122975   0.000000
     3  O    1.171704   2.030971   0.000000
 Stoichiometry    CHO(2)
 Framework group  CS[SG(CHO)]
 Deg. of freedom     3
 Full point group                 CS      NOp   2
 Largest Abelian subgroup         CS      NOp   2
 Largest concise Abelian subgroup C1      NOp   1
                         Standard orientation:                         
 ---------------------------------------------------------------------
 Center     Atomic      Atomic             Coordinates (Angstroms)
 Number     Number       Type             X           Y           Z
 ---------------------------------------------------------------------
      1          6           0        0.061692    0.582495   -0.000000
      2          1           0       -0.863684    1.218697    0.000000
      3          8           0        0.061692   -0.589208    0.000000
 ---------------------------------------------------------------------
 Rotational constants (GHZ):         722.1453481          45.1054434          42.4537668
 Basis read from rwf:  (5D, 7F)
 There are    59 symmetry adapted cartesian basis functions of A'  symmetry.
 There are    26 symmetry adapted cartesian basis functions of A"  symmetry.
 There are    50 symmetry adapted basis functions of A'  symmetry.
 There are    24 symmetry adapted basis functions of A"  symmetry.
    74 basis functions,   120 primitive gaussians,    85 cartesian basis functions
     8 alpha electrons        7 beta electrons
       nuclear repulsion energy        26.5900682400 Hartrees.
 NAtoms=    3 NActive=    3 NUniq=    3 SFac= 1.00D+00 NAtFMM=   60 NAOKFM=F Big=F
 Integral buffers will be    131072 words long.
 Raffenetti 2 integral format.
 Two-electron integral symmetry is turned on.
 One-electron integrals computed using PRISM.
 NBasis=    74 RedAO= T EigKep=  2.09D-03  NBF=    50    24
 NBsUse=    74 1.00D-06 EigRej= -1.00D+00 NBFU=    50    24
 Initial guess from the checkpoint file:  "/wrk/irikura/Gau-6042.chk"
 B after Tr=     0.000000   -0.000000   -0.000000
         Rot=    1.000000   -0.000000   -0.000000   -0.000328 Ang=  -0.04 deg.
 Initial guess orbital symmetries:
 Alpha Orbitals:
       Occupied  (A') (A') (A') (A') (A') (A') (A") (A')
       Virtual   (A") (A') (A') (A') (A") (A') (A') (A') (A") (A')
                 (A') (A') (A") (A') (A') (A") (A') (A') (A") (A")
                 (A') (A') (A') (A') (A") (A') (A') (A") (A') (A")
                 (A') (A') (A') (A") (A') (A") (A') (A") (A') (A')
                 (A') (A") (A') (A") (A') (A") (A') (A') (A") (A")
                 (A') (A') (A') (A") (A') (A") (A') (A') (A") (A")
                 (A') (A') (A') (A") (A') (A')
 Beta  Orbitals:
       Occupied  (A') (A') (A') (A') (A') (A") (A')
       Virtual   (A') (A") (A') (A') (A") (A') (A') (A') (A') (A")
                 (A') (A') (A') (A") (A') (A') (A") (A') (A') (A")
                 (A") (A') (A') (A') (A') (A") (A') (A") (A') (A')
                 (A") (A') (A') (A') (A") (A') (A") (A') (A") (A')
                 (A') (A") (A') (A') (A") (A') (A") (A') (A') (A")
                 (A") (A') (A') (A') (A") (A') (A") (A') (A') (A")
                 (A") (A') (A') (A') (A") (A') (A')
 Initial guess <Sx>= 0.0000 <Sy>= 0.0000 <Sz>= 0.5000 <S**2>= 0.7533 S= 0.5017
 Keep R1 and R2 ints in memory in symmetry-blocked form, NReq=7570190.
 Requested convergence on RMS density matrix=1.00D-08 within 128 cycles.
 Requested convergence on MAX density matrix=1.00D-06.
 Requested convergence on             energy=1.00D-06.
 No special actions if energy rises.
 SCF Done:  E(UB3LYP) =  -113.903637110     A.U. after    9 cycles
            NFock=  9  Conv=0.63D-08     -V/T= 2.0029
 <Sx>= 0.0000 <Sy>= 0.0000 <Sz>= 0.5000 <S**2>= 0.7533 S= 0.5017
 <L.S>=  0.00000000000    
 Annihilation of the first spin contaminant:
 S**2 before annihilation     0.7533,   after     0.7500
 Calling FoFJK, ICntrl=      2127 FMM=F ISym2X=1 I1Cent= 0 IOpClX= 1 NMat=1 NMatS=1 NMatT=0.
 ***** Axes restored to original set *****
 -------------------------------------------------------------------
 Center     Atomic                   Forces (Hartrees/Bohr)
 Number     Number              X              Y              Z
 -------------------------------------------------------------------
      1        6           0.000011749   -0.000000000   -0.000002907
      2        1          -0.000001704    0.000000000   -0.000000140
      3        8          -0.000010045    0.000000000    0.000003047
 -------------------------------------------------------------------
 Cartesian Forces:  Max     0.000011749 RMS     0.000005371

 GradGradGradGradGradGradGradGradGradGradGradGradGradGradGradGradGradGrad
 Berny optimization.
 Using GEDIIS/GDIIS optimizer.
 FormGI is forming the generalized inverse of G from B-inverse, IUseBI=4.
 Internal  Forces:  Max     0.000010296 RMS     0.000006348
 Search for a local minimum.
 Step number   6 out of a maximum of   20
 All quantities printed in internal units (Hartrees-Bohrs-Radians)
 Mixed Optimization -- En-DIIS/RFO-DIIS
 Swapping is turned off.
 Update second derivatives using D2CorX and points    3    4    5    6
 DE= -8.03D-07 DEPred=-8.01D-07 R= 1.00D+00
 Trust test= 1.00D+00 RLast= 3.09D-03 DXMaxT set to 5.05D-01
 The second derivative matrix:
                          R1        R2        A1
           R1           0.25614
           R2           0.05458   0.98888
           A1           0.02259   0.03750   0.16786
 ITU=  0  1  1  1
     Eigenvalues ---    0.16170   0.25641   0.99477
 En-DIIS/RFO-DIIS/Sim-DIIS IScMMF=       -3 using points:     6    5
 RFO step:  Lambda= 0.00000000D+00.
 DidBck=F Rises=F RFO-DIIS coefs:    0.99291    0.00709
 Iteration  1 RMS(Cart)=  0.00001459 RMS(Int)=  0.00000000
 Iteration  2 RMS(Cart)=  0.00000000 RMS(Int)=  0.00000000
 ClnCor:  largest displacement from symmetrization is 1.65D-15 for atom     2.
 Variable       Old X    -DE/DX   Delta X   Delta X   Delta X     New X
                                 (Linear)    (Quad)   (Total)
    R1        2.12212   0.00000  -0.00001   0.00001   0.00000   2.12212
    R2        2.21420  -0.00001   0.00000  -0.00001  -0.00001   2.21419
    A1        2.17309   0.00000   0.00002   0.00001   0.00003   2.17311
         Item               Value     Threshold  Converged?
 Maximum Force            0.000010     0.000450     YES
 RMS     Force            0.000006     0.000300     YES
 Maximum Displacement     0.000017     0.001800     YES
 RMS     Displacement     0.000015     0.001200     YES
 Predicted change in Energy=-1.078679D-10
 Optimization completed.
    -- Stationary point found.
                           ----------------------------
                           !   Optimized Parameters   !
                           ! (Angstroms and Degrees)  !
 --------------------------                            --------------------------
 ! Name  Definition              Value          Derivative Info.                !
 --------------------------------------------------------------------------------
 ! R1    R(1,2)                  1.123          -DE/DX =    0.0                 !
 ! R2    R(1,3)                  1.1717         -DE/DX =    0.0                 !
 ! A1    A(2,1,3)              124.5088         -DE/DX =    0.0                 !
 --------------------------------------------------------------------------------
 GradGradGradGradGradGradGradGradGradGradGradGradGradGradGradGradGradGrad

                          Input orientation:                          
 ---------------------------------------------------------------------
 Center     Atomic      Atomic             Coordinates (Angstroms)
 Number     Number       Type             X           Y           Z
 ---------------------------------------------------------------------
      1          6           0        0.093455    0.000000   -0.043299
      2          1           0       -0.052165   -0.000000    1.070194
      3          8           0        1.136911   -0.000000   -0.576299
 ---------------------------------------------------------------------
                    Distance matrix (angstroms):
                    1          2          3
     1  C    0.000000
     2  H    1.122975   0.000000
     3  O    1.171704   2.030971   0.000000
 Stoichiometry    CHO(2)
 Framework group  CS[SG(CHO)]
 Deg. of freedom     3
 Full point group                 CS      NOp   2
 Largest Abelian subgroup         CS      NOp   2
 Largest concise Abelian subgroup C1      NOp   1
                         Standard orientation:                         
 ---------------------------------------------------------------------
 Center     Atomic      Atomic             Coordinates (Angstroms)
 Number     Number       Type             X           Y           Z
 ---------------------------------------------------------------------
      1          6           0        0.061692    0.582495   -0.000000
      2          1           0       -0.863684    1.218697   -0.000000
      3          8           0        0.061692   -0.589208    0.000000
 ---------------------------------------------------------------------
[...]
                 (A') (A') (A") (A') (A') (A") (A') (A') (A") (A")
                 (A') (A') (A') (A') (A") (A') (A') (A") (A') (A")
                 (A') (A') (A') (A") (A') (A") (A') (A") (A') (A')
                 (A') (A") (A') (A") (A') (A") (A') (A') (A") (A")
                 (A') (A') (A') (A") (A') (A") (A') (A') (A") (A')
                 (A") (A') (A') (A") (A') (A')
 Beta  Orbitals:
       Occupied  (A') (A') (A') (A') (A') (A") (A')
       Virtual   (A') (A") (A') (A') (A") (A') (A') (A') (A') (A")
                 (A') (A') (A') (A") (A') (A') (A") (A') (A') (A")
                 (A") (A') (A') (A') (A') (A") (A') (A") (A') (A')
                 (A") (A') (A') (A') (A") (A') (A") (A') (A") (A')
                 (A') (A") (A') (A') (A") (A') (A") (A') (A') (A")
                 (A") (A') (A') (A') (A") (A') (A") (A') (A') (A")
                 (A") (A') (A') (A') (A") (A') (A')
 The electronic state is 2-A'.
 Alpha  occ. eigenvalues --  -19.19714 -10.28493  -1.12264  -0.62649  -0.51371
 Alpha  occ. eigenvalues --   -0.45213  -0.44745  -0.22755
 Alpha virt. eigenvalues --   -0.06158   0.02831   0.09399   0.15638   0.16515
 Alpha virt. eigenvalues --    0.24121   0.29677   0.31530   0.40196   0.41962
 Alpha virt. eigenvalues --    0.49704   0.67546   0.69331   0.80405   0.97515
 Alpha virt. eigenvalues --    0.98234   1.03673   1.09477   1.18246   1.22046
 Alpha virt. eigenvalues --    1.25257   1.39100   1.51817   1.61550   1.61670
 Alpha virt. eigenvalues --    1.87509   1.92894   1.94056   2.08150   2.38115
 Alpha virt. eigenvalues --    2.39408   2.54083   2.89790   3.14530   3.16268
 Alpha virt. eigenvalues --    3.20220   3.35269   3.53762   3.67568   3.71042
 Alpha virt. eigenvalues --    3.82675   3.83696   3.89754   3.90217   3.97269
 Alpha virt. eigenvalues --    4.05886   4.16305   4.23805   4.24481   4.29079
 Alpha virt. eigenvalues --    4.38118   4.55331   4.62081   4.63562   4.92767
 Alpha virt. eigenvalues --    5.28800   5.45406   5.53425   5.58018   6.01800
 Alpha virt. eigenvalues --    6.01802   6.12231   6.18315   6.36778   6.51955
 Alpha virt. eigenvalues --    7.23181
  Beta  occ. eigenvalues --  -19.18810 -10.27494  -1.10672  -0.59907  -0.49097
  Beta  occ. eigenvalues --   -0.43990  -0.40017
  Beta virt. eigenvalues --   -0.08901  -0.04648   0.03476   0.09651   0.16943
  Beta virt. eigenvalues --    0.17570   0.25886   0.31297   0.31763   0.40385
  Beta virt. eigenvalues --    0.43140   0.51499   0.67972   0.71411   0.83255
  Beta virt. eigenvalues --    0.99930   1.00297   1.06155   1.10955   1.19313
  Beta virt. eigenvalues --    1.23190   1.28669   1.41423   1.53688   1.63451
  Beta virt. eigenvalues --    1.63573   1.88992   1.94589   1.94910   2.09991
  Beta virt. eigenvalues --    2.38715   2.41886   2.57153   2.90937   3.17350
  Beta virt. eigenvalues --    3.19482   3.22017   3.37303   3.54988   3.69515
  Beta virt. eigenvalues --    3.73062   3.85468   3.85713   3.92083   3.92429
  Beta virt. eigenvalues --    3.99222   4.09245   4.19241   4.26157   4.27266
  Beta virt. eigenvalues --    4.32331   4.40896   4.57368   4.65354   4.65546
  Beta virt. eigenvalues --    4.95909   5.31123   5.48813   5.56221   5.58947
  Beta virt. eigenvalues --    6.04750   6.05043   6.14146   6.20312   6.37178
  Beta virt. eigenvalues --    6.54639   7.24228
          Condensed to atoms (all electrons):
               1          2          3
     1  C    5.142110   0.214810   0.483627
     2  H    0.214810   0.758740  -0.036817
     3  O    0.483627  -0.036817   7.775910
          Atomic-Atomic Spin Densities.
               1          2          3
     1  C    0.972150  -0.181922  -0.193464
     2  H   -0.181922   0.357723  -0.013915
     3  O   -0.193464  -0.013915   0.448728
 Mulliken charges and spin densities:
               1          2
     1  C    0.159453   0.596765
     2  H    0.063267   0.161886
     3  O   -0.222720   0.241349
 Sum of Mulliken charges =   0.00000   1.00000
 Mulliken charges and spin densities with hydrogens summed into heavy atoms:
               1          2
     1  C    0.222720   0.758651
     3  O   -0.222720   0.241349
 APT charges:
               1
     1  C    0.353940
     2  H    0.051981
     3  O   -0.405921
 Sum of APT charges =   0.00000
 APT charges with hydrogens summed into heavy atoms:
               1
     1  C    0.405921
     3  O   -0.405921
 Electronic spatial extent (au):  <R**2>=             50.8554
 Charge=              0.0000 electrons
 Dipole moment (field-independent basis, Debye):
    X=             -0.9904    Y=              1.3533    Z=             -0.0000  Tot=              1.6770
 Quadrupole moment (field-independent basis, Debye-Ang):
   XX=            -11.5651   YY=            -11.7624   ZZ=            -10.9836
   XY=             -1.1336   XZ=              0.0000   YZ=              0.0000
 Traceless Quadrupole moment (field-independent basis, Debye-Ang):
   XX=             -0.1281   YY=             -0.3253   ZZ=              0.4534
   XY=             -1.1336   XZ=              0.0000   YZ=              0.0000
 Octapole moment (field-independent basis, Debye-Ang**2):
  XXX=             -1.1953  YYY=             -2.4127  ZZZ=             -0.0000  XYY=             -1.7288
  XXY=             -0.9120  XXZ=             -0.0000  XZZ=             -0.2370  YZZ=             -0.8897
  YYZ=             -0.0000  XYZ=              0.0000
 Hexadecapole moment (field-independent basis, Debye-Ang**3):
 XXXX=            -16.1655 YYYY=            -40.9312 ZZZZ=            -10.0833 XXXY=              1.1001
 XXXZ=             -0.0000 YYYX=              0.0223 YYYZ=              0.0000 ZZZX=             -0.0000
 ZZZY=              0.0000 XXYY=             -9.4509 XXZZ=             -4.4606 YYZZ=             -8.4451
 XXYZ=              0.0000 YYXZ=              0.0000 ZZXY=              0.5774
 N-N= 2.659006824003D+01 E-N=-3.208790380790D+02  KE= 1.135768723299D+02
 Symmetry A'   KE= 1.096354219158D+02
 Symmetry A"   KE= 3.941450414126D+00
 Symmetry A'   SP= 1.000000000000D+00
 Symmetry A"   SP= 7.021106921768D-16
  Exact polarizability:  15.091  -1.951  19.983   0.000   0.000  10.316
 Approx polarizability:  17.136  -2.095  31.587   0.000  -0.000  13.318
                          Isotropic Fermi Contact Couplings
        Atom                 a.u.       MegaHertz       Gauss      10(-4) cm-1
     1  C(13)              0.37768     424.58339     151.50191     141.62578
     2  H(1)               0.08202     366.63326     130.82386     122.29569
     3  O(17)              0.09549     -57.88306     -20.65412     -19.30771
 --------------------------------------------------------
       Center         ----  Spin Dipole Couplings  ----
                      3XX-RR        3YY-RR        3ZZ-RR
 --------------------------------------------------------
     1   Atom        0.431773     -0.112849     -0.318923
     2   Atom        0.012855      0.017245     -0.030099
     3   Atom        1.440393     -0.618984     -0.821408
 --------------------------------------------------------
                        XY            XZ            YZ
 --------------------------------------------------------
     1   Atom        0.441770      0.000000      0.000000
     2   Atom       -0.031432     -0.000000      0.000000
     3   Atom        0.473888      0.000000      0.000000
 --------------------------------------------------------


 ---------------------------------------------------------------------------------
              Anisotropic Spin Dipole Couplings in Principal Axis System
 ---------------------------------------------------------------------------------

       Atom             a.u.   MegaHertz   Gauss  10(-4) cm-1        Axes

              Baa    -0.3595   -48.241   -17.213   -16.091 -0.4875  0.8731  0.0000
     1 C(13)  Bbb    -0.3189   -42.796   -15.271   -14.275  0.0000  0.0000  1.0000
              Bcc     0.6784    91.037    32.484    30.367  0.8731  0.4875 -0.0000
 
              Baa    -0.0301   -16.060    -5.730    -5.357  0.0000  0.0000  1.0000
     2 H(1)   Bbb    -0.0165    -8.782    -3.134    -2.929  0.7313  0.6820  0.0000
              Bcc     0.0466    24.841     8.864     8.286 -0.6820  0.7313 -0.0000
 
              Baa    -0.8214    59.437    21.208    19.826  0.0000  0.0000  1.0000
     3 O(17)  Bbb    -0.7228    52.301    18.662    17.446 -0.2140  0.9768  0.0000
              Bcc     1.5442  -111.738   -39.871   -37.272  0.9768  0.2140 -0.0000
 

 ---------------------------------------------------------------------------------

 Calling FoFJK, ICntrl=    100127 FMM=F ISym2X=1 I1Cent= 0 IOpClX= 1 NMat=1 NMatS=1 NMatT=0.
 Full mass-weighted force constant matrix:
 Low frequencies ---   -5.8407    0.0006    0.0007    0.0008    2.5056    5.5947
 Low frequencies --- 1106.2977 1933.3723 2651.3227
 Diagonal vibrational polarizability:
        0.2383024       1.6336032       0.0000000
 Harmonic frequencies (cm**-1), IR intensities (KM/Mole), Raman scattering
 activities (A**4/AMU), depolarization ratios for plane and unpolarized
 incident light, reduced masses (AMU), force constants (mDyne/A),
 and normal coordinates:
                      1                      2                      3
                     A'                     A'                     A'
 Frequencies --   1106.2977              1933.3723              2651.3227
 Red. masses --      1.2525                11.6728                 1.0791
 Frc consts  --      0.9032                25.7073                 4.4691
 IR Inten    --     37.6556                98.8324                86.8223
  Atom  AN      X      Y      Z        X      Y      Z        X      Y      Z
     1   6    -0.12  -0.03  -0.00     0.03   0.73  -0.00    -0.06   0.05  -0.00
     2   1     0.52   0.84  -0.00    -0.33   0.19  -0.00     0.80  -0.59   0.00
     3   8     0.06  -0.03   0.00    -0.00  -0.56   0.00    -0.00   0.00  -0.00

 -------------------
 - Thermochemistry -
 -------------------
 Temperature   298.150 Kelvin.  Pressure   1.00000 Atm.
 Atom     1 has atomic number  6 and mass  12.00000
 Atom     2 has atomic number  1 and mass   1.00783
 Atom     3 has atomic number  8 and mass  15.99491
 Molecular mass:    29.00274 amu.
 Principal axes and moments of inertia in atomic units:
                           1         2         3
     Eigenvalues --     2.49914  40.01161  42.51074
           X           -0.11261   0.99364   0.00000
           Y            0.99364   0.11261   0.00000
           Z            0.00000   0.00000   1.00000
 This molecule is an asymmetric top.
 Rotational symmetry number  1.
 Rotational temperatures (Kelvin)     34.65751     2.16472     2.03746
 Rotational constants (GHZ):         722.14535    45.10544    42.45377
 Zero-point vibrational energy      34039.7 (Joules/Mol)
                                    8.13568 (Kcal/Mol)
 Vibrational temperatures:   1591.72  2781.69  3814.66
          (Kelvin)
 
 Zero-point correction=                           0.012965 (Hartree/Particle)
 Thermal correction to Energy=                    0.015823
 Thermal correction to Enthalpy=                  0.016767
 Thermal correction to Gibbs Free Energy=        -0.008687
 Sum of electronic and zero-point Energies=           -113.890672
 Sum of electronic and thermal Energies=              -113.887814
 Sum of electronic and thermal Enthalpies=            -113.886870
 Sum of electronic and thermal Free Energies=         -113.912324
 
                     E (Thermal)             CV                S
                      KCal/Mol        Cal/Mol-Kelvin    Cal/Mol-Kelvin
 Total                    9.929              6.252             53.573
 Electronic               0.000              0.000              1.377
 Translational            0.889              2.981             36.028
 Rotational               0.889              2.981             16.104
 Vibrational              8.151              0.291              0.063
                       Q            Log10(Q)             Ln(Q)
 Total Bot       0.990510D+04          3.995859          9.200805
 Total V=0       0.910659D+10          9.959356         22.932265
 Vib (Bot)       0.109303D-05         -5.961367        -13.726554
 Vib (V=0)       0.100492D+01          0.002130          0.004905
 Electronic      0.200000D+01          0.301030          0.693147
 Translational   0.613921D+07          6.788112         15.630206
 Rotational      0.738045D+03          2.868083          6.604005
 ***** Axes restored to original set *****
 -------------------------------------------------------------------
 Center     Atomic                   Forces (Hartrees/Bohr)
 Number     Number              X              Y              Z
 -------------------------------------------------------------------
      1        6           0.000011725   -0.000000000   -0.000002889
      2        1          -0.000001704    0.000000000   -0.000000146
      3        8          -0.000010021    0.000000000    0.000003035
 -------------------------------------------------------------------
 Cartesian Forces:  Max     0.000011725 RMS     0.000005358
 FormGI is forming the generalized inverse of G from B-inverse, IUseBI=4.

 GradGradGradGradGradGradGradGradGradGradGradGradGradGradGradGradGradGrad
 Berny optimization.
 Internal  Forces:  Max     0.000010270 RMS     0.000006334
 Search for a local minimum.
 Step number   1 out of a maximum of    2
 All quantities printed in internal units (Hartrees-Bohrs-Radians)
 Second derivative matrix not updated -- analytic derivatives used.
 The second derivative matrix:
                          R1        R2        A1
           R1           0.25039
           R2           0.04887   0.99075
           A1           0.01980   0.03438   0.16642
 ITU=  0
     Eigenvalues ---    0.16133   0.25074   0.99549
 Angle between quadratic step and forces=  45.55 degrees.
 Linear search not attempted -- first point.
 Iteration  1 RMS(Cart)=  0.00001458 RMS(Int)=  0.00000000
 Iteration  2 RMS(Cart)=  0.00000000 RMS(Int)=  0.00000000
 ClnCor:  largest displacement from symmetrization is 4.65D-16 for atom     2.
 Variable       Old X    -DE/DX   Delta X   Delta X   Delta X     New X
                                 (Linear)    (Quad)   (Total)
    R1        2.12212   0.00000   0.00000   0.00000   0.00000   2.12212
    R2        2.21420  -0.00001   0.00000  -0.00001  -0.00001   2.21419
    A1        2.17309   0.00000   0.00000   0.00003   0.00003   2.17311
         Item               Value     Threshold  Converged?
 Maximum Force            0.000010     0.000450     YES
 RMS     Force            0.000006     0.000300     YES
 Maximum Displacement     0.000017     0.001800     YES
 RMS     Displacement     0.000015     0.001200     YES
 Predicted change in Energy=-1.070121D-10
 Optimization completed.
    -- Stationary point found.
                           ----------------------------
                           !   Optimized Parameters   !
                           ! (Angstroms and Degrees)  !
 --------------------------                            --------------------------
 ! Name  Definition              Value          Derivative Info.                !
 --------------------------------------------------------------------------------
 ! R1    R(1,2)                  1.123          -DE/DX =    0.0                 !
 ! R2    R(1,3)                  1.1717         -DE/DX =    0.0                 !
 ! A1    A(2,1,3)              124.5088         -DE/DX =    0.0                 !
 --------------------------------------------------------------------------------
 GradGradGradGradGradGradGradGradGradGradGradGradGradGradGradGradGradGrad


 ----------------------------------------------------------------------

 Electric dipole moment (input orientation):
 (Debye = 10**-18 statcoulomb cm , SI units = C m)
                  (au)            (Debye)         (10**-30 SI)
   Tot        0.659775D+00      0.167698D+01      0.559381D+01
   x         -0.296906D+00     -0.754660D+00     -0.251728D+01
   y          0.000000D+00      0.000000D+00      0.000000D+00
   z          0.589195D+00      0.149758D+01      0.499540D+01

 Dipole polarizability, Alpha (input orientation).
 (esu units = cm**3 , SI units = C**2 m**2 J**-1)
 Alpha(0;0):
               (au)            (10**-24 esu)      (10**-40 SI)
   iso        0.151301D+02      0.224205D+01      0.249462D+01
   aniso      0.902826D+01      0.133785D+01      0.148856D+01
   xx         0.173904D+02      0.257699D+01      0.286729D+01
   yx         0.000000D+00      0.000000D+00      0.000000D+00
   yy         0.103162D+02      0.152871D+01      0.170091D+01
   zx        -0.312540D+01     -0.463137D+00     -0.515309D+00
   zy         0.000000D+00      0.000000D+00      0.000000D+00
   zz         0.176837D+02      0.262046D+01      0.291565D+01

 ----------------------------------------------------------------------

 Dipole orientation:
     6          0.12088991          0.00000000         -0.15254382
     1          0.82205824         -0.00000000          1.85038795
     8          1.42853170         -0.00000000         -1.93937048

 Electric dipole moment (dipole orientation):
 (Debye = 10**-18 statcoulomb cm , SI units = C m)
                  (au)            (Debye)         (10**-30 SI)
   Tot        0.659775D+00      0.167698D+01      0.559381D+01
   x          0.000000D+00      0.000000D+00      0.000000D+00
   y          0.000000D+00      0.000000D+00      0.000000D+00
   z          0.659775D+00      0.167698D+01      0.559381D+01

 Dipole polarizability, Alpha (dipole orientation).
 (esu units = cm**3 , SI units = C**2 m**2 J**-1)
 Alpha(0;0):
               (au)            (10**-24 esu)      (10**-40 SI)
   iso        0.151301D+02      0.224205D+01      0.249462D+01
   aniso      0.902826D+01      0.133785D+01      0.148856D+01
   xx         0.149378D+02      0.221355D+01      0.246291D+01
   yx         0.000000D+00      0.000000D+00      0.000000D+00
   yy         0.103162D+02      0.152871D+01      0.170091D+01
   zx        -0.174167D+01     -0.258089D+00     -0.287163D+00
   zy         0.000000D+00      0.000000D+00      0.000000D+00
   zz         0.201363D+02      0.298390D+01      0.332003D+01

 ----------------------------------------------------------------------
 1\1\GINC-GAMBA\Freq\UB3LYP\Gen\C1H1O1(2)\IRIKURA\15-Jun-2022\0\\#N Geo
 m=AllCheck Guess=TCheck SCRF=Check GenChk UB3LYP/ChkBas Freq\\formyl, 
 B3LYP/pcseg-2\\0,2\C,0.0934547462,0.,-0.0432990487\H,-0.0521652786,0.,
 1.0701943755\O,1.1369106556,0.,-0.576299067\\Version=ES64L-G16RevB.01\
 State=2-A'\HF=-113.9036371\S2=0.753341\S2-1=0.\S2A=0.750007\RMSD=9.816
 e-10\RMSF=5.358e-06\ZeroPoint=0.012965\Thermal=0.0158227\Dipole=-0.296
 9062,0.,0.5891946\DipoleDeriv=0.4743419,0.,-0.4465471,0.,-0.1033377,0.
 ,-0.3253445,0.,0.6908174,0.177961,0.,-0.0210014,0.,0.2228158,0.,0.0886
 603,0.,-0.2448352,-0.6523029,0.,0.4675485,0.,-0.1194781,0.,0.2366842,0
 .,-0.4459821\Polar=17.3903943,0.,10.3162187,-3.1254018,0.,17.6837282\Q
 uadrupole=-0.8943694,0.3370962,0.5572732,0.,-0.4345881,0.\PG=CS [SG(C1
 H1O1)]\NImag=0\\0.81623275,0.,0.00000819,-0.35132917,0.,0.43912987,-0.
 03949558,0.,-0.00603935,0.04294014,0.,-0.00000105,0.,0.,-0.00000111,-0
 .00287637,0.,-0.21951010,-0.03645844,0.,0.24440777,-0.77673716,0.,0.35
 736851,-0.00344456,0.,0.03933482,0.78018173,0.,-0.00000714,0.,0.,0.000
 00216,0.,0.,0.00000498,0.35420554,0.,-0.21961978,0.04249779,0.,-0.0248
 9768,-0.39670333,0.,0.24451746\\-0.00001172,0.,0.00000289,0.00000170,0
 .,0.00000015,0.00001002,0.,-0.00000303\\\@


 YOU CAN LEAD A BOY TO COLLEGE....
 BUT YOU CANNOT MAKE HIM THINK....
           ELBERT HUBBARD
 Job cpu time:       0 days  0 hours  0 minutes 45.3 seconds.
 Elapsed time:       0 days  0 hours  0 minutes 11.3 seconds.
 File lengths (MBytes):  RWF=     10 Int=      0 D2E=      0 Chk=      2 Scr=      1
 Normal termination of Gaussian 16 at Wed Jun 15 11:01:08 2022.
