 Entering Gaussian System, Link 0=g16
 AtFile(1): pcseg2.gbs
            -H     0
            S   4   1.00
                  0.754732D+02           0.427821D-02
                  0.113575D+02           0.328672D-01
                  0.260081D+01           0.159578D+00
                  0.735503D+00           0.500000D+00
            S   1   1.00
                  0.231761D+00           1.0000000
            S   1   1.00
                  0.741675D-01           1.0000000
            P   1   1.00
                  0.160000D+01           1.0000000
            P   1   1.00
                  0.450000D+00           1.0000000
            D   1   1.00
                  0.125000D+01           1.0000000
            ****
            -C     0
            S   7   1.00
                  0.731999D+04           0.695369D-03
                  0.109818D+04           0.537138D-02
                  0.250014D+03           0.274734D-01
                  0.707586D+02           0.105078D+00
                  0.228595D+02           0.291262D+00
                  0.803936D+01           0.500000D+00
                  0.289309D+01           0.362224D+00
            S   2   1.00
                  0.521640D+01          -0.957844D-01
                  0.556124D+00           0.500000D+00
            S   1   1.00
                  0.228813D+00           1.0000000
            S   1   1.00
                  0.936338D-01           1.0000000
            P   4   1.00
                  0.339855D+02           0.818395D-02
                  0.772957D+01           0.586921D-01
                  0.224954D+01           0.222514D+00
                  0.767681D+00           0.500000D+00
            P   1   1.00
                  0.263283D+00           1.0000000
            P   1   1.00
                  0.848744D-01           1.0000000
            D   1   1.00
                  0.140000D+01           1.0000000
            D   1   1.00
                  0.450000D+00           1.0000000
            F   1   1.00
                  0.950000D+00           1.0000000
            ****
            -O     0
            S   7   1.00
                  0.135887D+05           0.665492D-03
                  0.203847D+04           0.514222D-02
                  0.464041D+03           0.263472D-01
                  0.131339D+03           0.101500D+00
                  0.425340D+02           0.285877D+00
                  0.150429D+02           0.500000D+00
                  0.546616D+01           0.368211D+00
            S   2   1.00
                  0.100915D+02          -0.100084D+00
                  0.110429D+01           0.500000D+00
            S   1   1.00
                  0.448082D+00           1.0000000
            S   1   1.00
                  0.175325D+00           1.0000000
            P   4   1.00
                  0.608220D+02           0.908253D-02
                  0.140332D+02           0.645878D-01
                  0.418244D+01           0.241502D+00
                  0.142490D+01           0.500000D+00
            P   1   1.00
                  0.478741D+00           1.0000000
            P   1   1.00
                  0.146257D+00           1.0000000
            D   1   1.00
                  0.220000D+01           1.0000000
            D   1   1.00
                  0.650000D+00           1.0000000
            F   1   1.00
                  0.110000D+01           1.0000000
            ****
            -N     0
            S   7   1.00
                  0.101643D+05           0.682757D-03
                  0.152481D+04           0.527488D-02
                  0.347119D+03           0.270037D-01
                  0.982389D+02           0.103673D+00
                  0.317799D+02           0.289575D+00
                  0.112240D+02           0.500000D+00
                  0.406611D+01           0.364621D+00
            S   2   1.00
                  0.747898D+01          -0.975681D-01
                  0.805040D+00           0.500000D+00
            S   1   1.00
                  0.324626D+00           1.0000000
            S   1   1.00
                  0.128132D+00           1.0000000
            P   4   1.00
                  0.482704D+02           0.829547D-02
                  0.110815D+02           0.596223D-01
                  0.326643D+01           0.227889D+00
                  0.111680D+01           0.500000D+00
            P   1   1.00
                  0.382049D+00           1.0000000
            P   1   1.00
                  0.121222D+00           1.0000000
            D   1   1.00
                  0.180000D+01           1.0000000
            D   1   1.00
                  0.550000D+00           1.0000000
            F   1   1.00
                  0.102000D+01           1.0000000
            ****
            -F     0
            S   7   1.00
                  0.174507D+05           0.655972D-03
                  0.261768D+04           0.506944D-02
                  0.595857D+03           0.259899D-01
                  0.168651D+03           0.100353D+00
                  0.546654D+02           0.284095D+00
                  0.193717D+02           0.500000D+00
                  0.706202D+01           0.370721D+00
            S   2   1.00
                  0.131197D+02          -0.101997D+00
                  0.145046D+01           0.500000D+00
            S   1   1.00
                  0.588255D+00           1.0000000
            S   1   1.00
                  0.227960D+00           1.0000000
            P   4   1.00
                  0.779407D+02           0.931135D-02
                  0.180425D+02           0.663964D-01
                  0.542342D+01           0.246386D+00
                  0.184876D+01           0.500000D+00
            P   1   1.00
                  0.617455D+00           1.0000000
            P   1   1.00
                  0.185496D+00           1.0000000
            D   1   1.00
                  0.280000D+01           1.0000000
            D   1   1.00
                  0.800000D+00           1.0000000
            F   1   1.00
                  0.120000D+01           1.0000000
            ****
            -Cl     0
            S   8   1.00
                  0.154272D+06           0.222473D-03
                  0.231232D+05           0.172590D-02
                  0.526257D+04           0.899286D-02
                  0.148995D+04           0.367724D-01
                  0.485417D+03           0.121446D+00
                  0.174634D+03           0.304148D+00
                  0.672393D+02           0.500000D+00
                  0.265780D+02           0.360252D+00
            S   3   1.00
                  0.131826D+03          -0.531330D-01
                  0.400703D+02          -0.233346D+00
                  0.789448D+01           0.500000D+00
            S   2   1.00
                  0.427711D+01           0.500000D+00
                  0.196233D+01           0.370517D+00
            S   1   1.00
                  0.520793D+00           1.0000000
            S   1   1.00
                  0.181633D+00           1.0000000
            P   7   1.00
                  0.124440D+04           0.988206D-03
                  0.295109D+03           0.829674D-02
                  0.947224D+02           0.430906D-01
                  0.352588D+02           0.148443D+00
                  0.144211D+02           0.344744D+00
                  0.610371D+01           0.500000D+00
                  0.258886D+01           0.348278D+00
            P   2   1.00
                  0.109447D+02          -0.196768D-01
                  0.104413D+01           0.500000D+00
            P   1   1.00
                  0.376184D+00           1.0000000
            P   1   1.00
                  0.120613D+00           1.0000000
            D   1   1.00
                  0.231000D+01           1.0000000
            D   1   1.00
                  0.520000D+00           1.0000000
            F   1   1.00
                  0.720000D+00           1.0000000
            ****
            -S     0
            S   8   1.00
                  0.134700D+06           0.226231D-03
                  0.201904D+05           0.175488D-02
                  0.459528D+04           0.914190D-02
                  0.130109D+04           0.373551D-01
                  0.423902D+03           0.123121D+00
                  0.152485D+03           0.306801D+00
                  0.586925D+02           0.500000D+00
                  0.231461D+02           0.354358D+00
            S   3   1.00
                  0.116327D+03          -0.491772D-01
                  0.352841D+02          -0.215962D+00
                  0.677831D+01           0.500000D+00
            S   2   1.00
                  0.360404D+01           0.500000D+00
                  0.164871D+01           0.366278D+00
            S   1   1.00
                  0.421821D+00           1.0000000
            S   1   1.00
                  0.147554D+00           1.0000000
            P   7   1.00
                  0.104863D+04           0.105273D-02
                  0.248717D+03           0.879338D-02
                  0.797887D+02           0.453358D-01
                  0.296023D+02           0.154476D+00
                  0.120627D+02           0.352366D+00
                  0.507628D+01           0.500000D+00
                  0.213375D+01           0.346429D+00
            P   2   1.00
                  0.928958D+01          -0.185932D-01
                  0.837819D+00           0.500000D+00
            P   1   1.00
                  0.301495D+00           1.0000000
            P   1   1.00
                  0.974740D-01           1.0000000
            D   1   1.00
                  0.210000D+01           1.0000000
            D   1   1.00
                  0.480000D+00           1.0000000
            F   1   1.00
                  0.660000D+00           1.0000000
            ****
            -Br     0
            S    10   1.00
                  0.233625D+07           0.532336D-04
                  0.349961D+06           0.413715D-03
                  0.796444D+05           0.217123D-02
                  0.225555D+05           0.910109D-02
                  0.735546D+04           0.323789D-01
                  0.265352D+04           0.988755D-01
                  0.103517D+04           0.248138D+00
                  0.422205D+03           0.474328D+00
                  0.180035D+03           0.500000D+00
                  0.793308D+02           0.187769D+00
            S    4   1.00
                  0.620834D+03          -0.226511D-01
                  0.190829D+03          -0.109497D+00
                  0.312505D+02           0.500000D+00
                  0.135270D+02           0.492812D+00
            S    2   1.00
                  0.216097D+02          -0.165418D+00
                  0.372566D+01           0.500000D+00
            S    1   1.00
                  0.169770D+01           1.0000000
            S    1   1.00
                  0.489332D+00           1.0000000
            S    1   1.00
                  0.175712D+00           1.0000000
            P    8   1.00
                  0.960829D+04           0.478974D-03
                  0.227618D+04           0.417853D-02
                  0.736723D+03           0.229315D-01
                  0.281579D+03           0.892653D-01
                  0.118395D+03           0.255288D+00
                  0.527481D+02           0.479074D+00
                  0.245098D+02           0.500000D+00
                  0.112009D+02           0.200944D+00
            P    4   1.00
                  0.587849D+02          -0.189674D-01
                  0.918962D+01           0.264104D+00
                  0.413895D+01           0.500000D+00
                  0.184225D+01           0.319316D+00
            P    1   1.00
                  0.713862D+00           1.0000000
            P    1   1.00
                  0.274232D+00           1.0000000
            P    1   1.00
                  0.944411D-01           1.0000000
            D    7   1.00
                  0.398470D+03           0.204066D-02
                  0.118967D+03           0.175171D-01
                  0.450197D+02           0.829708D-01
                  0.190320D+02           0.236284D+00
                  0.855686D+01           0.428468D+00
                  0.382950D+01           0.500000D+00
                  0.166291D+01           0.349360D+00
            D    1   1.00
                  0.672953D+00           1.0000000
            D    1   1.00
                  0.252000D+00           1.0000000
            F    1   1.00
                  0.530000D+00           1.0000000
            ****
            -Si     0
            S    8   1.00
                  0.996133D+05           0.235546D-03
                  0.149311D+05           0.182707D-02
                  0.339820D+04           0.951425D-02
                  0.962140D+03           0.388172D-01
                  0.313430D+03           0.127328D+00
                  0.112683D+03           0.313522D+00
                  0.433372D+02           0.500000D+00
                  0.170029D+02           0.340347D+00
            S    3   1.00
                  0.884208D+02          -0.404451D-01
                  0.266756D+02          -0.178059D+00
                  0.479640D+01           0.500000D+00
            S    2   1.00
                  0.239385D+01           0.500000D+00
                  0.108333D+01           0.338016D+00
            S    1   1.00
                  0.252420D+00           1.0000000
            S    1   1.00
                  0.891210D-01           1.0000000
            P    7   1.00
                  0.709901D+03           0.123028D-02
                  0.168426D+03           0.101366D-01
                  0.539946D+02           0.511840D-01
                  0.198646D+02           0.169967D+00
                  0.801369D+01           0.370717D+00
                  0.331870D+01           0.500000D+00
                  0.136112D+01           0.344128D+00
            P    2   1.00
                  0.622158D+01          -0.166609D-01
                  0.503049D+00           0.500000D+00
            P    1   1.00
                  0.179848D+00           1.0000000
            P    1   1.00
                  0.591912D-01           1.0000000
            D    1   1.00
                  0.168000D+01           1.0000000
            D    1   1.00
                  0.380000D+00           1.0000000
            F    1   1.00
                  0.540000D+00           1.0000000
            ****
            -P     0
            S    8   1.00
                  0.116416D+06           0.230715D-03
                  0.174500D+05           0.178960D-02
                  0.397149D+04           0.932116D-02
                  0.112447D+04           0.380591D-01
                  0.366347D+03           0.125148D+00
                  0.131757D+03           0.310022D+00
                  0.506988D+02           0.500000D+00
                  0.199436D+02           0.347528D+00
            S    3   1.00
                  0.101878D+03          -0.446755D-01
                  0.308249D+02          -0.196376D+00
                  0.573688D+01           0.500000D+00
            S    2   1.00
                  0.296868D+01           0.500000D+00
                  0.135315D+01           0.355098D+00
            S    1   1.00
                  0.332196D+00           1.0000000
            S    1   1.00
                  0.116229D+00           1.0000000
            P    7   1.00
                  0.873928D+03           0.112375D-02
                  0.207298D+03           0.933330D-02
                  0.664628D+02           0.477213D-01
                  0.245665D+02           0.160733D+00
                  0.996820D+01           0.359760D+00
                  0.416536D+01           0.500000D+00
                  0.173022D+01           0.346593D+00
            P    2   1.00
                  0.772530D+01          -0.175718D-01
                  0.657252D+00           0.500000D+00
            P    1   1.00
                  0.239903D+00           1.0000000
            P    1   1.00
                  0.800988D-01           1.0000000
            D    1   1.00
                  0.189000D+01           1.0000000
            D    1   1.00
                  0.430000D+00           1.0000000
            F    1   1.00
                  0.600000D+00           1.0000000
            ****
            
 Initial command:
 /usr/local/apps/g16_b01_avx/g16/l1.exe "/wrk/irikura/Gau-451696.inp" -scrdir="/wrk/irikura/"
 Entering Link 1 = /usr/local/apps/g16_b01_avx/g16/l1.exe PID=    451698.
  
 Copyright (c) 1988-2017, Gaussian, Inc.  All Rights Reserved.
  
 This is part of the Gaussian(R) 16 program.  It is based on
 the Gaussian(R) 09 system (copyright 2009, Gaussian, Inc.),
 the Gaussian(R) 03 system (copyright 2003, Gaussian, Inc.),
 the Gaussian(R) 98 system (copyright 1998, Gaussian, Inc.),
 the Gaussian(R) 94 system (copyright 1995, Gaussian, Inc.),
 the Gaussian 92(TM) system (copyright 1992, Gaussian, Inc.),
 the Gaussian 90(TM) system (copyright 1990, Gaussian, Inc.),
 the Gaussian 88(TM) system (copyright 1988, Gaussian, Inc.),
 the Gaussian 86(TM) system (copyright 1986, Carnegie Mellon
 University), and the Gaussian 82(TM) system (copyright 1983,
 Carnegie Mellon University). Gaussian is a federally registered
 trademark of Gaussian, Inc.
  
 This software contains proprietary and confidential information,
 including trade secrets, belonging to Gaussian, Inc.
  
 This software is provided under written license and may be
 used, copied, transmitted, or stored only in accord with that
 written license.
  
 The following legend is applicable only to US Government
 contracts under FAR:
  
                    RESTRICTED RIGHTS LEGEND
  
 Use, reproduction and disclosure by the US Government is
 subject to restrictions as set forth in subparagraphs (a)
 and (c) of the Commercial Computer Software - Restricted
 Rights clause in FAR 52.227-19.
  
 Gaussian, Inc.
 340 Quinnipiac St., Bldg. 40, Wallingford CT 06492
  
  
 ---------------------------------------------------------------
 Warning -- This program may not be used in any manner that
 competes with the business of Gaussian, Inc. or will provide
 assistance to any competitor of Gaussian, Inc.  The licensee
 of this program is prohibited from giving any competitor of
 Gaussian, Inc. access to this program.  By using this program,
 the user acknowledges that Gaussian, Inc. is engaged in the
 business of creating and licensing software in the field of
 computational chemistry and represents and warrants to the
 licensee that it is not a competitor of Gaussian, Inc. and that
 it will not use this program in any manner prohibited above.
 ---------------------------------------------------------------
  

 Cite this work as:
 Gaussian 16, Revision B.01,
 M. J. Frisch, G. W. Trucks, H. B. Schlegel, G. E. Scuseria, 
 M. A. Robb, J. R. Cheeseman, G. Scalmani, V. Barone, 
 G. A. Petersson, H. Nakatsuji, X. Li, M. Caricato, A. V. Marenich, 
 J. Bloino, B. G. Janesko, R. Gomperts, B. Mennucci, H. P. Hratchian, 
 J. V. Ortiz, A. F. Izmaylov, J. L. Sonnenberg, D. Williams-Young, 
 F. Ding, F. Lipparini, F. Egidi, J. Goings, B. Peng, A. Petrone, 
 T. Henderson, D. Ranasinghe, V. G. Zakrzewski, J. Gao, N. Rega, 
 G. Zheng, W. Liang, M. Hada, M. Ehara, K. Toyota, R. Fukuda, 
 J. Hasegawa, M. Ishida, T. Nakajima, Y. Honda, O. Kitao, H. Nakai, 
 T. Vreven, K. Throssell, J. A. Montgomery, Jr., J. E. Peralta, 
 F. Ogliaro, M. J. Bearpark, J. J. Heyd, E. N. Brothers, K. N. Kudin, 
 V. N. Staroverov, T. A. Keith, R. Kobayashi, J. Normand, 
 K. Raghavachari, A. P. Rendell, J. C. Burant, S. S. Iyengar, 
 J. Tomasi, M. Cossi, J. M. Millam, M. Klene, C. Adamo, R. Cammi, 
 J. W. Ochterski, R. L. Martin, K. Morokuma, O. Farkas, 
 J. B. Foresman, and D. J. Fox, Gaussian, Inc., Wallingford CT, 2016.
 
 ******************************************
 Gaussian 16:  ES64L-G16RevB.01 20-Dec-2017
                30-Sep-2023 
 ******************************************
 %chk=chocho.chk
 %mem=500mw
 %nprocs=4
 Will use up to    4 processors via shared memory.
 ---------------------------------------
 # b3lyp/gen opt freq CPHF(Grid=OneStep)
 ---------------------------------------
 1/18=20,19=15,26=3,38=1/1,3;
 2/9=110,12=2,17=6,18=5,40=1/2;
 3/5=7,11=2,25=1,30=1,71=1,74=-5/1,2,3;
 4//1;
 5/5=2,38=5/2;
 6/7=2,8=2,9=2,10=2,28=1/1;
 7//1,2,3,16;
 1/18=20,19=15,26=3/3(2);
 2/9=110/2;
 99//99;
 2/9=110/2;
 3/5=7,6=1,11=2,25=1,30=1,71=1,74=-5,82=7/1,2,3;
 4/5=5,16=3,69=1/1;
 5/5=2,38=5/2;
 7//1,2,3,16;
 1/18=20,19=15,26=3/3(-5);
 2/9=110/2;
 6/7=2,8=2,9=2,10=2,19=2,28=1/1;
 99/9=1/99;
 ----------------------
 glyoxal, B3LYP/pcseg-2
 ----------------------
 Symbolic Z-matrix:
 Charge =  0 Multiplicity = 1
 C                    -0.32725   0.68846   0. 
 C                     0.32725  -0.68846   0. 
 H                    -1.43234   0.67858   0. 
 H                     1.43234  -0.67858   0. 
 O                     0.32725   1.69557   0. 
 O                    -0.32725  -1.69557   0. 
 

 GradGradGradGradGradGradGradGradGradGradGradGradGradGradGradGradGradGrad
 Berny optimization.
 Initialization pass.
                           ----------------------------
                           !    Initial Parameters    !
                           ! (Angstroms and Degrees)  !
 --------------------------                            --------------------------
 ! Name  Definition              Value          Derivative Info.                !
 --------------------------------------------------------------------------------
 ! R1    R(1,2)                  1.5246         estimate D2E/DX2                !
 ! R2    R(1,3)                  1.1051         estimate D2E/DX2                !
 ! R3    R(1,5)                  1.2011         estimate D2E/DX2                !
 ! R4    R(2,4)                  1.1051         estimate D2E/DX2                !
 ! R5    R(2,6)                  1.2011         estimate D2E/DX2                !
 ! A1    A(2,1,3)              114.9114         estimate D2E/DX2                !
 ! A2    A(2,1,5)              121.5573         estimate D2E/DX2                !
 ! A3    A(3,1,5)              123.5313         estimate D2E/DX2                !
 ! A4    A(1,2,4)              114.9114         estimate D2E/DX2                !
 ! A5    A(1,2,6)              121.5573         estimate D2E/DX2                !
 ! A6    A(4,2,6)              123.5313         estimate D2E/DX2                !
 ! D1    D(3,1,2,4)            180.0            estimate D2E/DX2                !
 ! D2    D(3,1,2,6)              0.0            estimate D2E/DX2                !
 ! D3    D(5,1,2,4)              0.0            estimate D2E/DX2                !
 ! D4    D(5,1,2,6)            180.0            estimate D2E/DX2                !
 --------------------------------------------------------------------------------
 Trust Radius=3.00D-01 FncErr=1.00D-07 GrdErr=1.00D-06 EigMax=2.50D+02 EigMin=1.00D-04
 Number of steps in this run=     25 maximum allowed number of steps=    100.
 GradGradGradGradGradGradGradGradGradGradGradGradGradGradGradGradGradGrad

                          Input orientation:                          
 ---------------------------------------------------------------------
 Center     Atomic      Atomic             Coordinates (Angstroms)
 Number     Number       Type             X           Y           Z
 ---------------------------------------------------------------------
      1          6           0       -0.327251    0.688460    0.000000
      2          6           0        0.327251   -0.688460    0.000000
      3          1           0       -1.432341    0.678582    0.000000
      4          1           0        1.432341   -0.678582    0.000000
      5          8           0        0.327251    1.695567    0.000000
      6          8           0       -0.327251   -1.695567    0.000000
 ---------------------------------------------------------------------
                    Distance matrix (angstroms):
                    1          2          3          4          5
     1  C    0.000000
     2  C    1.524559   0.000000
     3  H    1.105134   2.228221   0.000000
     4  H    2.228221   1.105134   3.169905   0.000000
     5  O    1.201098   2.384027   2.032344   2.618742   0.000000
     6  O    2.384027   1.201098   2.618742   2.032344   3.453717
                    6
     6  O    0.000000
 Stoichiometry    C2H2O2
 Framework group  C2H[SGH(C2H2O2)]
 Deg. of freedom     5
 Full point group                 C2H     NOp   4
 Largest Abelian subgroup         C2H     NOp   4
 Largest concise Abelian subgroup C2      NOp   2
                         Standard orientation:                         
 ---------------------------------------------------------------------
 Center     Atomic      Atomic             Coordinates (Angstroms)
 Number     Number       Type             X           Y           Z
 ---------------------------------------------------------------------
      1          6           0       -0.327251    0.688460    0.000000
      2          6           0        0.327251   -0.688460    0.000000
      3          1           0       -1.432341    0.678582    0.000000
      4          1           0        1.432341   -0.678582    0.000000
      5          8           0        0.327251    1.695567    0.000000
      6          8           0       -0.327251   -1.695567    0.000000
 ---------------------------------------------------------------------
 Rotational constants (GHZ):          56.1554017           4.7946638           4.4174894
 General basis read from cards:  (5D, 7F)
 There are    59 symmetry adapted cartesian basis functions of AG  symmetry.
 There are    26 symmetry adapted cartesian basis functions of BG  symmetry.
 There are    26 symmetry adapted cartesian basis functions of AU  symmetry.
 There are    59 symmetry adapted cartesian basis functions of BU  symmetry.
 There are    50 symmetry adapted basis functions of AG  symmetry.
 There are    24 symmetry adapted basis functions of BG  symmetry.
 There are    24 symmetry adapted basis functions of AU  symmetry.
 There are    50 symmetry adapted basis functions of BU  symmetry.
   148 basis functions,   240 primitive gaussians,   170 cartesian basis functions
    15 alpha electrons       15 beta electrons
       nuclear repulsion energy       102.0681264495 Hartrees.
 NAtoms=    6 NActive=    6 NUniq=    3 SFac= 4.00D+00 NAtFMM=   60 NAOKFM=F Big=F
 Integral buffers will be    131072 words long.
 Raffenetti 2 integral format.
 Two-electron integral symmetry is turned on.
 One-electron integrals computed using PRISM.
 NBasis=   148 RedAO= T EigKep=  8.32D-04  NBF=    50    24    24    50
 NBsUse=   148 1.00D-06 EigRej= -1.00D+00 NBFU=    50    24    24    50
 ExpMin= 7.42D-02 ExpMax= 1.36D+04 ExpMxC= 4.64D+02 IAcc=3 IRadAn=         5 AccDes= 0.00D+00
 Harris functional with IExCor=  402 and IRadAn=       5 diagonalized for initial guess.
 HarFok:  IExCor=  402 AccDes= 0.00D+00 IRadAn=         5 IDoV= 1 UseB2=F ITyADJ=14
 ICtDFT=  3500011 ScaDFX=  1.000000  1.000000  1.000000  1.000000
 FoFCou: FMM=F IPFlag=           0 FMFlag=      100000 FMFlg1=           0
         NFxFlg=           0 DoJE=T BraDBF=F KetDBF=T FulRan=T
         wScrn=  0.000000 ICntrl=       500 IOpCl=  0 I1Cent=   200000004 NGrid=           0
         NMat0=    1 NMatS0=      1 NMatT0=    0 NMatD0=    1 NMtDS0=    0 NMtDT0=    0
 Petite list used in FoFCou.
 Initial guess orbital symmetries:
       Occupied  (BU) (AG) (AG) (BU) (AG) (BU) (AG) (BU) (BU) (AG)
                 (AG) (AU) (BG) (BU) (AG)
       Virtual   (AU) (BG) (BU) (AG) (BU) (AG) (AU) (AG) (BU) (BG)
                 (BU) (AG) (BU) (BU) (AG) (BU) (BG) (BU) (AG) (AU)
                 (BU) (AG) (AG) (AG) (AU) (BU) (BG) (AG) (AU) (BU)
                 (BU) (AG) (AG) (BG) (BU) (AU) (BG) (AG) (AU) (BU)
                 (BU) (BG) (AG) (AG) (BU) (AU) (AG) (BU) (BG) (BU)
                 (AG) (BG) (AG) (BU) (AU) (BU) (AG) (AG) (BG) (AG)
                 (BU) (AU) (BU) (AG) (AG) (BU) (AU) (BU) (BG) (AG)
                 (AU) (BU) (BG) (BU) (AU) (AG) (AG) (BU) (BG) (BG)
                 (AG) (BU) (AU) (BU) (AG) (AU) (AU) (BU) (BG) (AG)
                 (BG) (BU) (AG) (BG) (AU) (AG) (BU) (BG) (AU) (BU)
                 (AG) (AG) (AU) (AG) (BU) (BU) (BG) (AG) (AG) (AU)
                 (BU) (BU) (BG) (BG) (AG) (BU) (AU) (BU) (AG) (AU)
                 (BG) (BU) (BU) (AG) (AG) (BU) (BG) (AU) (BU) (AG)
                 (AG) (AG) (BU)
 The electronic state of the initial guess is 1-AG.
 Keep R1 ints in memory in symmetry-blocked form, NReq=76276425.
 Requested convergence on RMS density matrix=1.00D-08 within 128 cycles.
 Requested convergence on MAX density matrix=1.00D-06.
 Requested convergence on             energy=1.00D-06.
 No special actions if energy rises.
 Integral accuracy reduced to 1.0D-05 until final iterations.
 Initial convergence to 1.0D-05 achieved.  Increase integral accuracy.
 SCF Done:  E(RB3LYP) =  -227.918937230     A.U. after   11 cycles
            NFock= 11  Conv=0.44D-08     -V/T= 2.0030

 **********************************************************************

            Population analysis using the SCF Density.

 **********************************************************************

 Orbital symmetries:
       Occupied  (BU) (AG) (AG) (BU) (AG) (BU) (AG) (BU) (AG) (BU)
                 (AG) (AU) (BG) (BU) (AG)
       Virtual   (AU) (BG) (BU) (AG) (BU) (AG) (AU) (AG) (BG) (BU)
                 (AG) (BU) (BU) (BU) (AG) (BU) (BG) (BU) (AG) (AU)
                 (BU) (AG) (AG) (AG) (AU) (BG) (BU) (AG) (AU) (BU)
                 (BU) (AG) (AG) (BG) (BU) (AU) (BG) (AG) (AU) (BU)
                 (BU) (BG) (AG) (AG) (BU) (AU) (AG) (BU) (BG) (BU)
                 (AG) (AG) (BG) (BU) (AU) (BU) (AG) (AG) (BG) (AG)
                 (BU) (AU) (BU) (AG) (AG) (AU) (BU) (BU) (BG) (AG)
                 (AU) (BU) (BG) (BU) (AU) (AG) (AG) (BU) (BG) (BG)
                 (AG) (BU) (AU) (BU) (AG) (AU) (AU) (BU) (BG) (AG)
                 (BG) (BU) (AG) (BG) (AU) (AG) (BU) (BG) (AU) (BU)
                 (AG) (AG) (AU) (AG) (BU) (BU) (BG) (AG) (AG) (AU)
                 (BU) (BU) (BG) (BG) (AG) (BU) (AU) (BU) (AG) (AU)
                 (BG) (BU) (AG) (BU) (AG) (BU) (BG) (AU) (AG) (BU)
                 (AG) (AG) (BU)
 The electronic state is 1-AG.
 Alpha  occ. eigenvalues --  -19.17290 -19.17290 -10.29769 -10.29746  -1.10518
 Alpha  occ. eigenvalues --   -1.09189  -0.72076  -0.61351  -0.51597  -0.50575
 Alpha  occ. eigenvalues --   -0.47317  -0.46499  -0.41380  -0.34512  -0.28320
 Alpha virt. eigenvalues --   -0.12774  -0.00393   0.02863   0.03744   0.07955
 Alpha virt. eigenvalues --    0.12067   0.14006   0.18250   0.19550   0.21880
 Alpha virt. eigenvalues --    0.25145   0.26445   0.29752   0.32253   0.32512
 Alpha virt. eigenvalues --    0.34956   0.37374   0.42059   0.43106   0.44200
 Alpha virt. eigenvalues --    0.49782   0.51412   0.60632   0.68183   0.68299
 Alpha virt. eigenvalues --    0.77874   0.78213   0.89014   0.92262   0.94747
 Alpha virt. eigenvalues --    0.96064   1.01038   1.08364   1.09416   1.14319
 Alpha virt. eigenvalues --    1.17699   1.18811   1.20399   1.30245   1.31975
 Alpha virt. eigenvalues --    1.34867   1.36753   1.44581   1.56906   1.57004
 Alpha virt. eigenvalues --    1.61129   1.62867   1.63715   1.77855   1.79896
 Alpha virt. eigenvalues --    1.83368   1.90429   1.91271   1.97417   2.00514
 Alpha virt. eigenvalues --    2.05471   2.10904   2.23375   2.32837   2.40112
 Alpha virt. eigenvalues --    2.45147   2.48727   2.55219   2.87010   2.94852
 Alpha virt. eigenvalues --    2.95557   2.98640   3.04492   3.13489   3.21973
 Alpha virt. eigenvalues --    3.31289   3.41167   3.52064   3.52850   3.56540
 Alpha virt. eigenvalues --    3.59723   3.64997   3.79869   3.81592   3.88293
 Alpha virt. eigenvalues --    3.90012   3.90829   3.95212   3.95791   4.01181
 Alpha virt. eigenvalues --    4.02431   4.03310   4.09081   4.11212   4.13774
 Alpha virt. eigenvalues --    4.14054   4.18886   4.22161   4.28027   4.28502
 Alpha virt. eigenvalues --    4.36312   4.38740   4.39514   4.39695   4.42424
 Alpha virt. eigenvalues --    4.44505   4.55565   4.66997   4.68387   4.71242
 Alpha virt. eigenvalues --    4.84812   4.87155   4.98683   5.10272   5.17235
 Alpha virt. eigenvalues --    5.27844   5.42129   5.44634   5.49194   5.50105
 Alpha virt. eigenvalues --    5.54713   5.66294   5.75741   5.82035   6.04970
 Alpha virt. eigenvalues --    6.07837   6.08385   6.11806   6.11968   6.15335
 Alpha virt. eigenvalues --    6.31818   6.39617   6.43005   6.69305   6.74010
 Alpha virt. eigenvalues --    6.77086   7.10716   7.28751
          Condensed to atoms (all electrons):
               1          2          3          4          5          6
     1  C    4.667732   0.306049   0.375341  -0.110185   0.543804  -0.074006
     2  C    0.306049   4.667732  -0.110185   0.375341  -0.074006   0.543804
     3  H    0.375341  -0.110185   0.720427   0.015480  -0.059425   0.024570
     4  H   -0.110185   0.375341   0.015480   0.720427   0.024570  -0.059425
     5  O    0.543804  -0.074006  -0.059425   0.024570   7.885417   0.004699
     6  O   -0.074006   0.543804   0.024570  -0.059425   0.004699   7.885417
 Mulliken charges:
               1
     1  C    0.291266
     2  C    0.291266
     3  H    0.033793
     4  H    0.033793
     5  O   -0.325058
     6  O   -0.325058
 Sum of Mulliken charges =  -0.00000
 Mulliken charges with hydrogens summed into heavy atoms:
               1
     1  C    0.325058
     2  C    0.325058
     5  O   -0.325058
     6  O   -0.325058
 Electronic spatial extent (au):  <R**2>=            268.1412
 Charge=             -0.0000 electrons
 Dipole moment (field-independent basis, Debye):
    X=              0.0000    Y=             -0.0000    Z=              0.0000  Tot=              0.0000
 Quadrupole moment (field-independent basis, Debye-Ang):
   XX=            -21.3772   YY=            -31.1034   ZZ=            -21.3809
   XY=             -3.4581   XZ=              0.0000   YZ=              0.0000
 Traceless Quadrupole moment (field-independent basis, Debye-Ang):
   XX=              3.2433   YY=             -6.4829   ZZ=              3.2396
   XY=             -3.4581   XZ=              0.0000   YZ=              0.0000
 Octapole moment (field-independent basis, Debye-Ang**2):
  XXX=              0.0000  YYY=             -0.0000  ZZZ=              0.0000  XYY=             -0.0000
  XXY=             -0.0000  XXZ=              0.0000  XZZ=              0.0000  YZZ=             -0.0000
  YYZ=              0.0000  XYZ=              0.0000
 Hexadecapole moment (field-independent basis, Debye-Ang**3):
 XXXX=            -50.8602 YYYY=           -279.4438 ZZZZ=            -19.0591 XXXY=            -11.2573
 XXXZ=              0.0000 YYYX=            -12.4483 YYYZ=              0.0000 ZZZX=              0.0000
 ZZZY=              0.0000 XXYY=            -50.5394 XXZZ=            -12.4094 YYZZ=            -42.6589
 XXYZ=              0.0000 YYXZ=              0.0000 ZZXY=             -2.3150
 N-N= 1.020681264495D+02 E-N=-7.395686541697D+02  KE= 2.272372002564D+02
 Symmetry AG   KE= 1.115299573542D+02
 Symmetry BG   KE= 4.091642289318D+00
 Symmetry AU   KE= 3.301808272041D+00
 Symmetry BU   KE= 1.083137923409D+02
 Calling FoFJK, ICntrl=      2127 FMM=F ISym2X=1 I1Cent= 0 IOpClX= 0 NMat=1 NMatS=1 NMatT=0.
 ***** Axes restored to original set *****
 -------------------------------------------------------------------
 Center     Atomic                   Forces (Hartrees/Bohr)
 Number     Number              X              Y              Z
 -------------------------------------------------------------------
      1        6           0.000368322    0.000433338   -0.000000000
      2        6          -0.000368322   -0.000433338   -0.000000000
      3        1          -0.000071290   -0.000040280   -0.000000000
      4        1           0.000071290    0.000040280   -0.000000000
      5        8          -0.000208399   -0.000192670   -0.000000000
      6        8           0.000208399    0.000192670   -0.000000000
 -------------------------------------------------------------------
 Cartesian Forces:  Max     0.000433338 RMS     0.000213619

 GradGradGradGradGradGradGradGradGradGradGradGradGradGradGradGradGradGrad
 Berny optimization.
 FormGI is forming the generalized inverse of G from B-inverse, IUseBI=4.
 Internal  Forces:  Max     0.000275006 RMS     0.000126867
 Search for a local minimum.
 Step number   1 out of a maximum of   25
 All quantities printed in internal units (Hartrees-Bohrs-Radians)
 Mixed Optimization -- En-DIIS/RFO-DIIS
 Second derivative matrix not updated -- first step.
 The second derivative matrix:
                          R1        R2        R3        R4        R5
           R1           0.29932
           R2           0.00000   0.33121
           R3           0.00000   0.00000   1.04273
           R4           0.00000   0.00000   0.00000   0.33121
           R5           0.00000   0.00000   0.00000   0.00000   1.04273
           A1           0.00000   0.00000   0.00000   0.00000   0.00000
           A2           0.00000   0.00000   0.00000   0.00000   0.00000
           A3           0.00000   0.00000   0.00000   0.00000   0.00000
           A4           0.00000   0.00000   0.00000   0.00000   0.00000
           A5           0.00000   0.00000   0.00000   0.00000   0.00000
           A6           0.00000   0.00000   0.00000   0.00000   0.00000
           D1           0.00000   0.00000   0.00000   0.00000   0.00000
           D2           0.00000   0.00000   0.00000   0.00000   0.00000
           D3           0.00000   0.00000   0.00000   0.00000   0.00000
           D4           0.00000   0.00000   0.00000   0.00000   0.00000
                          A1        A2        A3        A4        A5
           A1           0.16000
           A2           0.00000   0.25000
           A3           0.00000   0.00000   0.16000
           A4           0.00000   0.00000   0.00000   0.16000
           A5           0.00000   0.00000   0.00000   0.00000   0.25000
           A6           0.00000   0.00000   0.00000   0.00000   0.00000
           D1           0.00000   0.00000   0.00000   0.00000   0.00000
           D2           0.00000   0.00000   0.00000   0.00000   0.00000
           D3           0.00000   0.00000   0.00000   0.00000   0.00000
           D4           0.00000   0.00000   0.00000   0.00000   0.00000
                          A6        D1        D2        D3        D4
           A6           0.16000
           D1           0.00000   0.00441
           D2           0.00000   0.00000   0.00441
           D3           0.00000   0.00000   0.00000   0.00441
           D4           0.00000   0.00000   0.00000   0.00000   0.00441
 ITU=  0
     Eigenvalues ---    0.00441   0.00441   0.00441   0.16000   0.16000
     Eigenvalues ---    0.22000   0.22000   0.29932   0.33121   0.33121
     Eigenvalues ---    1.04273   1.04273
 RFO step:  Lambda=-5.26252241D-07 EMin= 4.41072922D-03
 Linear search not attempted -- first point.
 Iteration  1 RMS(Cart)=  0.00029992 RMS(Int)=  0.00000007
 Iteration  2 RMS(Cart)=  0.00000010 RMS(Int)=  0.00000000
 ClnCor:  largest displacement from symmetrization is 2.05D-13 for atom     6.
 Variable       Old X    -DE/DX   Delta X   Delta X   Delta X     New X
                                 (Linear)    (Quad)   (Total)
    R1        2.88100   0.00014   0.00000   0.00048   0.00048   2.88148
    R2        2.08840   0.00007   0.00000   0.00022   0.00022   2.08862
    R3        2.26975  -0.00028   0.00000  -0.00026  -0.00026   2.26948
    R4        2.08840   0.00007   0.00000   0.00022   0.00022   2.08862
    R5        2.26975  -0.00028   0.00000  -0.00026  -0.00026   2.26948
    A1        2.00558  -0.00011   0.00000  -0.00056  -0.00056   2.00502
    A2        2.12158   0.00013   0.00000   0.00060   0.00060   2.12218
    A3        2.15603  -0.00003   0.00000  -0.00004  -0.00004   2.15598
    A4        2.00558  -0.00011   0.00000  -0.00056  -0.00056   2.00502
    A5        2.12158   0.00013   0.00000   0.00060   0.00060   2.12218
    A6        2.15603  -0.00003   0.00000  -0.00004  -0.00004   2.15598
    D1        3.14159  -0.00000   0.00000  -0.00000   0.00000   3.14159
    D2        0.00000  -0.00000   0.00000  -0.00000   0.00000   0.00000
    D3        0.00000   0.00000   0.00000  -0.00000   0.00000   0.00000
    D4        3.14159  -0.00000   0.00000   0.00000   0.00000   3.14159
         Item               Value     Threshold  Converged?
 Maximum Force            0.000275     0.000450     YES
 RMS     Force            0.000127     0.000300     YES
 Maximum Displacement     0.000515     0.001800     YES
 RMS     Displacement     0.000300     0.001200     YES
 Predicted change in Energy=-2.631261D-07
 Optimization completed.
    -- Stationary point found.
                           ----------------------------
                           !   Optimized Parameters   !
                           ! (Angstroms and Degrees)  !
 --------------------------                            --------------------------
 ! Name  Definition              Value          Derivative Info.                !
 --------------------------------------------------------------------------------
 ! R1    R(1,2)                  1.5246         -DE/DX =    0.0001              !
 ! R2    R(1,3)                  1.1051         -DE/DX =    0.0001              !
 ! R3    R(1,5)                  1.2011         -DE/DX =   -0.0003              !
 ! R4    R(2,4)                  1.1051         -DE/DX =    0.0001              !
 ! R5    R(2,6)                  1.2011         -DE/DX =   -0.0003              !
 ! A1    A(2,1,3)              114.9114         -DE/DX =   -0.0001              !
 ! A2    A(2,1,5)              121.5573         -DE/DX =    0.0001              !
 ! A3    A(3,1,5)              123.5313         -DE/DX =    0.0                 !
 ! A4    A(1,2,4)              114.9114         -DE/DX =   -0.0001              !
 ! A5    A(1,2,6)              121.5573         -DE/DX =    0.0001              !
 ! A6    A(4,2,6)              123.5313         -DE/DX =    0.0                 !
 ! D1    D(3,1,2,4)            180.0            -DE/DX =    0.0                 !
 ! D2    D(3,1,2,6)              0.0            -DE/DX =    0.0                 !
 ! D3    D(5,1,2,4)              0.0            -DE/DX =    0.0                 !
 ! D4    D(5,1,2,6)            180.0            -DE/DX =    0.0                 !
 --------------------------------------------------------------------------------
 GradGradGradGradGradGradGradGradGradGradGradGradGradGradGradGradGradGrad

                          Input orientation:                          
 ---------------------------------------------------------------------
 Center     Atomic      Atomic             Coordinates (Angstroms)
 Number     Number       Type             X           Y           Z
 ---------------------------------------------------------------------
      1          6           0       -0.327251    0.688460    0.000000
      2          6           0        0.327251   -0.688460    0.000000
      3          1           0       -1.432341    0.678582    0.000000
      4          1           0        1.432341   -0.678582    0.000000
      5          8           0        0.327251    1.695567    0.000000
      6          8           0       -0.327251   -1.695567    0.000000
 ---------------------------------------------------------------------
                    Distance matrix (angstroms):
                    1          2          3          4          5
     1  C    0.000000
     2  C    1.524559   0.000000
     3  H    1.105134   2.228221   0.000000
     4  H    2.228221   1.105134   3.169905   0.000000
     5  O    1.201098   2.384027   2.032344   2.618742   0.000000
     6  O    2.384027   1.201098   2.618742   2.032344   3.453717
                    6
     6  O    0.000000
 Stoichiometry    C2H2O2
 Framework group  C2H[SGH(C2H2O2)]
 Deg. of freedom     5
 Full point group                 C2H     NOp   4
 Largest Abelian subgroup         C2H     NOp   4
 Largest concise Abelian subgroup C2      NOp   2
                         Standard orientation:                         
 ---------------------------------------------------------------------
 Center     Atomic      Atomic             Coordinates (Angstroms)
 Number     Number       Type             X           Y           Z
 ---------------------------------------------------------------------
      1          6           0       -0.327251    0.688460    0.000000
      2          6           0        0.327251   -0.688460    0.000000
      3          1           0       -1.432341    0.678582    0.000000
      4          1           0        1.432341   -0.678582    0.000000
      5          8           0        0.327251    1.695567    0.000000
      6          8           0       -0.327251   -1.695567    0.000000
 ---------------------------------------------------------------------
 Rotational constants (GHZ):          56.1554017           4.7946638           4.4174894
 1\1\GINC-GAMBA\FOpt\RB3LYP\Gen\C2H2O2\IRIKURA\30-Sep-2023\0\\# b3lyp/g
 en opt freq CPHF(Grid=OneStep)\\glyoxal, B3LYP/pcseg-2\\0,1\C,-0.32725
 1,0.68846,0.\C,0.327251,-0.68846,0.\H,-1.432341,0.678582,0.\H,1.432341
 ,-0.678582,0.\O,0.327251,1.695567,0.\O,-0.327251,-1.695567,0.\\Version
 =ES64L-G16RevB.01\State=1-AG\HF=-227.9189372\RMSD=4.431e-09\RMSF=2.136
 e-04\Dipole=0.,0.,0.\Quadrupole=2.4112965,-4.819883,2.4085865,-2.57102
 51,0.,0.\PG=C02H [SGH(C2H2O2)]\\@


 MORNING PEOPLE ARE USUALLY ADMIRED AS EARLY BIRDS.
 RECALL BEN FRANKLIN'S APHORISM THAT THE EARLY BIRD GETS THE WORM.
 I IDENTIFY WITH THE WORM. --  CRAIG JAGGER, MINNEAPOLIS, KS.
 Job cpu time:       0 days  0 hours  0 minutes 27.0 seconds.
 Elapsed time:       0 days  0 hours  0 minutes  6.8 seconds.
 File lengths (MBytes):  RWF=     15 Int=      0 D2E=      0 Chk=      3 Scr=      1
 Normal termination of Gaussian 16 at Sat Sep 30 10:05:35 2023.
 Link1:  Proceeding to internal job step number  2.
 ------------------------------------------------------------------
 #N Geom=AllCheck Guess=TCheck SCRF=Check GenChk RB3LYP/ChkBas Freq
 ------------------------------------------------------------------
 1/10=4,29=7,30=1,38=1,40=1/1,3;
 2/12=2,40=1/2;
 3/5=7,6=2,11=2,14=-4,25=1,30=1,67=1,70=2,71=2,74=-5,82=7,116=1,140=1/1,2,3;
 4/5=101/1;
 5/5=2,38=6,98=1/2;
 8/6=4,10=90,11=11/1;
 11/6=1,8=1,9=11,15=111,16=1/1,2,10;
 10/6=1,60=-420/2;
 6/7=2,8=2,9=2,10=2,28=1/1;
 7/8=1,10=1,25=1/1,2,3,16;
 1/10=4,30=1/3;
 99//99;
 Structure from the checkpoint file:  "chocho.chk"
 ----------------------
 glyoxal, B3LYP/pcseg-2
 ----------------------
 Charge =  0 Multiplicity = 1
 Redundant internal coordinates found in file.  (old form).
 C,0,-0.327251,0.68846,0.
 C,0,0.327251,-0.68846,0.
 H,0,-1.432341,0.678582,0.
 H,0,1.432341,-0.678582,0.
 O,0,0.327251,1.695567,0.
 O,0,-0.327251,-1.695567,0.
 Recover connectivity data from disk.

 GradGradGradGradGradGradGradGradGradGradGradGradGradGradGradGradGradGrad
 Berny optimization.
 Initialization pass.
                           ----------------------------
                           !    Initial Parameters    !
                           ! (Angstroms and Degrees)  !
 --------------------------                            --------------------------
 ! Name  Definition              Value          Derivative Info.                !
 --------------------------------------------------------------------------------
 ! R1    R(1,2)                  1.5246         calculate D2E/DX2 analytically  !
 ! R2    R(1,3)                  1.1051         calculate D2E/DX2 analytically  !
 ! R3    R(1,5)                  1.2011         calculate D2E/DX2 analytically  !
 ! R4    R(2,4)                  1.1051         calculate D2E/DX2 analytically  !
 ! R5    R(2,6)                  1.2011         calculate D2E/DX2 analytically  !
 ! A1    A(2,1,3)              114.9114         calculate D2E/DX2 analytically  !
 ! A2    A(2,1,5)              121.5573         calculate D2E/DX2 analytically  !
 ! A3    A(3,1,5)              123.5313         calculate D2E/DX2 analytically  !
 ! A4    A(1,2,4)              114.9114         calculate D2E/DX2 analytically  !
 ! A5    A(1,2,6)              121.5573         calculate D2E/DX2 analytically  !
 ! A6    A(4,2,6)              123.5313         calculate D2E/DX2 analytically  !
 ! D1    D(3,1,2,4)            180.0            calculate D2E/DX2 analytically  !
 ! D2    D(3,1,2,6)              0.0            calculate D2E/DX2 analytically  !
 ! D3    D(5,1,2,4)              0.0            calculate D2E/DX2 analytically  !
 ! D4    D(5,1,2,6)            180.0            calculate D2E/DX2 analytically  !
 --------------------------------------------------------------------------------
 Trust Radius=3.00D-01 FncErr=1.00D-07 GrdErr=1.00D-07 EigMax=2.50D+02 EigMin=1.00D-04
 Number of steps in this run=      2 maximum allowed number of steps=      2.
 GradGradGradGradGradGradGradGradGradGradGradGradGradGradGradGradGradGrad

                          Input orientation:                          
 ---------------------------------------------------------------------
 Center     Atomic      Atomic             Coordinates (Angstroms)
 Number     Number       Type             X           Y           Z
 ---------------------------------------------------------------------
      1          6           0       -0.327251    0.688460    0.000000
      2          6           0        0.327251   -0.688460    0.000000
      3          1           0       -1.432341    0.678582    0.000000
      4          1           0        1.432341   -0.678582    0.000000
      5          8           0        0.327251    1.695567    0.000000
      6          8           0       -0.327251   -1.695567    0.000000
 ---------------------------------------------------------------------
                    Distance matrix (angstroms):
                    1          2          3          4          5
     1  C    0.000000
     2  C    1.524559   0.000000
     3  H    1.105134   2.228221   0.000000
     4  H    2.228221   1.105134   3.169905   0.000000
     5  O    1.201098   2.384027   2.032344   2.618742   0.000000
     6  O    2.384027   1.201098   2.618742   2.032344   3.453717
                    6
     6  O    0.000000
 Stoichiometry    C2H2O2
 Framework group  C2H[SGH(C2H2O2)]
 Deg. of freedom     5
 Full point group                 C2H     NOp   4
 Largest Abelian subgroup         C2H     NOp   4
 Largest concise Abelian subgroup C2      NOp   2
                         Standard orientation:                         
 ---------------------------------------------------------------------
 Center     Atomic      Atomic             Coordinates (Angstroms)
 Number     Number       Type             X           Y           Z
 ---------------------------------------------------------------------
      1          6           0       -0.327251    0.688460    0.000000
      2          6           0        0.327251   -0.688460    0.000000
      3          1           0       -1.432341    0.678582    0.000000
      4          1           0        1.432341   -0.678582    0.000000
      5          8           0        0.327251    1.695567    0.000000
      6          8           0       -0.327251   -1.695567    0.000000
 ---------------------------------------------------------------------
 Rotational constants (GHZ):          56.1554017           4.7946638           4.4174894
 Basis read from chk: "chocho.chk" (5D, 7F)
 There are    59 symmetry adapted cartesian basis functions of AG  symmetry.
 There are    26 symmetry adapted cartesian basis functions of BG  symmetry.
 There are    26 symmetry adapted cartesian basis functions of AU  symmetry.
 There are    59 symmetry adapted cartesian basis functions of BU  symmetry.
 There are    50 symmetry adapted basis functions of AG  symmetry.
 There are    24 symmetry adapted basis functions of BG  symmetry.
 There are    24 symmetry adapted basis functions of AU  symmetry.
 There are    50 symmetry adapted basis functions of BU  symmetry.
   148 basis functions,   240 primitive gaussians,   170 cartesian basis functions
    15 alpha electrons       15 beta electrons
       nuclear repulsion energy       102.0681264495 Hartrees.
 NAtoms=    6 NActive=    6 NUniq=    3 SFac= 4.00D+00 NAtFMM=   60 NAOKFM=F Big=F
 Integral buffers will be    131072 words long.
 Raffenetti 2 integral format.
 Two-electron integral symmetry is turned on.
 One-electron integrals computed using PRISM.
 NBasis=   148 RedAO= T EigKep=  8.32D-04  NBF=    50    24    24    50
 NBsUse=   148 1.00D-06 EigRej= -1.00D+00 NBFU=    50    24    24    50
 Initial guess from the checkpoint file:  "chocho.chk"
 B after Tr=     0.000000   -0.000000    0.000000
         Rot=    1.000000   -0.000000   -0.000000   -0.000000 Ang=   0.00 deg.
 Initial guess orbital symmetries:
       Occupied  (BU) (AG) (AG) (BU) (AG) (BU) (AG) (BU) (AG) (BU)
                 (AG) (AU) (BG) (BU) (AG)
       Virtual   (AU) (BG) (BU) (AG) (BU) (AG) (AU) (AG) (BG) (BU)
                 (AG) (BU) (BU) (BU) (AG) (BU) (BG) (BU) (AG) (AU)
                 (BU) (AG) (AG) (AG) (AU) (BG) (BU) (AG) (AU) (BU)
                 (BU) (AG) (AG) (BG) (BU) (AU) (BG) (AG) (AU) (BU)
                 (BU) (BG) (AG) (AG) (BU) (AU) (AG) (BU) (BG) (BU)
                 (AG) (AG) (BG) (BU) (AU) (BU) (AG) (AG) (BG) (AG)
                 (BU) (AU) (BU) (AG) (AG) (AU) (BU) (BU) (BG) (AG)
                 (AU) (BU) (BG) (BU) (AU) (AG) (AG) (BU) (BG) (BG)
                 (AG) (BU) (AU) (BU) (AG) (AU) (AU) (BU) (BG) (AG)
                 (BG) (BU) (AG) (BG) (AU) (AG) (BU) (BG) (AU) (BU)
                 (AG) (AG) (AU) (AG) (BU) (BU) (BG) (AG) (AG) (AU)
                 (BU) (BU) (BG) (BG) (AG) (BU) (AU) (BU) (AG) (AU)
                 (BG) (BU) (AG) (BU) (AG) (BU) (BG) (AU) (AG) (BU)
                 (AG) (AG) (BU)
 Keep R1 ints in memory in symmetry-blocked form, NReq=76276425.
 Requested convergence on RMS density matrix=1.00D-08 within 128 cycles.
 Requested convergence on MAX density matrix=1.00D-06.
 Requested convergence on             energy=1.00D-06.
 No special actions if energy rises.
 SCF Done:  E(RB3LYP) =  -227.918937230     A.U. after    1 cycles
            NFock=  1  Conv=0.10D-08     -V/T= 2.0030
 DoSCS=F DFT=T ScalE2(SS,OS)=  1.000000  1.000000
 Range of M.O.s used for correlation:     1   148
 NBasis=   148 NAE=    15 NBE=    15 NFC=     0 NFV=     0
 NROrb=    148 NOA=    15 NOB=    15 NVA=   133 NVB=   133
 Symmetrizing basis deriv contribution to polar:
 IMax=3 JMax=2 DiffMx= 0.00D+00
 G2DrvN: will do     7 centers at a time, making    1 passes.
 Calling FoFCou, ICntrl=  3107 FMM=F I1Cent=   0 AccDes= 0.00D+00.
 End of G2Drv F.D. properties file   721 does not exist.
 End of G2Drv F.D. properties file   722 does not exist.
 End of G2Drv F.D. properties file   788 does not exist.
          IDoAtm=111111
          Differentiating once with respect to electric field.
                with respect to dipole field.
          Differentiating once with respect to nuclear coordinates.
 Keep R1 ints in memory in symmetry-blocked form, NReq=76280280.
          There are    12 degrees of freedom in the 1st order CPHF.  IDoFFX=4 NUNeed=    12.
     12 vectors produced by pass  0 Test12= 1.66D-14 8.33D-09 XBig12= 3.26D+01 4.21D+00.
 AX will form    12 AO Fock derivatives at one time.
     12 vectors produced by pass  1 Test12= 1.66D-14 8.33D-09 XBig12= 6.28D+00 6.84D-01.
     12 vectors produced by pass  2 Test12= 1.66D-14 8.33D-09 XBig12= 2.99D-01 1.50D-01.
     12 vectors produced by pass  3 Test12= 1.66D-14 8.33D-09 XBig12= 3.86D-03 1.58D-02.
     12 vectors produced by pass  4 Test12= 1.66D-14 8.33D-09 XBig12= 2.84D-05 1.17D-03.
     12 vectors produced by pass  5 Test12= 1.66D-14 8.33D-09 XBig12= 6.72D-08 6.50D-05.
      7 vectors produced by pass  6 Test12= 1.66D-14 8.33D-09 XBig12= 1.21D-10 1.91D-06.
      3 vectors produced by pass  7 Test12= 1.66D-14 8.33D-09 XBig12= 2.04D-13 6.44D-08.
 InvSVY:  IOpt=1 It=  1 EMax= 5.33D-15
 Solved reduced A of dimension    82 with    12 vectors.
 Isotropic polarizability for W=    0.000000       29.44 Bohr**3.
 End of Minotr F.D. properties file   721 does not exist.
 End of Minotr F.D. properties file   722 does not exist.
 End of Minotr F.D. properties file   788 does not exist.

 **********************************************************************

            Population analysis using the SCF Density.

 **********************************************************************

 Orbital symmetries:
       Occupied  (BU) (AG) (AG) (BU) (AG) (BU) (AG) (BU) (AG) (BU)
                 (AG) (AU) (BG) (BU) (AG)
       Virtual   (AU) (BG) (BU) (AG) (BU) (AG) (AU) (AG) (BG) (BU)
                 (AG) (BU) (BU) (BU) (AG) (BU) (BG) (BU) (AG) (AU)
                 (BU) (AG) (AG) (AG) (AU) (BG) (BU) (AG) (AU) (BU)
                 (BU) (AG) (AG) (BG) (BU) (AU) (BG) (AG) (AU) (BU)
                 (BU) (BG) (AG) (AG) (BU) (AU) (AG) (BU) (BG) (BU)
                 (AG) (AG) (BG) (BU) (AU) (BU) (AG) (AG) (BG) (AG)
                 (BU) (AU) (BU) (AG) (AG) (AU) (BU) (BU) (BG) (AG)
                 (AU) (BU) (BG) (BU) (AU) (AG) (AG) (BU) (BG) (BG)
                 (AG) (BU) (AU) (BU) (AG) (AU) (AU) (BU) (BG) (AG)
                 (BG) (BU) (AG) (BG) (AU) (AG) (BU) (BG) (AU) (BU)
                 (AG) (AG) (AU) (AG) (BU) (BU) (BG) (AG) (AG) (AU)
                 (BU) (BU) (BG) (BG) (AG) (BU) (AU) (BU) (AG) (AU)
                 (BG) (BU) (AG) (BU) (AG) (BU) (BG) (AU) (AG) (BU)
                 (AG) (AG) (BU)
 The electronic state is 1-AG.
 Alpha  occ. eigenvalues --  -19.17290 -19.17290 -10.29769 -10.29746  -1.10518
 Alpha  occ. eigenvalues --   -1.09189  -0.72076  -0.61351  -0.51597  -0.50575
 Alpha  occ. eigenvalues --   -0.47317  -0.46499  -0.41380  -0.34512  -0.28320
 Alpha virt. eigenvalues --   -0.12774  -0.00393   0.02863   0.03744   0.07955
 Alpha virt. eigenvalues --    0.12067   0.14006   0.18250   0.19550   0.21880
 Alpha virt. eigenvalues --    0.25145   0.26445   0.29752   0.32253   0.32512
 Alpha virt. eigenvalues --    0.34956   0.37374   0.42059   0.43106   0.44200
 Alpha virt. eigenvalues --    0.49782   0.51412   0.60632   0.68183   0.68299
 Alpha virt. eigenvalues --    0.77874   0.78213   0.89014   0.92262   0.94747
 Alpha virt. eigenvalues --    0.96064   1.01038   1.08364   1.09416   1.14319
 Alpha virt. eigenvalues --    1.17699   1.18811   1.20399   1.30245   1.31975
 Alpha virt. eigenvalues --    1.34867   1.36753   1.44581   1.56906   1.57004
 Alpha virt. eigenvalues --    1.61129   1.62867   1.63715   1.77855   1.79896
 Alpha virt. eigenvalues --    1.83368   1.90429   1.91271   1.97417   2.00514
 Alpha virt. eigenvalues --    2.05471   2.10904   2.23375   2.32837   2.40112
 Alpha virt. eigenvalues --    2.45147   2.48727   2.55219   2.87010   2.94852
 Alpha virt. eigenvalues --    2.95557   2.98640   3.04492   3.13489   3.21973
 Alpha virt. eigenvalues --    3.31289   3.41167   3.52064   3.52850   3.56540
 Alpha virt. eigenvalues --    3.59723   3.64997   3.79869   3.81592   3.88293
 Alpha virt. eigenvalues --    3.90012   3.90829   3.95212   3.95791   4.01181
 Alpha virt. eigenvalues --    4.02431   4.03310   4.09081   4.11212   4.13774
 Alpha virt. eigenvalues --    4.14054   4.18886   4.22161   4.28027   4.28502
 Alpha virt. eigenvalues --    4.36312   4.38740   4.39514   4.39695   4.42424
 Alpha virt. eigenvalues --    4.44505   4.55565   4.66997   4.68387   4.71242
 Alpha virt. eigenvalues --    4.84812   4.87155   4.98683   5.10272   5.17235
 Alpha virt. eigenvalues --    5.27844   5.42129   5.44634   5.49194   5.50105
 Alpha virt. eigenvalues --    5.54713   5.66294   5.75741   5.82035   6.04970
 Alpha virt. eigenvalues --    6.07837   6.08385   6.11806   6.11968   6.15335
 Alpha virt. eigenvalues --    6.31818   6.39617   6.43005   6.69305   6.74010
 Alpha virt. eigenvalues --    6.77086   7.10716   7.28751
          Condensed to atoms (all electrons):
               1          2          3          4          5          6
     1  C    4.667731   0.306049   0.375341  -0.110185   0.543804  -0.074006
     2  C    0.306049   4.667731  -0.110185   0.375341  -0.074006   0.543804
     3  H    0.375341  -0.110185   0.720427   0.015480  -0.059425   0.024570
     4  H   -0.110185   0.375341   0.015480   0.720427   0.024570  -0.059425
     5  O    0.543804  -0.074006  -0.059425   0.024570   7.885417   0.004699
     6  O   -0.074006   0.543804   0.024570  -0.059425   0.004699   7.885417
 Mulliken charges:
               1
     1  C    0.291266
     2  C    0.291266
     3  H    0.033792
     4  H    0.033792
     5  O   -0.325059
     6  O   -0.325059
 Sum of Mulliken charges =  -0.00000
 Mulliken charges with hydrogens summed into heavy atoms:
               1
     1  C    0.325059
     2  C    0.325059
     5  O   -0.325059
     6  O   -0.325059
 APT charges:
               1
     1  C    0.600627
     2  C    0.600627
     3  H   -0.044027
     4  H   -0.044027
     5  O   -0.556599
     6  O   -0.556599
 Sum of APT charges =  -0.00000
 APT charges with hydrogens summed into heavy atoms:
               1
     1  C    0.556599
     2  C    0.556599
     5  O   -0.556599
     6  O   -0.556599
 Electronic spatial extent (au):  <R**2>=            268.1412
 Charge=             -0.0000 electrons
 Dipole moment (field-independent basis, Debye):
    X=              0.0000    Y=             -0.0000    Z=              0.0000  Tot=              0.0000
 Quadrupole moment (field-independent basis, Debye-Ang):
   XX=            -21.3772   YY=            -31.1034   ZZ=            -21.3809
   XY=             -3.4581   XZ=              0.0000   YZ=              0.0000
 Traceless Quadrupole moment (field-independent basis, Debye-Ang):
   XX=              3.2433   YY=             -6.4829   ZZ=              3.2396
   XY=             -3.4581   XZ=              0.0000   YZ=              0.0000
 Octapole moment (field-independent basis, Debye-Ang**2):
  XXX=              0.0000  YYY=              0.0000  ZZZ=              0.0000  XYY=             -0.0000
  XXY=             -0.0000  XXZ=              0.0000  XZZ=              0.0000  YZZ=              0.0000
  YYZ=              0.0000  XYZ=              0.0000
 Hexadecapole moment (field-independent basis, Debye-Ang**3):
 XXXX=            -50.8602 YYYY=           -279.4438 ZZZZ=            -19.0591 XXXY=            -11.2573
 XXXZ=              0.0000 YYYX=            -12.4483 YYYZ=              0.0000 ZZZX=              0.0000
 ZZZY=              0.0000 XXYY=            -50.5394 XXZZ=            -12.4094 YYZZ=            -42.6589
 XXYZ=              0.0000 YYXZ=              0.0000 ZZXY=             -2.3150
 N-N= 1.020681264495D+02 E-N=-7.395686536326D+02  KE= 2.272372003350D+02
 Symmetry AG   KE= 1.115299573039D+02
 Symmetry BG   KE= 4.091642334539D+00
 Symmetry AU   KE= 3.301808380560D+00
 Symmetry BU   KE= 1.083137923160D+02
  Exact polarizability:  31.939   4.364  38.739   0.000   0.000  17.657
 Approx polarizability:  44.897  14.352  60.281  -0.000  -0.000  25.085
 Calling FoFJK, ICntrl=    100127 FMM=F ISym2X=1 I1Cent= 0 IOpClX= 0 NMat=1 NMatS=1 NMatT=0.
 Full mass-weighted force constant matrix:
 Low frequencies ---   -6.4478   -0.0015   -0.0010   -0.0001    6.2601   16.2150
 Low frequencies ---  127.5967  340.5006  552.1888
 Diagonal vibrational polarizability:
        8.6819271       5.7139624      58.0255745
 Harmonic frequencies (cm**-1), IR intensities (KM/Mole), Raman scattering
 activities (A**4/AMU), depolarization ratios for plane and unpolarized
 incident light, reduced masses (AMU), force constants (mDyne/A),
 and normal coordinates:
                      1                      2                      3
                     AU                     BU                     AG
 Frequencies --    127.5967               340.5006               552.1888
 Red. masses --      4.4954                 4.3288                 9.5462
 Frc consts  --      0.0431                 0.2957                 1.7150
 IR Inten    --     35.0749                52.1962                 0.0000
  Atom  AN      X      Y      Z        X      Y      Z        X      Y      Z
     1   6    -0.00   0.00  -0.28     0.24  -0.13  -0.00     0.13   0.31  -0.00
     2   6    -0.00   0.00  -0.28     0.24  -0.13   0.00    -0.13  -0.31  -0.00
     3   1    -0.00   0.00  -0.60     0.23  -0.56  -0.00     0.12   0.41   0.00
     4   1    -0.00   0.00  -0.60     0.23  -0.56  -0.00    -0.12  -0.41   0.00
     5   8     0.00  -0.00   0.25    -0.19   0.14   0.00    -0.02   0.45   0.00
     6   8     0.00  -0.00   0.25    -0.19   0.14   0.00     0.02  -0.45   0.00
                      4                      5                      6
                     AU                     AG                     BG
 Frequencies --    813.9229              1061.9872              1078.9412
 Red. masses --      1.2312                 4.8560                 1.8851
 Frc consts  --      0.4806                 3.2267                 1.2930
 IR Inten    --      1.2132                 0.0000                 0.0000
  Atom  AN      X      Y      Z        X      Y      Z        X      Y      Z
     1   6    -0.00   0.00  -0.10     0.34  -0.23  -0.00    -0.00  -0.00  -0.19
     2   6     0.00  -0.00  -0.10    -0.34   0.23  -0.00    -0.00  -0.00   0.19
     3   1    -0.00  -0.00   0.70     0.36  -0.44   0.00     0.00   0.00   0.68
     4   1     0.00  -0.00   0.70    -0.36   0.44   0.00     0.00   0.00  -0.68
     5   8    -0.00   0.00   0.03    -0.04   0.07  -0.00     0.00  -0.00   0.04
     6   8    -0.00   0.00   0.03     0.04  -0.07  -0.00     0.00  -0.00  -0.04
                      7                      8                      9
                     BU                     AG                     BU
 Frequencies --   1340.4052              1381.2638              1796.5330
 Red. masses --      1.2001                 1.2053                11.4225
 Frc consts  --      1.2704                 1.3549                21.7212
 IR Inten    --      7.7616                 0.0000               210.1898
  Atom  AN      X      Y      Z        X      Y      Z        X      Y      Z
     1   6     0.05  -0.06   0.00     0.05  -0.04   0.00     0.25   0.45  -0.00
     2   6     0.05  -0.06  -0.00    -0.05   0.04  -0.00     0.25   0.45   0.00
     3   1     0.07   0.70   0.00     0.06   0.70  -0.00     0.28  -0.03   0.00
     4   1     0.07   0.70   0.00    -0.06  -0.70   0.00     0.28  -0.03  -0.00
     5   8    -0.04  -0.00  -0.00    -0.05  -0.03   0.00    -0.21  -0.33  -0.00
     6   8    -0.04  -0.00   0.00     0.05   0.03   0.00    -0.21  -0.33  -0.00
                     10                     11                     12
                     AG                     BU                     AG
 Frequencies --   1797.9444              2940.9251              2944.4873
 Red. masses --      9.1238                 1.0899                 1.0869
 Frc consts  --     17.3771                 5.5540                 5.5523
 IR Inten    --      0.0000               132.3165                 0.0000
  Atom  AN      X      Y      Z        X      Y      Z        X      Y      Z
     1   6     0.26   0.41  -0.00    -0.06  -0.00  -0.00    -0.06   0.01   0.00
     2   6    -0.26  -0.41  -0.00    -0.06  -0.00  -0.00     0.06  -0.01   0.00
     3   1     0.20  -0.36   0.00     0.70  -0.01   0.00     0.70  -0.01  -0.00
     4   1    -0.20   0.36   0.00     0.70  -0.01   0.00    -0.70   0.01  -0.00
     5   8    -0.17  -0.26  -0.00     0.00   0.00  -0.00    -0.00  -0.00  -0.00
     6   8     0.17   0.26  -0.00     0.00   0.00  -0.00     0.00   0.00  -0.00

 -------------------
 - Thermochemistry -
 -------------------
 Temperature   298.150 Kelvin.  Pressure   1.00000 Atm.
 Atom     1 has atomic number  6 and mass  12.00000
 Atom     2 has atomic number  6 and mass  12.00000
 Atom     3 has atomic number  1 and mass   1.00783
 Atom     4 has atomic number  1 and mass   1.00783
 Atom     5 has atomic number  8 and mass  15.99491
 Atom     6 has atomic number  8 and mass  15.99491
 Molecular mass:    58.00548 amu.
 Principal axes and moments of inertia in atomic units:
                           1         2         3
     Eigenvalues --    32.13834 376.40621 408.54454
           X            0.10835   0.99411   0.00000
           Y            0.99411  -0.10835   0.00000
           Z            0.00000  -0.00000   1.00000
 This molecule is an asymmetric top.
 Rotational symmetry number  2.
 Rotational temperatures (Kelvin)      2.69503     0.23011     0.21201
 Rotational constants (GHZ):          56.15540     4.79466     4.41749
 Zero-point vibrational energy      96758.1 (Joules/Mol)
                                   23.12575 (Kcal/Mol)
 Warning -- explicit consideration of   3 degrees of freedom as
           vibrations may cause significant error
 Vibrational temperatures:    183.58   489.90   794.48  1171.05  1527.96
          (Kelvin)           1552.36  1928.54  1987.33  2584.81  2586.84
                             4231.34  4236.46
 
 Zero-point correction=                           0.036853 (Hartree/Particle)
 Thermal correction to Energy=                    0.041080
 Thermal correction to Enthalpy=                  0.042024
 Thermal correction to Gibbs Free Energy=         0.011163
 Sum of electronic and zero-point Energies=           -227.882084
 Sum of electronic and thermal Energies=              -227.877857
 Sum of electronic and thermal Enthalpies=            -227.876913
 Sum of electronic and thermal Free Energies=         -227.907774
 
                     E (Thermal)             CV                S
                      KCal/Mol        Cal/Mol-Kelvin    Cal/Mol-Kelvin
 Total                   25.778             12.151             64.952
 Electronic               0.000              0.000              0.000
 Translational            0.889              2.981             38.095
 Rotational               0.889              2.981             21.740
 Vibrational             24.001              6.190              5.118
 Vibration     1          0.611              1.926              2.982
 Vibration     2          0.720              1.595              1.210
 Vibration     3          0.908              1.135              0.540
                       Q            Log10(Q)             Ln(Q)
 Total Bot       0.733274D-05         -5.134734        -11.823161
 Total V=0       0.655478D+12         11.816558         27.208631
 Vib (Bot)       0.335609D-16        -16.474166        -37.933170
 Vib (Bot)    1  0.159868D+01          0.203763          0.469181
 Vib (Bot)    2  0.545156D+00         -0.263479         -0.606683
 Vib (Bot)    3  0.283603D+00         -0.547289         -1.260180
 Vib (V=0)       0.300003D+01          0.477126          1.098622
 Vib (V=0)    1  0.217505D+01          0.337469          0.777051
 Vib (V=0)    2  0.123973D+01          0.093326          0.214891
 Vib (V=0)    3  0.107483D+01          0.031340          0.072163
 Electronic      0.100000D+01          0.000000          0.000000
 Translational   0.173643D+08          7.239657         16.669927
 Rotational      0.125827D+05          4.099775          9.440082
 ***** Axes restored to original set *****
 -------------------------------------------------------------------
 Center     Atomic                   Forces (Hartrees/Bohr)
 Number     Number              X              Y              Z
 -------------------------------------------------------------------
      1        6           0.000368343    0.000433312   -0.000000000
      2        6          -0.000368343   -0.000433312   -0.000000000
      3        1          -0.000071278   -0.000040274   -0.000000000
      4        1           0.000071278    0.000040274   -0.000000000
      5        8          -0.000208414   -0.000192686   -0.000000000
      6        8           0.000208414    0.000192686   -0.000000000
 -------------------------------------------------------------------
 Cartesian Forces:  Max     0.000433312 RMS     0.000213620
 FormGI is forming the generalized inverse of G from B-inverse, IUseBI=4.

 GradGradGradGradGradGradGradGradGradGradGradGradGradGradGradGradGradGrad
 Berny optimization.
 Internal  Forces:  Max     0.000275029 RMS     0.000126870
 Search for a local minimum.
 Step number   1 out of a maximum of    2
 All quantities printed in internal units (Hartrees-Bohrs-Radians)
 Second derivative matrix not updated -- analytic derivatives used.
 The second derivative matrix:
                          R1        R2        R3        R4        R5
           R1           0.22506
           R2           0.00216   0.30654
           R3           0.05203   0.03429   0.86271
           R4           0.00216   0.00151   0.00676   0.30654
           R5           0.05203   0.00676   0.00144   0.03429   0.86271
           A1           0.00852   0.01046  -0.04079   0.00395  -0.00742
           A2           0.00654  -0.01110   0.02538  -0.00379   0.01586
           A3          -0.01507   0.00064   0.01541  -0.00016  -0.00844
           A4           0.00852   0.00395  -0.00742   0.01046  -0.04079
           A5           0.00654  -0.00379   0.01586  -0.01110   0.02538
           A6          -0.01507  -0.00016  -0.00844   0.00064   0.01541
           D1           0.00000  -0.00000   0.00000   0.00000   0.00000
           D2          -0.00000  -0.00000   0.00000   0.00000  -0.00000
           D3           0.00000   0.00000  -0.00000  -0.00000   0.00000
           D4          -0.00000   0.00000   0.00000  -0.00000  -0.00000
                          A1        A2        A3        A4        A5
           A1           0.08819
           A2          -0.05343   0.13147
           A3          -0.03477  -0.07804   0.11281
           A4           0.02801  -0.03187   0.00386   0.08819
           A5          -0.03187   0.03772  -0.00585  -0.05343   0.13147
           A6           0.00386  -0.00585   0.00199  -0.03477  -0.07804
           D1          -0.00000   0.00000  -0.00000   0.00000  -0.00000
           D2           0.00000  -0.00000   0.00000  -0.00000   0.00000
           D3          -0.00000   0.00000  -0.00000   0.00000  -0.00000
           D4           0.00000  -0.00000   0.00000  -0.00000   0.00000
                          A6        D1        D2        D3        D4
           A6           0.11281
           D1           0.00000   0.03027
           D2          -0.00000   0.00271   0.04022
           D3           0.00000   0.00271  -0.03834   0.04022
           D4          -0.00000  -0.02484  -0.00083  -0.00083   0.02318
 ITU=  0
     Eigenvalues ---    0.00324   0.05208   0.07855   0.08536   0.13432
     Eigenvalues ---    0.17649   0.22406   0.24447   0.30429   0.31341
     Eigenvalues ---    0.86492   0.88120
 Angle between quadratic step and forces=  34.32 degrees.
 Linear search not attempted -- first point.
 Iteration  1 RMS(Cart)=  0.00033590 RMS(Int)=  0.00000011
 Iteration  2 RMS(Cart)=  0.00000016 RMS(Int)=  0.00000000
 ClnCor:  largest displacement from symmetrization is 4.68D-13 for atom     6.
 Variable       Old X    -DE/DX   Delta X   Delta X   Delta X     New X
                                 (Linear)    (Quad)   (Total)
    R1        2.88100   0.00014   0.00000   0.00088   0.00088   2.88188
    R2        2.08840   0.00007   0.00000   0.00035   0.00035   2.08875
    R3        2.26975  -0.00028   0.00000  -0.00046  -0.00046   2.26929
    R4        2.08840   0.00007   0.00000   0.00035   0.00035   2.08875
    R5        2.26975  -0.00028   0.00000  -0.00046  -0.00046   2.26929
    A1        2.00558  -0.00011   0.00000  -0.00075  -0.00075   2.00483
    A2        2.12158   0.00013   0.00000   0.00059   0.00059   2.12217
    A3        2.15603  -0.00003   0.00000   0.00015   0.00015   2.15618
    A4        2.00558  -0.00011   0.00000  -0.00075  -0.00075   2.00483
    A5        2.12158   0.00013   0.00000   0.00059   0.00059   2.12217
    A6        2.15603  -0.00003   0.00000   0.00015   0.00015   2.15618
    D1        3.14159  -0.00000   0.00000  -0.00000   0.00000   3.14159
    D2        0.00000  -0.00000   0.00000  -0.00000   0.00000   0.00000
    D3        0.00000   0.00000   0.00000  -0.00000   0.00000   0.00000
    D4        3.14159   0.00000   0.00000  -0.00000   0.00000   3.14159
         Item               Value     Threshold  Converged?
 Maximum Force            0.000275     0.000450     YES
 RMS     Force            0.000127     0.000300     YES
 Maximum Displacement     0.000664     0.001800     YES
 RMS     Displacement     0.000336     0.001200     YES
 Predicted change in Energy=-3.694491D-07
 Optimization completed.
    -- Stationary point found.
                           ----------------------------
                           !   Optimized Parameters   !
                           ! (Angstroms and Degrees)  !
 --------------------------                            --------------------------
 ! Name  Definition              Value          Derivative Info.                !
 --------------------------------------------------------------------------------
 ! R1    R(1,2)                  1.5246         -DE/DX =    0.0001              !
 ! R2    R(1,3)                  1.1051         -DE/DX =    0.0001              !
 ! R3    R(1,5)                  1.2011         -DE/DX =   -0.0003              !
 ! R4    R(2,4)                  1.1051         -DE/DX =    0.0001              !
 ! R5    R(2,6)                  1.2011         -DE/DX =   -0.0003              !
 ! A1    A(2,1,3)              114.9114         -DE/DX =   -0.0001              !
 ! A2    A(2,1,5)              121.5573         -DE/DX =    0.0001              !
 ! A3    A(3,1,5)              123.5313         -DE/DX =    0.0                 !
 ! A4    A(1,2,4)              114.9114         -DE/DX =   -0.0001              !
 ! A5    A(1,2,6)              121.5573         -DE/DX =    0.0001              !
 ! A6    A(4,2,6)              123.5313         -DE/DX =    0.0                 !
 ! D1    D(3,1,2,4)            180.0            -DE/DX =    0.0                 !
 ! D2    D(3,1,2,6)              0.0            -DE/DX =    0.0                 !
 ! D3    D(5,1,2,4)              0.0            -DE/DX =    0.0                 !
 ! D4    D(5,1,2,6)            180.0            -DE/DX =    0.0                 !
 --------------------------------------------------------------------------------
 GradGradGradGradGradGradGradGradGradGradGradGradGradGradGradGradGradGrad

 Dipole is zero, so no output in dipole orientation.

 ----------------------------------------------------------------------

 Electric dipole moment (input orientation):
 (Debye = 10**-18 statcoulomb cm , SI units = C m)
                  (au)            (Debye)         (10**-30 SI)
   Tot        0.000000D+00      0.000000D+00      0.000000D+00
   x          0.000000D+00      0.000000D+00      0.000000D+00
   y          0.000000D+00      0.000000D+00      0.000000D+00
   z          0.000000D+00      0.000000D+00      0.000000D+00

 Dipole polarizability, Alpha (input orientation).
 (esu units = cm**3 , SI units = C**2 m**2 J**-1)
 Alpha(0;0):
               (au)            (10**-24 esu)      (10**-40 SI)
   iso        0.294450D+02      0.436330D+01      0.485482D+01
   aniso      0.201111D+02      0.298015D+01      0.331587D+01
   xx         0.319385D+02      0.473280D+01      0.526595D+01
   yx         0.436422D+01      0.646711D+00      0.719563D+00
   yy         0.387391D+02      0.574054D+01      0.638721D+01
   zx         0.000000D+00      0.000000D+00      0.000000D+00
   zy         0.000000D+00      0.000000D+00      0.000000D+00
[...]
 ---------------------------------------------------------------------
 Center     Atomic      Atomic             Coordinates (Angstroms)
 Number     Number       Type             X           Y           Z
 ---------------------------------------------------------------------
      1          6           0       -0.327251    0.688460    0.000000
      2          6           0        0.327251   -0.688460    0.000000
      3          1           0       -1.432341    0.678582    0.000000
      4          1           0        1.432341   -0.678582    0.000000
      5          8           0        0.327251    1.695567    0.000000
      6          8           0       -0.327251   -1.695567    0.000000
 ---------------------------------------------------------------------
                    Distance matrix (angstroms):
                    1          2          3          4          5
     1  C    0.000000
     2  C    1.524559   0.000000
     3  H    1.105134   2.228221   0.000000
     4  H    2.228221   1.105134   3.169905   0.000000
     5  O    1.201098   2.384027   2.032344   2.618742   0.000000
     6  O    2.384027   1.201098   2.618742   2.032344   3.453717
                    6
     6  O    0.000000
 Stoichiometry    C2H2O2
 Framework group  C2H[SGH(C2H2O2)]
 Deg. of freedom     5
 Full point group                 C2H     NOp   4
 Largest Abelian subgroup         C2H     NOp   4
 Largest concise Abelian subgroup C2      NOp   2
                         Standard orientation:                         
 ---------------------------------------------------------------------
 Center     Atomic      Atomic             Coordinates (Angstroms)
 Number     Number       Type             X           Y           Z
 ---------------------------------------------------------------------
      1          6           0       -0.327251    0.688460    0.000000
      2          6           0        0.327251   -0.688460    0.000000
      3          1           0       -1.432341    0.678582    0.000000
      4          1           0        1.432341   -0.678582    0.000000
      5          8           0        0.327251    1.695567    0.000000
      6          8           0       -0.327251   -1.695567    0.000000
 ---------------------------------------------------------------------
 Rotational constants (GHZ):          56.1554017           4.7946638           4.4174894
 General basis read from cards:  (5D, 7F)
 There are    98 symmetry adapted cartesian basis functions of AG  symmetry.
 There are    45 symmetry adapted cartesian basis functions of BG  symmetry.
 There are    45 symmetry adapted cartesian basis functions of AU  symmetry.
 There are    98 symmetry adapted cartesian basis functions of BU  symmetry.
 There are    83 symmetry adapted basis functions of AG  symmetry.
 There are    41 symmetry adapted basis functions of BG  symmetry.
 There are    41 symmetry adapted basis functions of AU  symmetry.
 There are    83 symmetry adapted basis functions of BU  symmetry.
   248 basis functions,   354 primitive gaussians,   286 cartesian basis functions
    15 alpha electrons       15 beta electrons
       nuclear repulsion energy       102.0681264495 Hartrees.
 NAtoms=    6 NActive=    6 NUniq=    3 SFac= 4.00D+00 NAtFMM=   60 NAOKFM=F Big=F
 Integral buffers will be    131072 words long.
 Raffenetti 2 integral format.
 Two-electron integral symmetry is turned on.
 One-electron integrals computed using PRISM.
 NBasis=   248 RedAO= T EigKep=  1.32D-04  NBF=    83    41    41    83
 NBsUse=   248 1.00D-06 EigRej= -1.00D+00 NBFU=    83    41    41    83
 Initial guess from the checkpoint file:  "chocho.chk"
 B after Tr=     0.000000    0.000000    0.000000
         Rot=    1.000000    0.000000   -0.000000   -0.000000 Ang=   0.00 deg.
 Initial guess orbital symmetries:
       Occupied  (BU) (AG) (AG) (BU) (AG) (BU) (AG) (BU) (AG) (BU)
                 (AG) (AU) (BG) (BU) (AG)
       Virtual   (AU) (BG) (BU) (AG) (BU) (AG) (AU) (AG) (BG) (BU)
                 (AG) (BU) (BU) (BU) (AG) (BU) (BG) (BU) (AG) (AU)
                 (BU) (AG) (AG) (AG) (AU) (BG) (BU) (AG) (AU) (BU)
                 (BU) (AG) (AG) (BG) (BU) (AU) (BG) (AG) (AU) (BU)
                 (BU) (BG) (AG) (AG) (BU) (AU) (AG) (BU) (BG) (BU)
                 (AG) (AG) (BG) (BU) (AU) (BU) (AG) (AG) (BG) (AG)
                 (BU) (AU) (BU) (AG) (AG) (AU) (BU) (BU) (BG) (AG)
                 (AU) (BU) (BG) (BU) (AU) (AG) (AG) (BU) (BG) (BG)
                 (AG) (BU) (AU) (BU) (AG) (AU) (AU) (BU) (BG) (AG)
                 (BG) (BU) (AG) (BG) (AU) (AG) (BU) (BG) (AU) (BU)
                 (AG) (AG) (AU) (AG) (BU) (BU) (BG) (AG) (AG) (AU)
                 (BU) (BU) (BG) (BG) (AG) (BU) (AU) (BU) (AG) (AU)
                 (BG) (BU) (AG) (BU) (AG) (BU) (BG) (AU) (AG) (BU)
                 (AG) (AG) (BU) (AG) (AG) (AG) (AG) (AG) (AG) (AG)
                 (AG) (AG) (AG) (AG) (AG) (AG) (AG) (AG) (AG) (AG)
                 (AG) (AG) (AG) (AG) (AG) (AG) (AG) (AG) (AG) (AG)
                 (AG) (AG) (AG) (AG) (AG) (AG) (BG) (BG) (BG) (BG)
                 (BG) (BG) (BG) (BG) (BG) (BG) (BG) (BG) (BG) (BG)
                 (BG) (BG) (BG) (AU) (AU) (AU) (AU) (AU) (AU) (AU)
                 (AU) (AU) (AU) (AU) (AU) (AU) (AU) (AU) (AU) (AU)
                 (BU) (BU) (BU) (BU) (BU) (BU) (BU) (BU) (BU) (BU)
                 (BU) (BU) (BU) (BU) (BU) (BU) (BU) (BU) (BU) (BU)
                 (BU) (BU) (BU) (BU) (BU) (BU) (BU) (BU) (BU) (BU)
                 (BU) (BU) (BU)
 Requested convergence on RMS density matrix=1.00D-08 within 128 cycles.
 Requested convergence on MAX density matrix=1.00D-06.
 Requested convergence on             energy=1.00D-06.
 No special actions if energy rises.
 SCF Done:  E(ROHF) =  -226.693876619     A.U. after   11 cycles
            NFock= 11  Conv=0.24D-08     -V/T= 2.0013
 <Sx>= 0.0000 <Sy>= 0.0000 <Sz>= 0.0000 <S**2>=-0.0000 S=-0.0000
 <L.S>=  0.00000000000    
 Annihilation of the first spin contaminant:
 S**2 before annihilation    -0.0000,   after    -0.0000

 **********************************************************************

            Population analysis using the SCF Density.

 **********************************************************************

 Orbital symmetries:
       Occupied  (AG) (BU) (AG) (BU) (AG) (BU) (AG) (BU) (BU) (AG)
                 (AG) (AU) (BG) (BU) (AG)
       Virtual   (AU) (BU) (AG) (BU) (AU) (BG) (AG) (AG) (BG) (AG)
                 (BU) (BU) (BU) (AU) (BG) (BU) (AG) (AG) (BU) (AG)
                 (BU) (AG) (AU) (BG) (BU) (AG) (BU) (AU) (BU) (AG)
                 (BG) (BU) (AG) (AG) (BU) (BU) (AU) (AG) (BG) (AG)
                 (AU) (BU) (AG) (BU) (BG) (BU) (AG) (AG) (BU) (BG)
                 (AU) (AG) (BU) (BU) (AU) (AG) (BU) (AG) (BG) (AG)
                 (AU) (BG) (BU) (AU) (AG) (BU) (AG) (AG) (BG) (AU)
                 (BG) (BU) (BU) (AG) (AU) (AG) (BG) (BU) (BU) (AG)
                 (AU) (BU) (BU) (AG) (BG) (BU) (AU) (AG) (AG) (BG)
                 (BU) (AU) (BG) (AU) (AG) (BG) (BU) (BU) (AG) (BU)
                 (AG) (BG) (AU) (BU) (AU) (AG) (BU) (AG) (BG) (AG)
                 (BG) (BU) (AG) (BU) (AU) (BG) (AU) (BU) (AG) (AU)
                 (AG) (BG) (BU) (AG) (BU) (AG) (AG) (BU) (BU) (AG)
                 (AU) (BG) (AG) (BU) (BU) (AU) (BG) (AG) (BG) (BU)
                 (AG) (AU) (BU) (AG) (BU) (AU) (AG) (BU) (BG) (AG)
                 (AU) (BU) (BG) (AG) (BU) (AU) (BU) (BG) (AG) (BU)
                 (AU) (AG) (BU) (BG) (AU) (AG) (BG) (AG) (AG) (BU)
                 (BU) (AG) (BU) (AU) (BG) (AG) (BU) (BU) (AG) (BG)
                 (AU) (AG) (BU) (BG) (AU) (BU) (AG) (AU) (BG) (AG)
                 (AU) (BU) (BG) (AG) (BU) (BU) (AG) (AG) (BU) (AG)
                 (BU) (AU) (BG) (BU) (AG) (AG) (BU) (BG) (AU) (AG)
                 (BU) (BG) (AU) (BU) (AG) (BU) (AG) (AU) (BG) (AG)
                 (BU) (AG) (BU) (AG) (BU) (AU) (BG) (BU) (AG) (BU)
                 (AG) (BU) (AG)
 The electronic state is 1-AG.
 Alpha  occ. eigenvalues --  -20.60553 -20.60553 -11.36525 -11.36463  -1.44814
 Alpha  occ. eigenvalues --   -1.43171  -0.96621  -0.82725  -0.71132  -0.71024
 Alpha  occ. eigenvalues --   -0.66339  -0.59924  -0.53757  -0.52781  -0.44016
 Alpha virt. eigenvalues --    0.03417   0.04862   0.05327   0.06929   0.07579
 Alpha virt. eigenvalues --    0.08910   0.08972   0.09687   0.14961   0.15306
 Alpha virt. eigenvalues --    0.16460   0.18752   0.19967   0.21359   0.22472
 Alpha virt. eigenvalues --    0.23016   0.23341   0.25872   0.27897   0.28676
 Alpha virt. eigenvalues --    0.37522   0.40977   0.41370   0.44116   0.44820
 Alpha virt. eigenvalues --    0.45044   0.47104   0.48751   0.50729   0.51327
 Alpha virt. eigenvalues --    0.56042   0.57058   0.60129   0.61278   0.62841
 Alpha virt. eigenvalues --    0.71429   0.72625   0.72760   0.73528   0.74692
 Alpha virt. eigenvalues --    0.76863   0.79284   0.81674   0.82056   0.83862
 Alpha virt. eigenvalues --    0.91639   0.92144   1.00158   1.03245   1.04091
 Alpha virt. eigenvalues --    1.12237   1.15707   1.16115   1.20230   1.25218
 Alpha virt. eigenvalues --    1.26241   1.27096   1.28339   1.29458   1.44623
 Alpha virt. eigenvalues --    1.46359   1.46421   1.46809   1.48169   1.50543
 Alpha virt. eigenvalues --    1.53924   1.59363   1.61962   1.63852   1.65112
 Alpha virt. eigenvalues --    1.66704   1.68064   1.70874   1.75698   1.76342
 Alpha virt. eigenvalues --    1.78872   1.78913   1.80223   1.80791   1.81348
 Alpha virt. eigenvalues --    1.83164   1.88815   1.96256   1.99974   2.02359
 Alpha virt. eigenvalues --    2.02549   2.08367   2.09389   2.13070   2.13766
 Alpha virt. eigenvalues --    2.13782   2.20994   2.22380   2.27222   2.28254
 Alpha virt. eigenvalues --    2.29117   2.30426   2.38982   2.39571   2.44983
 Alpha virt. eigenvalues --    2.45227   2.47731   2.50858   2.51668   2.53336
 Alpha virt. eigenvalues --    2.53937   2.69355   2.77671   2.79168   2.84418
 Alpha virt. eigenvalues --    2.86520   2.94486   2.95727   2.97126   2.99765
 Alpha virt. eigenvalues --    3.03609   3.04454   3.07969   3.15102   3.24655
 Alpha virt. eigenvalues --    3.25433   3.30326   3.38545   3.40210   3.46455
 Alpha virt. eigenvalues --    3.46591   3.60085   3.66189   3.81102   3.82011
 Alpha virt. eigenvalues --    3.83836   3.87008   3.90597   3.92579   3.94486
 Alpha virt. eigenvalues --    3.94668   3.96193   4.04722   4.06827   4.06972
 Alpha virt. eigenvalues --    4.12474   4.12745   4.21134   4.21776   4.24000
 Alpha virt. eigenvalues --    4.38915   4.48473   4.61402   4.68967   4.73185
 Alpha virt. eigenvalues --    4.79418   4.82694   5.01912   5.01919   5.09027
 Alpha virt. eigenvalues --    5.09214   5.28376   5.28839   5.30587   5.51869
 Alpha virt. eigenvalues --    5.54178   5.62012   5.70439   5.77959   5.78018
 Alpha virt. eigenvalues --    5.82741   5.88891   6.01271   6.39415   6.50623
 Alpha virt. eigenvalues --    6.61644   6.69215   6.86900   6.90117   6.90925
 Alpha virt. eigenvalues --    6.92283   6.92787   6.99192   6.99569   7.20692
 Alpha virt. eigenvalues --    7.21443   7.25125   7.36573   7.38512   7.40255
 Alpha virt. eigenvalues --    7.50353   7.67472   7.85869   8.11639   8.23449
 Alpha virt. eigenvalues --    8.33600   8.37374   8.39553   8.51578   8.66554
 Alpha virt. eigenvalues --    8.73143   8.73331   9.15636   9.42151   9.59016
 Alpha virt. eigenvalues --    9.66742  10.00601  10.14846  10.55970  10.61715
 Alpha virt. eigenvalues --   10.93193  10.94840  11.19562  11.20186  11.22005
 Alpha virt. eigenvalues --   11.25523  11.58861  11.60046  11.79994  11.94855
 Alpha virt. eigenvalues --   12.45540  12.46350  20.54908  20.79537  21.26226
 Alpha virt. eigenvalues --   21.70104  21.96875  22.15880  24.36504  24.42761
 Alpha virt. eigenvalues --   37.60636  37.69728  38.01792  38.07145  38.29004
 Alpha virt. eigenvalues --   38.30307  43.14857  43.25278
          Condensed to atoms (all electrons):
               1          2          3          4          5          6
     1  C    4.543250   0.428724   0.402321  -0.072987   0.468329  -0.104551
     2  C    0.428724   4.543250  -0.072987   0.402321  -0.104551   0.468329
     3  H    0.402321  -0.072987   0.522902   0.004617  -0.030553   0.018394
     4  H   -0.072987   0.402321   0.004617   0.522902   0.018394  -0.030553
     5  O    0.468329  -0.104551  -0.030553   0.018394   8.126425   0.012175
     6  O   -0.104551   0.468329   0.018394  -0.030553   0.012175   8.126425
          Atomic-Atomic Spin Densities.
               1          2          3          4          5          6
     1  C    0.000000   0.000000   0.000000   0.000000   0.000000   0.000000
     2  C    0.000000   0.000000   0.000000   0.000000   0.000000   0.000000
     3  H    0.000000   0.000000   0.000000   0.000000   0.000000   0.000000
     4  H    0.000000   0.000000   0.000000   0.000000   0.000000   0.000000
     5  O    0.000000   0.000000   0.000000   0.000000   0.000000   0.000000
     6  O    0.000000   0.000000   0.000000   0.000000   0.000000   0.000000
 Mulliken charges and spin densities:
               1          2
     1  C    0.334913   0.000000
     2  C    0.334913   0.000000
     3  H    0.155306   0.000000
     4  H    0.155306   0.000000
     5  O   -0.490219   0.000000
     6  O   -0.490219   0.000000
 Sum of Mulliken charges =  -0.00000   0.00000
 Mulliken charges and spin densities with hydrogens summed into heavy atoms:
               1          2
     1  C    0.490219   0.000000
     2  C    0.490219   0.000000
     5  O   -0.490219   0.000000
     6  O   -0.490219   0.000000
 Electronic spatial extent (au):  <R**2>=            268.4152
 Charge=              0.0000 electrons
 Dipole moment (field-independent basis, Debye):
    X=              0.0000    Y=              0.0000    Z=              0.0000  Tot=              0.0000
 Quadrupole moment (field-independent basis, Debye-Ang):
   XX=            -20.7256   YY=            -32.0711   ZZ=            -21.4333
   XY=             -3.8810   XZ=              0.0000   YZ=              0.0000
 Traceless Quadrupole moment (field-independent basis, Debye-Ang):
   XX=              4.0177   YY=             -7.3277   ZZ=              3.3100
   XY=             -3.8810   XZ=              0.0000   YZ=              0.0000
 Octapole moment (field-independent basis, Debye-Ang**2):
  XXX=              0.0000  YYY=              0.0000  ZZZ=              0.0000  XYY=             -0.0000
  XXY=             -0.0000  XXZ=              0.0000  XZZ=              0.0000  YZZ=              0.0000
  YYZ=              0.0000  XYZ=              0.0000
 Hexadecapole moment (field-independent basis, Debye-Ang**3):
 XXXX=            -46.0562 YYYY=           -279.4990 ZZZZ=            -18.8157 XXXY=            -12.1491
 XXXZ=              0.0000 YYYX=            -12.9557 YYYZ=              0.0000 ZZZX=              0.0000
 ZZZY=              0.0000 XXYY=            -49.5101 XXZZ=            -11.8673 YYZZ=            -43.0236
 XXYZ=              0.0000 YYXZ=              0.0000 ZZXY=             -2.5009
 N-N= 1.020681264495D+02 E-N=-7.383200932213D+02  KE= 2.264040479163D+02
 Symmetry AG   KE= 1.112727260571D+02
 Symmetry BG   KE= 3.769344081961D+00
 Symmetry AU   KE= 3.197499374124D+00
 Symmetry BU   KE= 1.081644784031D+02
 Symmetry AG   SP= 0.000000000000D+00
 Symmetry BG   SP= 0.000000000000D+00
 Symmetry AU   SP= 0.000000000000D+00
 Symmetry BU   SP= 0.000000000000D+00
                          Isotropic Fermi Contact Couplings
        Atom                 a.u.       MegaHertz       Gauss      10(-4) cm-1
     1  C(13)              0.00000       0.00000       0.00000       0.00000
     2  C(13)              0.00000       0.00000       0.00000       0.00000
     3  H(1)               0.00000       0.00000       0.00000       0.00000
     4  H(1)               0.00000       0.00000       0.00000       0.00000
     5  O(17)              0.00000      -0.00000      -0.00000      -0.00000
     6  O(17)              0.00000      -0.00000      -0.00000      -0.00000
 --------------------------------------------------------
       Center         ----  Spin Dipole Couplings  ----
                      3XX-RR        3YY-RR        3ZZ-RR
 --------------------------------------------------------
     1   Atom        0.000000      0.000000      0.000000
     2   Atom        0.000000      0.000000      0.000000
     3   Atom        0.000000      0.000000      0.000000
     4   Atom        0.000000      0.000000      0.000000
     5   Atom        0.000000      0.000000      0.000000
     6   Atom        0.000000      0.000000      0.000000
 --------------------------------------------------------
                        XY            XZ            YZ
 --------------------------------------------------------
     1   Atom        0.000000      0.000000      0.000000
     2   Atom        0.000000      0.000000      0.000000
     3   Atom        0.000000      0.000000      0.000000
     4   Atom        0.000000      0.000000      0.000000
     5   Atom        0.000000      0.000000      0.000000
     6   Atom        0.000000      0.000000      0.000000
 --------------------------------------------------------


 ---------------------------------------------------------------------------------
              Anisotropic Spin Dipole Couplings in Principal Axis System
 ---------------------------------------------------------------------------------

       Atom             a.u.   MegaHertz   Gauss  10(-4) cm-1        Axes

              Baa     0.0000     0.000     0.000     0.000  1.0000  0.0000  0.0000
     1 C(13)  Bbb     0.0000     0.000     0.000     0.000 -0.0000  1.0000  0.0000
              Bcc     0.0000     0.000     0.000     0.000  0.0000  0.0000  1.0000
 
              Baa     0.0000     0.000     0.000     0.000  1.0000  0.0000  0.0000
     2 C(13)  Bbb     0.0000     0.000     0.000     0.000 -0.0000  1.0000  0.0000
              Bcc     0.0000     0.000     0.000     0.000  0.0000  0.0000  1.0000
 
              Baa     0.0000     0.000     0.000     0.000  1.0000  0.0000  0.0000
     3 H(1)   Bbb     0.0000     0.000     0.000     0.000 -0.0000  1.0000  0.0000
              Bcc     0.0000     0.000     0.000     0.000  0.0000  0.0000  1.0000
 
              Baa     0.0000     0.000     0.000     0.000  1.0000  0.0000  0.0000
     4 H(1)   Bbb     0.0000     0.000     0.000     0.000 -0.0000  1.0000  0.0000
              Bcc     0.0000     0.000     0.000     0.000  0.0000  0.0000  1.0000
 
              Baa     0.0000    -0.000    -0.000    -0.000  1.0000  0.0000  0.0000
     5 O(17)  Bbb     0.0000    -0.000    -0.000    -0.000 -0.0000  1.0000  0.0000
              Bcc     0.0000    -0.000    -0.000    -0.000  0.0000  0.0000  1.0000
 
              Baa     0.0000    -0.000    -0.000    -0.000  1.0000  0.0000  0.0000
     6 O(17)  Bbb     0.0000    -0.000    -0.000    -0.000 -0.0000  1.0000  0.0000
              Bcc     0.0000    -0.000    -0.000    -0.000  0.0000  0.0000  1.0000
 

 ---------------------------------------------------------------------------------

 1\1\GINC-GAMBA\SP\ROHF\Gen\C2H2O2\IRIKURA\30-Sep-2023\0\\# rohf/gen ge
 om=check guess=check\\glyoxal, ROHF/cc-pVTZ-F12\\0,1\C,0,-0.327251,0.6
 8846,0.\C,0,0.327251,-0.68846,0.\H,0,-1.432341,0.678582,0.\H,0,1.43234
 1,-0.678582,0.\O,0,0.327251,1.695567,0.\O,0,-0.327251,-1.695567,0.\\Ve
 rsion=ES64L-G16RevB.01\State=1-AG\HF=-226.6938766\RMSD=2.438e-09\Dipol
 e=0.,0.,0.\Quadrupole=2.9870635,-5.4479945,2.460931,-2.8854064,0.,0.\P
 G=C02H [SGH(C2H2O2)]\\@


 This summer one third of the nation will be ill-housed
 ill-nourished and ill-clad. Only they call it a vacation.
 -- Jonas Salk
 Job cpu time:       0 days  0 hours  1 minutes 46.3 seconds.
 Elapsed time:       0 days  0 hours  0 minutes 26.6 seconds.
 File lengths (MBytes):  RWF=     48 Int=      0 D2E=      0 Chk=      6 Scr=      1
 Normal termination of Gaussian 16 at Sat Sep 30 10:06:57 2023.
