 Entering Gaussian System, Link 0=g16
 AtFile(1): pcseg2.gbs
            -H     0
            S   4   1.00
                  0.754732D+02           0.427821D-02
                  0.113575D+02           0.328672D-01
                  0.260081D+01           0.159578D+00
                  0.735503D+00           0.500000D+00
            S   1   1.00
                  0.231761D+00           1.0000000
            S   1   1.00
                  0.741675D-01           1.0000000
            P   1   1.00
                  0.160000D+01           1.0000000
            P   1   1.00
                  0.450000D+00           1.0000000
            D   1   1.00
                  0.125000D+01           1.0000000
            ****
            -C     0
            S   7   1.00
                  0.731999D+04           0.695369D-03
                  0.109818D+04           0.537138D-02
                  0.250014D+03           0.274734D-01
                  0.707586D+02           0.105078D+00
                  0.228595D+02           0.291262D+00
                  0.803936D+01           0.500000D+00
                  0.289309D+01           0.362224D+00
            S   2   1.00
                  0.521640D+01          -0.957844D-01
                  0.556124D+00           0.500000D+00
            S   1   1.00
                  0.228813D+00           1.0000000
            S   1   1.00
                  0.936338D-01           1.0000000
            P   4   1.00
                  0.339855D+02           0.818395D-02
                  0.772957D+01           0.586921D-01
                  0.224954D+01           0.222514D+00
                  0.767681D+00           0.500000D+00
            P   1   1.00
                  0.263283D+00           1.0000000
            P   1   1.00
                  0.848744D-01           1.0000000
            D   1   1.00
                  0.140000D+01           1.0000000
            D   1   1.00
                  0.450000D+00           1.0000000
            F   1   1.00
                  0.950000D+00           1.0000000
            ****
            -O     0
            S   7   1.00
                  0.135887D+05           0.665492D-03
                  0.203847D+04           0.514222D-02
                  0.464041D+03           0.263472D-01
                  0.131339D+03           0.101500D+00
                  0.425340D+02           0.285877D+00
                  0.150429D+02           0.500000D+00
                  0.546616D+01           0.368211D+00
            S   2   1.00
                  0.100915D+02          -0.100084D+00
                  0.110429D+01           0.500000D+00
            S   1   1.00
                  0.448082D+00           1.0000000
            S   1   1.00
                  0.175325D+00           1.0000000
            P   4   1.00
                  0.608220D+02           0.908253D-02
                  0.140332D+02           0.645878D-01
                  0.418244D+01           0.241502D+00
                  0.142490D+01           0.500000D+00
            P   1   1.00
                  0.478741D+00           1.0000000
            P   1   1.00
                  0.146257D+00           1.0000000
            D   1   1.00
                  0.220000D+01           1.0000000
            D   1   1.00
                  0.650000D+00           1.0000000
            F   1   1.00
                  0.110000D+01           1.0000000
            ****
            -N     0
            S   7   1.00
                  0.101643D+05           0.682757D-03
                  0.152481D+04           0.527488D-02
                  0.347119D+03           0.270037D-01
                  0.982389D+02           0.103673D+00
                  0.317799D+02           0.289575D+00
                  0.112240D+02           0.500000D+00
                  0.406611D+01           0.364621D+00
            S   2   1.00
                  0.747898D+01          -0.975681D-01
                  0.805040D+00           0.500000D+00
            S   1   1.00
                  0.324626D+00           1.0000000
            S   1   1.00
                  0.128132D+00           1.0000000
            P   4   1.00
                  0.482704D+02           0.829547D-02
                  0.110815D+02           0.596223D-01
                  0.326643D+01           0.227889D+00
                  0.111680D+01           0.500000D+00
            P   1   1.00
                  0.382049D+00           1.0000000
            P   1   1.00
                  0.121222D+00           1.0000000
            D   1   1.00
                  0.180000D+01           1.0000000
            D   1   1.00
                  0.550000D+00           1.0000000
            F   1   1.00
                  0.102000D+01           1.0000000
            ****
            -F     0
            S   7   1.00
                  0.174507D+05           0.655972D-03
                  0.261768D+04           0.506944D-02
                  0.595857D+03           0.259899D-01
                  0.168651D+03           0.100353D+00
                  0.546654D+02           0.284095D+00
                  0.193717D+02           0.500000D+00
                  0.706202D+01           0.370721D+00
            S   2   1.00
                  0.131197D+02          -0.101997D+00
                  0.145046D+01           0.500000D+00
            S   1   1.00
                  0.588255D+00           1.0000000
            S   1   1.00
                  0.227960D+00           1.0000000
            P   4   1.00
                  0.779407D+02           0.931135D-02
                  0.180425D+02           0.663964D-01
                  0.542342D+01           0.246386D+00
                  0.184876D+01           0.500000D+00
            P   1   1.00
                  0.617455D+00           1.0000000
            P   1   1.00
                  0.185496D+00           1.0000000
            D   1   1.00
                  0.280000D+01           1.0000000
            D   1   1.00
                  0.800000D+00           1.0000000
            F   1   1.00
                  0.120000D+01           1.0000000
            ****
            -Cl     0
            S   8   1.00
                  0.154272D+06           0.222473D-03
                  0.231232D+05           0.172590D-02
                  0.526257D+04           0.899286D-02
                  0.148995D+04           0.367724D-01
                  0.485417D+03           0.121446D+00
                  0.174634D+03           0.304148D+00
                  0.672393D+02           0.500000D+00
                  0.265780D+02           0.360252D+00
            S   3   1.00
                  0.131826D+03          -0.531330D-01
                  0.400703D+02          -0.233346D+00
                  0.789448D+01           0.500000D+00
            S   2   1.00
                  0.427711D+01           0.500000D+00
                  0.196233D+01           0.370517D+00
            S   1   1.00
                  0.520793D+00           1.0000000
            S   1   1.00
                  0.181633D+00           1.0000000
            P   7   1.00
                  0.124440D+04           0.988206D-03
                  0.295109D+03           0.829674D-02
                  0.947224D+02           0.430906D-01
                  0.352588D+02           0.148443D+00
                  0.144211D+02           0.344744D+00
                  0.610371D+01           0.500000D+00
                  0.258886D+01           0.348278D+00
            P   2   1.00
                  0.109447D+02          -0.196768D-01
                  0.104413D+01           0.500000D+00
            P   1   1.00
                  0.376184D+00           1.0000000
            P   1   1.00
                  0.120613D+00           1.0000000
            D   1   1.00
                  0.231000D+01           1.0000000
            D   1   1.00
                  0.520000D+00           1.0000000
            F   1   1.00
                  0.720000D+00           1.0000000
            ****
            -S     0
            S   8   1.00
                  0.134700D+06           0.226231D-03
                  0.201904D+05           0.175488D-02
                  0.459528D+04           0.914190D-02
                  0.130109D+04           0.373551D-01
                  0.423902D+03           0.123121D+00
                  0.152485D+03           0.306801D+00
                  0.586925D+02           0.500000D+00
                  0.231461D+02           0.354358D+00
            S   3   1.00
                  0.116327D+03          -0.491772D-01
                  0.352841D+02          -0.215962D+00
                  0.677831D+01           0.500000D+00
            S   2   1.00
                  0.360404D+01           0.500000D+00
                  0.164871D+01           0.366278D+00
            S   1   1.00
                  0.421821D+00           1.0000000
            S   1   1.00
                  0.147554D+00           1.0000000
            P   7   1.00
                  0.104863D+04           0.105273D-02
                  0.248717D+03           0.879338D-02
                  0.797887D+02           0.453358D-01
                  0.296023D+02           0.154476D+00
                  0.120627D+02           0.352366D+00
                  0.507628D+01           0.500000D+00
                  0.213375D+01           0.346429D+00
            P   2   1.00
                  0.928958D+01          -0.185932D-01
                  0.837819D+00           0.500000D+00
            P   1   1.00
                  0.301495D+00           1.0000000
            P   1   1.00
                  0.974740D-01           1.0000000
            D   1   1.00
                  0.210000D+01           1.0000000
            D   1   1.00
                  0.480000D+00           1.0000000
            F   1   1.00
                  0.660000D+00           1.0000000
            ****
            -Br     0
            S    10   1.00
                  0.233625D+07           0.532336D-04
                  0.349961D+06           0.413715D-03
                  0.796444D+05           0.217123D-02
                  0.225555D+05           0.910109D-02
                  0.735546D+04           0.323789D-01
                  0.265352D+04           0.988755D-01
                  0.103517D+04           0.248138D+00
                  0.422205D+03           0.474328D+00
                  0.180035D+03           0.500000D+00
                  0.793308D+02           0.187769D+00
            S    4   1.00
                  0.620834D+03          -0.226511D-01
                  0.190829D+03          -0.109497D+00
                  0.312505D+02           0.500000D+00
                  0.135270D+02           0.492812D+00
            S    2   1.00
                  0.216097D+02          -0.165418D+00
                  0.372566D+01           0.500000D+00
            S    1   1.00
                  0.169770D+01           1.0000000
            S    1   1.00
                  0.489332D+00           1.0000000
            S    1   1.00
                  0.175712D+00           1.0000000
            P    8   1.00
                  0.960829D+04           0.478974D-03
                  0.227618D+04           0.417853D-02
                  0.736723D+03           0.229315D-01
                  0.281579D+03           0.892653D-01
                  0.118395D+03           0.255288D+00
                  0.527481D+02           0.479074D+00
                  0.245098D+02           0.500000D+00
                  0.112009D+02           0.200944D+00
            P    4   1.00
                  0.587849D+02          -0.189674D-01
                  0.918962D+01           0.264104D+00
                  0.413895D+01           0.500000D+00
                  0.184225D+01           0.319316D+00
            P    1   1.00
                  0.713862D+00           1.0000000
            P    1   1.00
                  0.274232D+00           1.0000000
            P    1   1.00
                  0.944411D-01           1.0000000
            D    7   1.00
                  0.398470D+03           0.204066D-02
                  0.118967D+03           0.175171D-01
                  0.450197D+02           0.829708D-01
                  0.190320D+02           0.236284D+00
                  0.855686D+01           0.428468D+00
                  0.382950D+01           0.500000D+00
                  0.166291D+01           0.349360D+00
            D    1   1.00
                  0.672953D+00           1.0000000
            D    1   1.00
                  0.252000D+00           1.0000000
            F    1   1.00
                  0.530000D+00           1.0000000
            ****
            -Si     0
            S    8   1.00
                  0.996133D+05           0.235546D-03
                  0.149311D+05           0.182707D-02
                  0.339820D+04           0.951425D-02
                  0.962140D+03           0.388172D-01
                  0.313430D+03           0.127328D+00
                  0.112683D+03           0.313522D+00
                  0.433372D+02           0.500000D+00
                  0.170029D+02           0.340347D+00
            S    3   1.00
                  0.884208D+02          -0.404451D-01
                  0.266756D+02          -0.178059D+00
                  0.479640D+01           0.500000D+00
            S    2   1.00
                  0.239385D+01           0.500000D+00
                  0.108333D+01           0.338016D+00
            S    1   1.00
                  0.252420D+00           1.0000000
            S    1   1.00
                  0.891210D-01           1.0000000
            P    7   1.00
                  0.709901D+03           0.123028D-02
                  0.168426D+03           0.101366D-01
                  0.539946D+02           0.511840D-01
                  0.198646D+02           0.169967D+00
                  0.801369D+01           0.370717D+00
                  0.331870D+01           0.500000D+00
                  0.136112D+01           0.344128D+00
            P    2   1.00
                  0.622158D+01          -0.166609D-01
                  0.503049D+00           0.500000D+00
            P    1   1.00
                  0.179848D+00           1.0000000
            P    1   1.00
                  0.591912D-01           1.0000000
            D    1   1.00
                  0.168000D+01           1.0000000
            D    1   1.00
                  0.380000D+00           1.0000000
            F    1   1.00
                  0.540000D+00           1.0000000
            ****
            -P     0
            S    8   1.00
                  0.116416D+06           0.230715D-03
                  0.174500D+05           0.178960D-02
                  0.397149D+04           0.932116D-02
                  0.112447D+04           0.380591D-01
                  0.366347D+03           0.125148D+00
                  0.131757D+03           0.310022D+00
                  0.506988D+02           0.500000D+00
                  0.199436D+02           0.347528D+00
            S    3   1.00
                  0.101878D+03          -0.446755D-01
                  0.308249D+02          -0.196376D+00
                  0.573688D+01           0.500000D+00
            S    2   1.00
                  0.296868D+01           0.500000D+00
                  0.135315D+01           0.355098D+00
            S    1   1.00
                  0.332196D+00           1.0000000
            S    1   1.00
                  0.116229D+00           1.0000000
            P    7   1.00
                  0.873928D+03           0.112375D-02
                  0.207298D+03           0.933330D-02
                  0.664628D+02           0.477213D-01
                  0.245665D+02           0.160733D+00
                  0.996820D+01           0.359760D+00
                  0.416536D+01           0.500000D+00
                  0.173022D+01           0.346593D+00
            P    2   1.00
                  0.772530D+01          -0.175718D-01
                  0.657252D+00           0.500000D+00
            P    1   1.00
                  0.239903D+00           1.0000000
            P    1   1.00
                  0.800988D-01           1.0000000
            D    1   1.00
                  0.189000D+01           1.0000000
            D    1   1.00
                  0.430000D+00           1.0000000
            F    1   1.00
                  0.600000D+00           1.0000000
            ****
            
 Initial command:
 /usr/local/apps/g16_b01_avx/g16/l1.exe "/wrk/irikura/Gau-7637.inp" -scrdir="/wrk/irikura/"
 Entering Link 1 = /usr/local/apps/g16_b01_avx/g16/l1.exe PID=      7639.
  
 Copyright (c) 1988-2017, Gaussian, Inc.  All Rights Reserved.
  
 This is part of the Gaussian(R) 16 program.  It is based on
 the Gaussian(R) 09 system (copyright 2009, Gaussian, Inc.),
 the Gaussian(R) 03 system (copyright 2003, Gaussian, Inc.),
 the Gaussian(R) 98 system (copyright 1998, Gaussian, Inc.),
 the Gaussian(R) 94 system (copyright 1995, Gaussian, Inc.),
 the Gaussian 92(TM) system (copyright 1992, Gaussian, Inc.),
 the Gaussian 90(TM) system (copyright 1990, Gaussian, Inc.),
 the Gaussian 88(TM) system (copyright 1988, Gaussian, Inc.),
 the Gaussian 86(TM) system (copyright 1986, Carnegie Mellon
 University), and the Gaussian 82(TM) system (copyright 1983,
 Carnegie Mellon University). Gaussian is a federally registered
 trademark of Gaussian, Inc.
  
 This software contains proprietary and confidential information,
 including trade secrets, belonging to Gaussian, Inc.
  
 This software is provided under written license and may be
 used, copied, transmitted, or stored only in accord with that
 written license.
  
 The following legend is applicable only to US Government
 contracts under FAR:
  
                    RESTRICTED RIGHTS LEGEND
  
 Use, reproduction and disclosure by the US Government is
 subject to restrictions as set forth in subparagraphs (a)
 and (c) of the Commercial Computer Software - Restricted
 Rights clause in FAR 52.227-19.
  
 Gaussian, Inc.
 340 Quinnipiac St., Bldg. 40, Wallingford CT 06492
  
  
 ---------------------------------------------------------------
 Warning -- This program may not be used in any manner that
 competes with the business of Gaussian, Inc. or will provide
 assistance to any competitor of Gaussian, Inc.  The licensee
 of this program is prohibited from giving any competitor of
 Gaussian, Inc. access to this program.  By using this program,
 the user acknowledges that Gaussian, Inc. is engaged in the
 business of creating and licensing software in the field of
 computational chemistry and represents and warrants to the
 licensee that it is not a competitor of Gaussian, Inc. and that
 it will not use this program in any manner prohibited above.
 ---------------------------------------------------------------
  

 Cite this work as:
 Gaussian 16, Revision B.01,
 M. J. Frisch, G. W. Trucks, H. B. Schlegel, G. E. Scuseria, 
 M. A. Robb, J. R. Cheeseman, G. Scalmani, V. Barone, 
 G. A. Petersson, H. Nakatsuji, X. Li, M. Caricato, A. V. Marenich, 
 J. Bloino, B. G. Janesko, R. Gomperts, B. Mennucci, H. P. Hratchian, 
 J. V. Ortiz, A. F. Izmaylov, J. L. Sonnenberg, D. Williams-Young, 
 F. Ding, F. Lipparini, F. Egidi, J. Goings, B. Peng, A. Petrone, 
 T. Henderson, D. Ranasinghe, V. G. Zakrzewski, J. Gao, N. Rega, 
 G. Zheng, W. Liang, M. Hada, M. Ehara, K. Toyota, R. Fukuda, 
 J. Hasegawa, M. Ishida, T. Nakajima, Y. Honda, O. Kitao, H. Nakai, 
 T. Vreven, K. Throssell, J. A. Montgomery, Jr., J. E. Peralta, 
 F. Ogliaro, M. J. Bearpark, J. J. Heyd, E. N. Brothers, K. N. Kudin, 
 V. N. Staroverov, T. A. Keith, R. Kobayashi, J. Normand, 
 K. Raghavachari, A. P. Rendell, J. C. Burant, S. S. Iyengar, 
 J. Tomasi, M. Cossi, J. M. Millam, M. Klene, C. Adamo, R. Cammi, 
 J. W. Ochterski, R. L. Martin, K. Morokuma, O. Farkas, 
 J. B. Foresman, and D. J. Fox, Gaussian, Inc., Wallingford CT, 2016.
 
 ******************************************
 Gaussian 16:  ES64L-G16RevB.01 20-Dec-2017
                16-Jun-2022 
 ******************************************
 %mem=1000mw
 %nprocs=12
 Will use up to   12 processors via shared memory.
 --------------------
 # b3lyp/gen opt freq
 --------------------
 1/18=20,19=15,26=3,38=1/1,3;
 2/9=110,12=2,17=6,18=5,40=1/2;
 3/5=7,11=2,25=1,30=1,71=1,74=-5/1,2,3;
 4//1;
 5/5=2,38=5/2;
 6/7=2,8=2,9=2,10=2,28=1/1;
 7//1,2,3,16;
 1/18=20,19=15,26=3/3(2);
 2/9=110/2;
 99//99;
 2/9=110/2;
 3/5=7,6=1,11=2,25=1,30=1,71=1,74=-5,82=7/1,2,3;
 4/5=5,16=3,69=1/1;
 5/5=2,38=5/2;
 7//1,2,3,16;
 1/18=20,19=15,26=3/3(-5);
 2/9=110/2;
 6/7=2,8=2,9=2,10=2,19=2,28=1/1;
 99/9=1/99;
 --------------------------------
 oxygen dichloride, B3LYP/pcseg-2
 --------------------------------
 Symbolic Z-matrix:
 Charge =  0 Multiplicity = 1
 O
 Cl                   1    r
 Cl                   1    r        2    a
       Variables:
  r                     1.7                      
  a                   105.                       
 

 GradGradGradGradGradGradGradGradGradGradGradGradGradGradGradGradGradGrad
 Berny optimization.
 Initialization pass.
                           ----------------------------
                           !    Initial Parameters    !
                           ! (Angstroms and Degrees)  !
 --------------------------                            --------------------------
 ! Name  Definition              Value          Derivative Info.                !
 --------------------------------------------------------------------------------
 ! R1    R(1,2)                  1.7            estimate D2E/DX2                !
 ! R2    R(1,3)                  1.7            estimate D2E/DX2                !
 ! A1    A(2,1,3)              105.0            estimate D2E/DX2                !
 --------------------------------------------------------------------------------
 Trust Radius=3.00D-01 FncErr=1.00D-07 GrdErr=1.00D-06 EigMax=2.50D+02 EigMin=1.00D-04
 Number of steps in this run=     20 maximum allowed number of steps=    100.
 GradGradGradGradGradGradGradGradGradGradGradGradGradGradGradGradGradGrad

                          Input orientation:                          
 ---------------------------------------------------------------------
 Center     Atomic      Atomic             Coordinates (Angstroms)
 Number     Number       Type             X           Y           Z
 ---------------------------------------------------------------------
      1          8           0        0.000000    0.000000    0.000000
      2         17           0        0.000000    0.000000    1.700000
      3         17           0        1.642074    0.000000   -0.439992
 ---------------------------------------------------------------------
                    Distance matrix (angstroms):
                    1          2          3
     1  O    0.000000
     2  Cl   1.700000   0.000000
     3  Cl   1.700000   2.697401   0.000000
 Stoichiometry    Cl2O
 Framework group  C2V[C2(O),SGV(Cl2)]
 Deg. of freedom     2
 Full point group                 C2V     NOp   4
 Largest Abelian subgroup         C2V     NOp   4
 Largest concise Abelian subgroup C2      NOp   2
                         Standard orientation:                         
 ---------------------------------------------------------------------
 Center     Atomic      Atomic             Coordinates (Angstroms)
 Number     Number       Type             X           Y           Z
 ---------------------------------------------------------------------
      1          8           0        0.000000    0.000000    0.837772
      2         17           0       -0.000000    1.348701   -0.197123
      3         17           0       -0.000000   -1.348701   -0.197123
 ---------------------------------------------------------------------
 Rotational constants (GHZ):          36.2484840           3.9725984           3.5802286
 General basis read from cards:  (5D, 7F)
 There are    43 symmetry adapted cartesian basis functions of A1  symmetry.
 There are    15 symmetry adapted cartesian basis functions of A2  symmetry.
 There are    20 symmetry adapted cartesian basis functions of B1  symmetry.
 There are    35 symmetry adapted cartesian basis functions of B2  symmetry.
 There are    36 symmetry adapted basis functions of A1  symmetry.
 There are    14 symmetry adapted basis functions of A2  symmetry.
 There are    18 symmetry adapted basis functions of B1  symmetry.
 There are    30 symmetry adapted basis functions of B2  symmetry.
    98 basis functions,   191 primitive gaussians,   113 cartesian basis functions
    21 alpha electrons       21 beta electrons
       nuclear repulsion energy       141.3644822486 Hartrees.
 NAtoms=    3 NActive=    3 NUniq=    2 SFac= 2.25D+00 NAtFMM=   60 NAOKFM=F Big=F
 Integral buffers will be    131072 words long.
 Raffenetti 2 integral format.
 Two-electron integral symmetry is turned on.
 One-electron integrals computed using PRISM.
 NBasis=    98 RedAO= T EigKep=  8.88D-03  NBF=    36    14    18    30
 NBsUse=    98 1.00D-06 EigRej= -1.00D+00 NBFU=    36    14    18    30
 ExpMin= 1.21D-01 ExpMax= 1.54D+05 ExpMxC= 1.49D+03 IAcc=3 IRadAn=         5 AccDes= 0.00D+00
 Harris functional with IExCor=  402 and IRadAn=       5 diagonalized for initial guess.
 HarFok:  IExCor=  402 AccDes= 0.00D+00 IRadAn=         5 IDoV= 1 UseB2=F ITyADJ=14
 ICtDFT=  3500011 ScaDFX=  1.000000  1.000000  1.000000  1.000000
 FoFCou: FMM=F IPFlag=           0 FMFlag=      100000 FMFlg1=           0
         NFxFlg=           0 DoJE=T BraDBF=F KetDBF=T FulRan=T
         wScrn=  0.000000 ICntrl=       500 IOpCl=  0 I1Cent=   200000004 NGrid=           0
         NMat0=    1 NMatS0=      1 NMatT0=    0 NMatD0=    1 NMtDS0=    0 NMtDT0=    0
 Petite list used in FoFCou.
 Initial guess orbital symmetries:
       Occupied  (B2) (A1) (A1) (B2) (A1) (A1) (B2) (A2) (B1) (B2)
                 (A1) (A1) (B2) (A1) (B2) (A1) (B1) (A1) (A2) (B2)
                 (B1)
       Virtual   (A1) (B2) (B2) (A1) (B1) (A1) (B2) (A2) (A1) (B1)
                 (B2) (A1) (A1) (A2) (B1) (B2) (A1) (A2) (B1) (B2)
                 (A1) (B2) (A1) (B2) (B1) (A2) (A1) (A1) (B2) (B1)
                 (A1) (B1) (B2) (A2) (B2) (A1) (B1) (B2) (A2) (B1)
                 (A1) (A2) (B2) (A1) (B2) (A1) (A2) (B2) (A1) (B1)
                 (A1) (B2) (A1) (B1) (B2) (A2) (A1) (A2) (B1) (B2)
                 (A1) (B2) (A1) (B1) (A1) (B1) (A2) (B2) (B2) (A1)
                 (B1) (A2) (A1) (A1) (B2) (A1) (B2)
 The electronic state of the initial guess is 1-A1.
 Keep R1 ints in memory in symmetry-blocked form, NReq=23048886.
 Requested convergence on RMS density matrix=1.00D-08 within 128 cycles.
 Requested convergence on MAX density matrix=1.00D-06.
 Requested convergence on             energy=1.00D-06.
 No special actions if energy rises.
 Integral accuracy reduced to 1.0D-05 until final iterations.
 Initial convergence to 1.0D-05 achieved.  Increase integral accuracy.
 SCF Done:  E(RB3LYP) =  -995.597967563     A.U. after   12 cycles
            NFock= 12  Conv=0.77D-08     -V/T= 2.0009

 **********************************************************************

            Population analysis using the SCF Density.

 **********************************************************************

 Orbital symmetries:
       Occupied  (B2) (A1) (A1) (B2) (A1) (A1) (B2) (A1) (B2) (A2)
                 (B1) (A1) (B2) (A1) (B2) (A1) (B1) (A1) (A2) (B2)
                 (B1)
       Virtual   (A1) (B2) (B2) (A1) (B1) (B2) (A1) (A2) (A1) (B2)
                 (B1) (A1) (A1) (A2) (B1) (B2) (A1) (A2) (B1) (B2)
                 (A1) (B2) (A1) (B2) (B1) (A2) (A1) (A1) (B2) (B1)
                 (A1) (B2) (B1) (A2) (B2) (A1) (B2) (B1) (A2) (B1)
                 (A1) (A2) (B2) (A1) (B2) (A1) (A2) (B2) (A1) (B1)
                 (A1) (B2) (A1) (B1) (B2) (A1) (A2) (A2) (B1) (B2)
                 (A1) (B2) (A1) (B1) (A1) (B1) (A2) (B2) (B2) (A1)
                 (B1) (A2) (A1) (A1) (B2) (A1) (B2)
 The electronic state is 1-A1.
 Alpha  occ. eigenvalues -- -101.57645-101.57645 -19.26520  -9.51782  -9.51781
 Alpha  occ. eigenvalues --   -7.28387  -7.28387  -7.26881  -7.26881  -7.26831
 Alpha  occ. eigenvalues --   -7.26831  -1.12005  -0.86974  -0.77643  -0.53387
 Alpha  occ. eigenvalues --   -0.49834  -0.47431  -0.36102  -0.35502  -0.33230
 Alpha  occ. eigenvalues --   -0.29865
 Alpha virt. eigenvalues --   -0.13206  -0.07207   0.24312   0.25877   0.27610
 Alpha virt. eigenvalues --    0.30362   0.30736   0.32119   0.32171   0.32772
 Alpha virt. eigenvalues --    0.34054   0.38945   0.47246   0.49326   0.50330
 Alpha virt. eigenvalues --    0.53299   0.54288   0.55677   0.60739   0.62499
 Alpha virt. eigenvalues --    0.64576   0.70461   0.87989   0.97233   1.43601
 Alpha virt. eigenvalues --    1.43970   1.44839   1.67774   1.75389   1.96748
 Alpha virt. eigenvalues --    2.02673   2.05829   2.06176   2.07059   2.08270
 Alpha virt. eigenvalues --    2.09045   2.09761   2.09956   2.10101   2.14597
 Alpha virt. eigenvalues --    2.15102   2.16023   2.16942   2.17887   2.18826
 Alpha virt. eigenvalues --    2.20088   2.35628   2.36288   2.50198   2.53551
 Alpha virt. eigenvalues --    2.68605   2.94624   3.38018   3.42858   3.43418
 Alpha virt. eigenvalues --    3.45749   3.46044   3.47951   3.50623   3.52964
 Alpha virt. eigenvalues --    3.60995   3.95895   3.96841   3.98117   4.08926
 Alpha virt. eigenvalues --    4.31106   4.33931   4.50246   4.81733   5.28605
 Alpha virt. eigenvalues --    6.09853   6.17680   6.23990   6.53480   6.78663
 Alpha virt. eigenvalues --   31.73484  32.45417
          Condensed to atoms (all electrons):
               1          2          3
     1  O    8.129592   0.039686   0.039686
     2  Cl   0.039686  16.937378  -0.081546
     3  Cl   0.039686  -0.081546  16.937378
 Mulliken charges:
               1
     1  O   -0.208964
     2  Cl   0.104482
     3  Cl   0.104482
 Sum of Mulliken charges =   0.00000
 Mulliken charges with hydrogens summed into heavy atoms:
               1
     1  O   -0.208964
     2  Cl   0.104482
     3  Cl   0.104482
 Electronic spatial extent (au):  <R**2>=            311.6532
 Charge=             -0.0000 electrons
 Dipole moment (field-independent basis, Debye):
    X=             -0.0000    Y=              0.0000    Z=             -0.7423  Tot=              0.7423
 Quadrupole moment (field-independent basis, Debye-Ang):
   XX=            -30.9503   YY=            -27.7684   ZZ=            -30.0923
   XY=             -0.0000   XZ=             -0.0000   YZ=             -0.0000
 Traceless Quadrupole moment (field-independent basis, Debye-Ang):
   XX=             -1.3466   YY=              1.8353   ZZ=             -0.4886
   XY=             -0.0000   XZ=             -0.0000   YZ=             -0.0000
 Octapole moment (field-independent basis, Debye-Ang**2):
  XXX=              0.0000  YYY=             -0.0000  ZZZ=              0.6107  XYY=              0.0000
  XXY=              0.0000  XXZ=              0.6647  XZZ=              0.0000  YZZ=              0.0000
  YYZ=             -4.4701  XYZ=             -0.0000
 Hexadecapole moment (field-independent basis, Debye-Ang**3):
 XXXX=            -33.7071 YYYY=           -281.7141 ZZZZ=            -59.1027 XXXY=             -0.0000
 XXXZ=             -0.0000 YYYX=             -0.0000 YYYZ=              0.0000 ZZZX=             -0.0000
 ZZZY=              0.0000 XXYY=            -58.1891 XXZZ=            -15.8837 YYZZ=            -55.2149
 XXYZ=              0.0000 YYXZ=              0.0000 ZZXY=             -0.0000
 N-N= 1.413644822486D+02 E-N=-2.649860768673D+03  KE= 9.946543821826D+02
 Symmetry A1   KE= 4.803581316943D+02
 Symmetry A2   KE= 4.642073233308D+01
 Symmetry B1   KE= 5.119076214937D+01
 Symmetry B2   KE= 4.166847560058D+02
 Calling FoFJK, ICntrl=      2127 FMM=F ISym2X=1 I1Cent= 0 IOpClX= 0 NMat=1 NMatS=1 NMatT=0.
 ***** Axes restored to original set *****
 -------------------------------------------------------------------
 Center     Atomic                   Forces (Hartrees/Bohr)
 Number     Number              X              Y              Z
 -------------------------------------------------------------------
      1        8           0.006433523    0.000000000    0.004936616
      2       17          -0.014281856   -0.000000000    0.011952004
      3       17           0.007848333   -0.000000000   -0.016888620
 -------------------------------------------------------------------
 Cartesian Forces:  Max     0.016888620 RMS     0.009185762

 GradGradGradGradGradGradGradGradGradGradGradGradGradGradGradGradGradGrad
 Berny optimization.
 FormGI is forming the generalized inverse of G from B-inverse, IUseBI=4.
 Internal  Forces:  Max     0.045880955 RMS     0.028229788
 Search for a local minimum.
 Step number   1 out of a maximum of   20
 All quantities printed in internal units (Hartrees-Bohrs-Radians)
 Mixed Optimization -- RFO/linear search
 Second derivative matrix not updated -- first step.
 The second derivative matrix:
                          R1        R2        A1
           R1           0.35890
           R2           0.00000   0.35890
           A1           0.00000   0.00000   0.25000
 ITU=  0
     Eigenvalues ---    0.25000   0.35890   0.35890
 RFO step:  Lambda=-8.90732349D-03 EMin= 2.50000000D-01
 Linear search not attempted -- first point.
 Iteration  1 RMS(Cart)=  0.18534900 RMS(Int)=  0.00979497
 Iteration  2 RMS(Cart)=  0.00753588 RMS(Int)=  0.00001639
 Iteration  3 RMS(Cart)=  0.00002593 RMS(Int)=  0.00000000
 Iteration  4 RMS(Cart)=  0.00000000 RMS(Int)=  0.00000000
 ClnCor:  largest displacement from symmetrization is 3.58D-13 for atom     3.
 Variable       Old X    -DE/DX   Delta X   Delta X   Delta X     New X
                                 (Linear)    (Quad)   (Total)
    R1        3.21253   0.01195   0.00000   0.03250   0.03250   3.24503
    R2        3.21253   0.01195   0.00000   0.03250   0.03250   3.24503
    A1        1.83260   0.04588   0.00000   0.17721   0.17721   2.00981
         Item               Value     Threshold  Converged?
 Maximum Force            0.045881     0.000450     NO 
 RMS     Force            0.028230     0.000300     NO 
 Maximum Displacement     0.194909     0.001800     NO 
 RMS     Displacement     0.185841     0.001200     NO 
 Predicted change in Energy=-4.602927D-03
 GradGradGradGradGradGradGradGradGradGradGradGradGradGradGradGradGradGrad

                          Input orientation:                          
 ---------------------------------------------------------------------
 Center     Atomic      Atomic             Coordinates (Angstroms)
 Number     Number       Type             X           Y           Z
 ---------------------------------------------------------------------
      1          8           0        0.060393   -0.000000    0.046341
      2         17           0       -0.091560   -0.000000    1.756800
      3         17           0        1.673241    0.000000   -0.543134
 ---------------------------------------------------------------------
                    Distance matrix (angstroms):
                    1          2          3
     1  O    0.000000
     2  Cl   1.717196   0.000000
     3  Cl   1.717196   2.899004   0.000000
 Stoichiometry    Cl2O
 Framework group  C2V[C2(O),SGV(Cl2)]
 Deg. of freedom     2
 Full point group                 C2V     NOp   4
 Largest Abelian subgroup         C2V     NOp   4
 Largest concise Abelian subgroup C2      NOp   2
                         Standard orientation:                         
 ---------------------------------------------------------------------
 Center     Atomic      Atomic             Coordinates (Angstroms)
 Number     Number       Type             X           Y           Z
 ---------------------------------------------------------------------
      1          8           0       -0.000000    0.000000    0.745336
      2         17           0       -0.000000    1.449502   -0.175373
      3         17           0       -0.000000   -1.449502   -0.175373
 ---------------------------------------------------------------------
 Rotational constants (GHZ):          45.7969964           3.4392862           3.1990428
 Basis read from rwf:  (5D, 7F)
 There are    43 symmetry adapted cartesian basis functions of A1  symmetry.
 There are    15 symmetry adapted cartesian basis functions of A2  symmetry.
 There are    20 symmetry adapted cartesian basis functions of B1  symmetry.
 There are    35 symmetry adapted cartesian basis functions of B2  symmetry.
 There are    36 symmetry adapted basis functions of A1  symmetry.
 There are    14 symmetry adapted basis functions of A2  symmetry.
 There are    18 symmetry adapted basis functions of B1  symmetry.
 There are    30 symmetry adapted basis functions of B2  symmetry.
    98 basis functions,   191 primitive gaussians,   113 cartesian basis functions
    21 alpha electrons       21 beta electrons
       nuclear repulsion energy       136.5738753293 Hartrees.
 NAtoms=    3 NActive=    3 NUniq=    2 SFac= 2.25D+00 NAtFMM=   60 NAOKFM=F Big=F
 Integral buffers will be    131072 words long.
 Raffenetti 2 integral format.
 Two-electron integral symmetry is turned on.
 One-electron integrals computed using PRISM.
 NBasis=    98 RedAO= T EigKep=  9.44D-03  NBF=    36    14    18    30
 NBsUse=    98 1.00D-06 EigRej= -1.00D+00 NBFU=    36    14    18    30
 Initial guess from the checkpoint file:  "/wrk/irikura/Gau-7639.chk"
 B after Tr=    -0.000000   -0.000000    0.000000
         Rot=    1.000000   -0.000000   -0.000000   -0.000000 Ang=   0.00 deg.
 Initial guess orbital symmetries:
       Occupied  (B2) (A1) (A1) (B2) (A1) (A1) (B2) (A1) (B2) (A2)
                 (B1) (A1) (B2) (A1) (B2) (A1) (B1) (A1) (A2) (B2)
                 (B1)
       Virtual   (A1) (B2) (B2) (A1) (B1) (B2) (A1) (A2) (A1) (B2)
                 (B1) (A1) (A1) (A2) (B1) (B2) (A1) (A2) (B1) (B2)
                 (A1) (B2) (A1) (B2) (B1) (A2) (A1) (A1) (B2) (B1)
                 (A1) (B2) (B1) (A2) (B2) (A1) (B2) (B1) (A2) (B1)
                 (A1) (A2) (B2) (A1) (B2) (A1) (A2) (B2) (A1) (B1)
                 (A1) (B2) (A1) (B1) (B2) (A1) (A2) (A2) (B1) (B2)
                 (A1) (B2) (A1) (B1) (A1) (B1) (A2) (B2) (B2) (A1)
                 (B1) (A2) (A1) (A1) (B2) (A1) (B2)
 ExpMin= 1.21D-01 ExpMax= 1.54D+05 ExpMxC= 1.49D+03 IAcc=3 IRadAn=         5 AccDes= 0.00D+00
 Harris functional with IExCor=  402 and IRadAn=       5 diagonalized for initial guess.
 HarFok:  IExCor=  402 AccDes= 0.00D+00 IRadAn=         5 IDoV= 1 UseB2=F ITyADJ=14
 ICtDFT=  3500011 ScaDFX=  1.000000  1.000000  1.000000  1.000000
 FoFCou: FMM=F IPFlag=           0 FMFlag=      100000 FMFlg1=           0
         NFxFlg=           0 DoJE=T BraDBF=F KetDBF=T FulRan=T
         wScrn=  0.000000 ICntrl=       500 IOpCl=  0 I1Cent=   200000004 NGrid=           0
         NMat0=    1 NMatS0=      1 NMatT0=    0 NMatD0=    1 NMtDS0=    0 NMtDT0=    0
 Petite list used in FoFCou.
 Keep R1 ints in memory in symmetry-blocked form, NReq=23048886.
 Requested convergence on RMS density matrix=1.00D-08 within 128 cycles.
 Requested convergence on MAX density matrix=1.00D-06.
 Requested convergence on             energy=1.00D-06.
 No special actions if energy rises.
 Integral accuracy reduced to 1.0D-05 until final iterations.
 Initial convergence to 1.0D-05 achieved.  Increase integral accuracy.
 SCF Done:  E(RB3LYP) =  -995.600914580     A.U. after   12 cycles
            NFock= 12  Conv=0.76D-08     -V/T= 2.0011
 Calling FoFJK, ICntrl=      2127 FMM=F ISym2X=1 I1Cent= 0 IOpClX= 0 NMat=1 NMatS=1 NMatT=0.
 ***** Axes restored to original set *****
 -------------------------------------------------------------------
 Center     Atomic                   Forces (Hartrees/Bohr)
 Number     Number              X              Y              Z
 -------------------------------------------------------------------
      1        8          -0.001736309    0.000000000   -0.001332316
      2       17           0.003688806   -0.000000000   -0.003009786
      3       17          -0.001952497   -0.000000000    0.004342103
 -------------------------------------------------------------------
 Cartesian Forces:  Max     0.004342103 RMS     0.002359897

 GradGradGradGradGradGradGradGradGradGradGradGradGradGradGradGradGradGrad
 Berny optimization.
 Using GEDIIS/GDIIS optimizer.
 FormGI is forming the generalized inverse of G from B-inverse, IUseBI=4.
 Internal  Forces:  Max     0.011059066 RMS     0.006937968
 Search for a local minimum.
 Step number   2 out of a maximum of   20
 All quantities printed in internal units (Hartrees-Bohrs-Radians)
 Mixed Optimization -- RFO/linear search
 Update second derivatives using D2CorX and points    1    2
 DE= -2.95D-03 DEPred=-4.60D-03 R= 6.40D-01
 TightC=F SS=  1.41D+00  RLast= 1.83D-01 DXNew= 5.0454D-01 5.4921D-01
 Trust test= 6.40D-01 RLast= 1.83D-01 DXMaxT set to 5.05D-01
 The second derivative matrix:
                          R1        R2        A1
           R1           0.36416
           R2           0.00526   0.36416
           A1           0.01847   0.01847   0.31454
 ITU=  1  0
 Use linear search instead of GDIIS.
     Eigenvalues ---    0.30410   0.35890   0.37986
 RFO step:  Lambda=-1.26109529D-07 EMin= 3.04101330D-01
 Quartic linear search produced a step of -0.23642.
 Iteration  1 RMS(Cart)=  0.04307987 RMS(Int)=  0.00057956
 Iteration  2 RMS(Cart)=  0.00047727 RMS(Int)=  0.00000001
 Iteration  3 RMS(Cart)=  0.00000002 RMS(Int)=  0.00000000
 ClnCor:  largest displacement from symmetrization is 9.16D-16 for atom     3.
 Variable       Old X    -DE/DX   Delta X   Delta X   Delta X     New X
                                 (Linear)    (Quad)   (Total)
    R1        3.24503  -0.00332  -0.00768  -0.00040  -0.00808   3.23695
    R2        3.24503  -0.00332  -0.00768  -0.00040  -0.00808   3.23695
    A1        2.00981  -0.01106  -0.04190   0.00021  -0.04168   1.96812
         Item               Value     Threshold  Converged?
 Maximum Force            0.011059     0.000450     NO 
 RMS     Force            0.006938     0.000300     NO 
 Maximum Displacement     0.045176     0.001800     NO 
 RMS     Displacement     0.043273     0.001200     NO 
 Predicted change in Energy=-2.048878D-04
 GradGradGradGradGradGradGradGradGradGradGradGradGradGradGradGradGradGrad

                          Input orientation:                          
 ---------------------------------------------------------------------
 Center     Atomic      Atomic             Coordinates (Angstroms)
 Number     Number       Type             X           Y           Z
 ---------------------------------------------------------------------
      1          8           0        0.045774    0.000000    0.035124
      2         17           0       -0.070211   -0.000000    1.744111
      3         17           0        1.666510    0.000000   -0.519228
 ---------------------------------------------------------------------
                    Distance matrix (angstroms):
                    1          2          3
     1  O    0.000000
     2  Cl   1.712919   0.000000
     3  Cl   1.712919   2.852877   0.000000
 Stoichiometry    Cl2O
 Framework group  C2V[C2(O),SGV(Cl2)]
 Deg. of freedom     2
 Full point group                 C2V     NOp   4
 Largest Abelian subgroup         C2V     NOp   4
 Largest concise Abelian subgroup C2      NOp   2
                         Standard orientation:                         
 ---------------------------------------------------------------------
 Center     Atomic      Atomic             Coordinates (Angstroms)
 Number     Number       Type             X           Y           Z
 ---------------------------------------------------------------------
      1          8           0       -0.000000    0.000000    0.767711
      2         17           0        0.000000    1.426438   -0.180638
      3         17           0       -0.000000   -1.426438   -0.180638
 ---------------------------------------------------------------------
 Rotational constants (GHZ):          43.1664405           3.5514022           3.2814313
 Basis read from rwf:  (5D, 7F)
 There are    43 symmetry adapted cartesian basis functions of A1  symmetry.
 There are    15 symmetry adapted cartesian basis functions of A2  symmetry.
 There are    20 symmetry adapted cartesian basis functions of B1  symmetry.
 There are    35 symmetry adapted cartesian basis functions of B2  symmetry.
 There are    36 symmetry adapted basis functions of A1  symmetry.
 There are    14 symmetry adapted basis functions of A2  symmetry.
 There are    18 symmetry adapted basis functions of B1  symmetry.
 There are    30 symmetry adapted basis functions of B2  symmetry.
    98 basis functions,   191 primitive gaussians,   113 cartesian basis functions
    21 alpha electrons       21 beta electrons
       nuclear repulsion energy       137.6361104469 Hartrees.
 NAtoms=    3 NActive=    3 NUniq=    2 SFac= 2.25D+00 NAtFMM=   60 NAOKFM=F Big=F
 Integral buffers will be    131072 words long.
 Raffenetti 2 integral format.
 Two-electron integral symmetry is turned on.
 One-electron integrals computed using PRISM.
 NBasis=    98 RedAO= T EigKep=  9.27D-03  NBF=    36    14    18    30
 NBsUse=    98 1.00D-06 EigRej= -1.00D+00 NBFU=    36    14    18    30
 Initial guess from the checkpoint file:  "/wrk/irikura/Gau-7639.chk"
 B after Tr=     0.000000    0.000000   -0.000000
         Rot=    1.000000    0.000000    0.000000    0.000000 Ang=   0.00 deg.
 Initial guess orbital symmetries:
       Occupied  (B2) (A1) (A1) (B2) (A1) (A1) (B2) (A1) (B2) (B1)
                 (A2) (A1) (B2) (A1) (B2) (A1) (B1) (A2) (A1) (B2)
                 (B1)
       Virtual   (A1) (B2) (B2) (A1) (B1) (A1) (B2) (B2) (A1) (A2)
                 (B1) (A1) (A2) (A1) (B1) (B2) (A2) (A1) (B2) (B1)
                 (A1) (B2) (A1) (B2) (B1) (A1) (A2) (A1) (B2) (B1)
                 (A2) (B2) (A1) (B1) (B2) (A2) (A1) (B2) (B1) (A1)
                 (B2) (B1) (A1) (A2) (B2) (A1) (B2) (A2) (B1) (A1)
                 (A1) (B2) (A1) (B1) (B2) (A2) (A1) (B2) (A2) (B1)
                 (A1) (B2) (A1) (B1) (A1) (A2) (B1) (B2) (B2) (A1)
                 (B1) (A1) (A2) (A1) (B2) (A1) (B2)
 ExpMin= 1.21D-01 ExpMax= 1.54D+05 ExpMxC= 1.49D+03 IAcc=3 IRadAn=         5 AccDes= 0.00D+00
 Harris functional with IExCor=  402 and IRadAn=       5 diagonalized for initial guess.
 HarFok:  IExCor=  402 AccDes= 0.00D+00 IRadAn=         5 IDoV= 1 UseB2=F ITyADJ=14
 ICtDFT=  3500011 ScaDFX=  1.000000  1.000000  1.000000  1.000000
 FoFCou: FMM=F IPFlag=           0 FMFlag=      100000 FMFlg1=           0
         NFxFlg=           0 DoJE=T BraDBF=F KetDBF=T FulRan=T
         wScrn=  0.000000 ICntrl=       500 IOpCl=  0 I1Cent=   200000004 NGrid=           0
         NMat0=    1 NMatS0=      1 NMatT0=    0 NMatD0=    1 NMtDS0=    0 NMtDT0=    0
 Petite list used in FoFCou.
 Keep R1 ints in memory in symmetry-blocked form, NReq=23048886.
 Requested convergence on RMS density matrix=1.00D-08 within 128 cycles.
 Requested convergence on MAX density matrix=1.00D-06.
 Requested convergence on             energy=1.00D-06.
 No special actions if energy rises.
 Integral accuracy reduced to 1.0D-05 until final iterations.
 Initial convergence to 1.0D-05 achieved.  Increase integral accuracy.
 SCF Done:  E(RB3LYP) =  -995.601174048     A.U. after   11 cycles
            NFock= 11  Conv=0.60D-08     -V/T= 2.0010
 Calling FoFJK, ICntrl=      2127 FMM=F ISym2X=1 I1Cent= 0 IOpClX= 0 NMat=1 NMatS=1 NMatT=0.
 ***** Axes restored to original set *****
 -------------------------------------------------------------------
 Center     Atomic                   Forces (Hartrees/Bohr)
 Number     Number              X              Y              Z
 -------------------------------------------------------------------
      1        8           0.000394149    0.000000000    0.000302441
      2       17          -0.000048181   -0.000000000   -0.000345263
      3       17          -0.000345968   -0.000000000    0.000042822
 -------------------------------------------------------------------
 Cartesian Forces:  Max     0.000394149 RMS     0.000233305

 GradGradGradGradGradGradGradGradGradGradGradGradGradGradGradGradGradGrad
 Berny optimization.
 Using GEDIIS/GDIIS optimizer.
 FormGI is forming the generalized inverse of G from B-inverse, IUseBI=4.
 Internal  Forces:  Max     0.000341208 RMS     0.000308941
 Search for a local minimum.
 Step number   3 out of a maximum of   20
 All quantities printed in internal units (Hartrees-Bohrs-Radians)
 Mixed Optimization -- En-DIIS/RFO-DIIS
 Update second derivatives using D2CorX and points    1    2    3
 DE= -2.59D-04 DEPred=-2.05D-04 R= 1.27D+00
 TightC=F SS=  1.41D+00  RLast= 4.32D-02 DXNew= 8.4853D-01 1.2966D-01
 Trust test= 1.27D+00 RLast= 4.32D-02 DXMaxT set to 5.05D-01
 The second derivative matrix:
                          R1        R2        A1
           R1           0.35852
           R2          -0.00038   0.35852
           A1           0.00213   0.00213   0.27004
 ITU=  1  1  0
 Use linear search instead of GDIIS.
     Eigenvalues ---    0.26994   0.35824   0.35890
 RFO step:  Lambda=-8.21237500D-07 EMin= 2.69940921D-01
 Quartic linear search produced a step of -0.00758.
 Iteration  1 RMS(Cart)=  0.00079479 RMS(Int)=  0.00000028
 Iteration  2 RMS(Cart)=  0.00000040 RMS(Int)=  0.00000000
 ClnCor:  largest displacement from symmetrization is 2.49D-13 for atom     3.
 Variable       Old X    -DE/DX   Delta X   Delta X   Delta X     New X
                                 (Linear)    (Quad)   (Total)
    R1        3.23695  -0.00034   0.00006  -0.00102  -0.00096   3.23599
    R2        3.23695  -0.00034   0.00006  -0.00102  -0.00096   3.23599
    A1        1.96812   0.00023   0.00032   0.00054   0.00086   1.96898
         Item               Value     Threshold  Converged?
 Maximum Force            0.000341     0.000450     YES
 RMS     Force            0.000309     0.000300     NO 
 Maximum Displacement     0.000891     0.001800     YES
 RMS     Displacement     0.000795     0.001200     YES
 Predicted change in Energy=-4.275890D-07
 GradGradGradGradGradGradGradGradGradGradGradGradGradGradGradGradGradGrad

                          Input orientation:                          
 ---------------------------------------------------------------------
 Center     Atomic      Atomic             Coordinates (Angstroms)
 Number     Number       Type             X           Y           Z
 ---------------------------------------------------------------------
      1          8           0        0.046246    0.000000    0.035486
      2         17           0       -0.070436   -0.000000    1.743917
      3         17           0        1.666264    0.000000   -0.519395
 ---------------------------------------------------------------------
                    Distance matrix (angstroms):
                    1          2          3
     1  O    0.000000
     2  Cl   1.712411   0.000000
     3  Cl   1.712411   2.852841   0.000000
 Stoichiometry    Cl2O
 Framework group  C2V[C2(O),SGV(Cl2)]
 Deg. of freedom     2
 Full point group                 C2V     NOp   4
 Largest Abelian subgroup         C2V     NOp   4
 Largest concise Abelian subgroup C2      NOp   2
                         Standard orientation:                         
 ---------------------------------------------------------------------
 Center     Atomic      Atomic             Coordinates (Angstroms)
 Number     Number       Type             X           Y           Z
 ---------------------------------------------------------------------
      1          8           0        0.000000    0.000000    0.766989
      2         17           0        0.000000    1.426421   -0.180468
      3         17           0       -0.000000   -1.426421   -0.180468
 ---------------------------------------------------------------------
 Rotational constants (GHZ):          43.2477215           3.5514894           3.2819747
 Basis read from rwf:  (5D, 7F)
 There are    43 symmetry adapted cartesian basis functions of A1  symmetry.
 There are    15 symmetry adapted cartesian basis functions of A2  symmetry.
 There are    20 symmetry adapted cartesian basis functions of B1  symmetry.
 There are    35 symmetry adapted cartesian basis functions of B2  symmetry.
 There are    36 symmetry adapted basis functions of A1  symmetry.
 There are    14 symmetry adapted basis functions of A2  symmetry.
 There are    18 symmetry adapted basis functions of B1  symmetry.
 There are    30 symmetry adapted basis functions of B2  symmetry.
    98 basis functions,   191 primitive gaussians,   113 cartesian basis functions
    21 alpha electrons       21 beta electrons
       nuclear repulsion energy       137.6617002802 Hartrees.
 NAtoms=    3 NActive=    3 NUniq=    2 SFac= 2.25D+00 NAtFMM=   60 NAOKFM=F Big=F
 Integral buffers will be    131072 words long.
 Raffenetti 2 integral format.
 Two-electron integral symmetry is turned on.
 One-electron integrals computed using PRISM.
 NBasis=    98 RedAO= T EigKep=  9.26D-03  NBF=    36    14    18    30
 NBsUse=    98 1.00D-06 EigRej= -1.00D+00 NBFU=    36    14    18    30
 Initial guess from the checkpoint file:  "/wrk/irikura/Gau-7639.chk"
 B after Tr=     0.000000   -0.000000    0.000000
         Rot=    1.000000   -0.000000   -0.000000   -0.000000 Ang=   0.00 deg.
 Initial guess orbital symmetries:
       Occupied  (B2) (A1) (A1) (B2) (A1) (A1) (B2) (A1) (B2) (B1)
                 (A2) (A1) (B2) (A1) (B2) (A1) (B1) (A2) (A1) (B2)
                 (B1)
       Virtual   (A1) (B2) (B2) (A1) (B1) (A1) (B2) (B2) (A1) (A2)
                 (B1) (A1) (A2) (A1) (B1) (B2) (A2) (A1) (B2) (B1)
                 (A1) (B2) (A1) (B2) (B1) (A2) (A1) (A1) (B2) (B1)
                 (B2) (A2) (A1) (B1) (B2) (A2) (A1) (B2) (B1) (B1)
                 (A1) (B2) (A1) (A2) (B2) (A1) (B2) (A2) (B1) (A1)
                 (A1) (B2) (A1) (B1) (B2) (A2) (A1) (B2) (A2) (B1)
                 (A1) (B2) (A1) (B1) (A1) (A2) (B1) (B2) (B2) (A1)
                 (B1) (A1) (A2) (A1) (B2) (A1) (B2)
 Keep R1 ints in memory in symmetry-blocked form, NReq=23048886.
 Requested convergence on RMS density matrix=1.00D-08 within 128 cycles.
 Requested convergence on MAX density matrix=1.00D-06.
 Requested convergence on             energy=1.00D-06.
 No special actions if energy rises.
 SCF Done:  E(RB3LYP) =  -995.601174638     A.U. after    7 cycles
            NFock=  7  Conv=0.43D-08     -V/T= 2.0010
 Calling FoFJK, ICntrl=      2127 FMM=F ISym2X=1 I1Cent= 0 IOpClX= 0 NMat=1 NMatS=1 NMatT=0.
 ***** Axes restored to original set *****
 -------------------------------------------------------------------
 Center     Atomic                   Forces (Hartrees/Bohr)
 Number     Number              X              Y              Z
 -------------------------------------------------------------------
      1        8           0.000149868    0.000000000    0.000114998
      2       17          -0.000008122   -0.000000000   -0.000144571
      3       17          -0.000141746   -0.000000000    0.000029573
 -------------------------------------------------------------------
 Cartesian Forces:  Max     0.000149868 RMS     0.000092867

 GradGradGradGradGradGradGradGradGradGradGradGradGradGradGradGradGradGrad
 Berny optimization.
 Using GEDIIS/GDIIS optimizer.
 FormGI is forming the generalized inverse of G from B-inverse, IUseBI=4.
 Internal  Forces:  Max     0.000143681 RMS     0.000122016
 Search for a local minimum.
 Step number   4 out of a maximum of   20
 All quantities printed in internal units (Hartrees-Bohrs-Radians)
 Mixed Optimization -- En-DIIS/RFO-DIIS
 Swapping is turned off.
 Update second derivatives using D2CorX and points    1    2    3    4
 DE= -5.89D-07 DEPred=-4.28D-07 R= 1.38D+00
 Trust test= 1.38D+00 RLast= 1.61D-03 DXMaxT set to 5.05D-01
 The second derivative matrix:
                          R1        R2        A1
           R1           0.29479
           R2          -0.06411   0.29479
           A1           0.02798   0.02798   0.26514
 ITU=  0  1  1  0
     Eigenvalues ---    0.20475   0.29107   0.35890
 En-DIIS/RFO-DIIS/Sim-DIIS IScMMF=       -3 using points:     4    3
 RFO step:  Lambda=-2.12433984D-07.
 DidBck=F Rises=F RFO-DIIS coefs:    1.61636   -0.61636
 Iteration  1 RMS(Cart)=  0.00044518 RMS(Int)=  0.00000006
 Iteration  2 RMS(Cart)=  0.00000010 RMS(Int)=  0.00000000
 ClnCor:  largest displacement from symmetrization is 9.63D-13 for atom     3.
 Variable       Old X    -DE/DX   Delta X   Delta X   Delta X     New X
                                 (Linear)    (Quad)   (Total)
    R1        3.23599  -0.00014  -0.00059  -0.00007  -0.00067   3.23532
    R2        3.23599  -0.00014  -0.00059  -0.00007  -0.00067   3.23532
    A1        1.96898   0.00006   0.00053  -0.00017   0.00036   1.96934
         Item               Value     Threshold  Converged?
 Maximum Force            0.000144     0.000450     YES
 RMS     Force            0.000122     0.000300     YES
 Maximum Displacement     0.000452     0.001800     YES
 RMS     Displacement     0.000445     0.001200     YES
 Predicted change in Energy=-1.062170D-07
 Optimization completed.
    -- Stationary point found.
                           ----------------------------
                           !   Optimized Parameters   !
                           ! (Angstroms and Degrees)  !
 --------------------------                            --------------------------
 ! Name  Definition              Value          Derivative Info.                !
 --------------------------------------------------------------------------------
 ! R1    R(1,2)                  1.7124         -DE/DX =   -0.0001              !
 ! R2    R(1,3)                  1.7124         -DE/DX =   -0.0001              !
 ! A1    A(2,1,3)              112.8142         -DE/DX =    0.0001              !
 --------------------------------------------------------------------------------
 GradGradGradGradGradGradGradGradGradGradGradGradGradGradGradGradGradGrad

                          Input orientation:                          
 ---------------------------------------------------------------------
 Center     Atomic      Atomic             Coordinates (Angstroms)
 Number     Number       Type             X           Y           Z
 ---------------------------------------------------------------------
      1          8           0        0.046246    0.000000    0.035486
      2         17           0       -0.070436   -0.000000    1.743917
      3         17           0        1.666264    0.000000   -0.519395
 ---------------------------------------------------------------------
                    Distance matrix (angstroms):
                    1          2          3
     1  O    0.000000
     2  Cl   1.712411   0.000000
     3  Cl   1.712411   2.852841   0.000000
 Stoichiometry    Cl2O
 Framework group  C2V[C2(O),SGV(Cl2)]
 Deg. of freedom     2
 Full point group                 C2V     NOp   4
 Largest Abelian subgroup         C2V     NOp   4
 Largest concise Abelian subgroup C2      NOp   2
                         Standard orientation:                         
 ---------------------------------------------------------------------
 Center     Atomic      Atomic             Coordinates (Angstroms)
 Number     Number       Type             X           Y           Z
 ---------------------------------------------------------------------
      1          8           0        0.000000    0.000000    0.766989
      2         17           0        0.000000    1.426421   -0.180468
      3         17           0       -0.000000   -1.426421   -0.180468
 ---------------------------------------------------------------------
 Rotational constants (GHZ):          43.2477215           3.5514894           3.2819747

 **********************************************************************

            Population analysis using the SCF Density.

 **********************************************************************

 Orbital symmetries:
       Occupied  (B2) (A1) (A1) (B2) (A1) (A1) (B2) (A1) (B2) (B1)
                 (A2) (A1) (B2) (A1) (B2) (A1) (B1) (A2) (A1) (B2)
                 (B1)
       Virtual   (A1) (B2) (B2) (A1) (B1) (A1) (B2) (B2) (A1) (A2)
                 (B1) (A1) (A2) (A1) (B1) (B2) (A2) (A1) (B2) (B1)
                 (A1) (B2) (A1) (B2) (B1) (A2) (A1) (A1) (B2) (B1)
                 (B2) (A2) (A1) (B1) (B2) (A2) (A1) (B2) (B1) (B1)
                 (A1) (B2) (A2) (A1) (B2) (A1) (B2) (A2) (B1) (A1)
                 (A1) (B2) (A1) (B1) (B2) (A2) (A1) (B2) (A2) (B1)
                 (A1) (B2) (A1) (B1) (A1) (A2) (B1) (B2) (B2) (A1)
                 (B1) (A1) (A2) (A1) (B2) (A1) (B2)
 The electronic state is 1-A1.
 Alpha  occ. eigenvalues -- -101.57831-101.57831 -19.26279  -9.51914  -9.51913
 Alpha  occ. eigenvalues --   -7.28512  -7.28512  -7.27035  -7.27035  -7.26964
 Alpha  occ. eigenvalues --   -7.26964  -1.10839  -0.87392  -0.77417  -0.53487
 Alpha  occ. eigenvalues --   -0.48809  -0.46809  -0.35803  -0.35154  -0.34357
 Alpha  occ. eigenvalues --   -0.29738
 Alpha virt. eigenvalues --   -0.14151  -0.07000   0.24613   0.26049   0.27541
 Alpha virt. eigenvalues --    0.29910   0.31159   0.32001   0.32176   0.32272
 Alpha virt. eigenvalues --    0.34233   0.38276   0.49086   0.50036   0.51384
 Alpha virt. eigenvalues --    0.53046   0.54295   0.55035   0.61535   0.61771
 Alpha virt. eigenvalues --    0.64681   0.69365   0.88327   0.95631   1.42859
 Alpha virt. eigenvalues --    1.43951   1.44054   1.68297   1.71726   1.95903
 Alpha virt. eigenvalues --    2.05922   2.05964   2.06815   2.07504   2.08263
 Alpha virt. eigenvalues --    2.08583   2.09824   2.10470   2.10629   2.14493
 Alpha virt. eigenvalues --    2.14508   2.14541   2.16164   2.16207   2.18225
 Alpha virt. eigenvalues --    2.20646   2.32578   2.37400   2.51608   2.52838
 Alpha virt. eigenvalues --    2.65784   2.93951   3.37926   3.43250   3.43535
 Alpha virt. eigenvalues --    3.44569   3.45270   3.48019   3.48671   3.50005
 Alpha virt. eigenvalues --    3.64494   3.95133   3.95827   3.96859   4.03308
 Alpha virt. eigenvalues --    4.30163   4.33512   4.52427   4.80381   5.24726
 Alpha virt. eigenvalues --    6.06663   6.17317   6.19305   6.62389   6.74076
 Alpha virt. eigenvalues --   31.67839  32.32815
          Condensed to atoms (all electrons):
               1          2          3
     1  O    8.149648   0.036451   0.036451
     2  Cl   0.036451  16.907866  -0.055592
     3  Cl   0.036451  -0.055592  16.907866
 Mulliken charges:
               1
     1  O   -0.222550
     2  Cl   0.111275
     3  Cl   0.111275
 Sum of Mulliken charges =  -0.00000
 Mulliken charges with hydrogens summed into heavy atoms:
               1
     1  O   -0.222550
     2  Cl   0.111275
     3  Cl   0.111275
 Electronic spatial extent (au):  <R**2>=            333.5884
 Charge=             -0.0000 electrons
 Dipole moment (field-independent basis, Debye):
    X=             -0.0000    Y=              0.0000    Z=             -0.7179  Tot=              0.7179
 Quadrupole moment (field-independent basis, Debye-Ang):
   XX=            -30.9898   YY=            -27.1037   ZZ=            -30.3901
   XY=              0.0000   XZ=             -0.0000   YZ=             -0.0000
 Traceless Quadrupole moment (field-independent basis, Debye-Ang):
   XX=             -1.4952   YY=              2.3908   ZZ=             -0.8956
   XY=              0.0000   XZ=             -0.0000   YZ=             -0.0000
 Octapole moment (field-independent basis, Debye-Ang**2):
  XXX=              0.0000  YYY=              0.0000  ZZZ=              0.8306  XYY=              0.0000
  XXY=              0.0000  XXZ=              0.5851  XZZ=              0.0000  YZZ=              0.0000
  YYZ=             -4.2952  XYZ=             -0.0000
 Hexadecapole moment (field-independent basis, Debye-Ang**3):
 XXXX=            -33.7695 YYYY=           -304.0485 ZZZZ=            -55.5170 XXXY=             -0.0000
 XXXZ=             -0.0000 YYYX=             -0.0000 YYYZ=             -0.0000 ZZZX=             -0.0000
 ZZZY=             -0.0000 XXYY=            -63.5923 XXZZ=            -15.2065 YYZZ=            -60.9527
 XXYZ=             -0.0000 YYXZ=              0.0000 ZZXY=             -0.0000
 N-N= 1.376617002802D+02 E-N=-2.642409805499D+03  KE= 9.945745081719D+02
 Symmetry A1   KE= 4.804601600213D+02
 Symmetry A2   KE= 4.638215354890D+01
 Symmetry B1   KE= 5.123201352819D+01
 Symmetry B2   KE= 4.165001810735D+02
 B after Tr=     0.018727   -0.000000    0.014370
         Rot=    1.000000    0.000000    0.000000   -0.000000 Ang=   0.00 deg.
 Final structure in terms of initial Z-matrix:
 O
 Cl,1,r
 Cl,1,r,2,a
      Variables:
 r=1.71241067
 a=112.81421356
 1\1\GINC-GAMBA\FOpt\RB3LYP\Gen\Cl2O1\IRIKURA\16-Jun-2022\0\\# b3lyp/ge
 n opt freq\\oxygen dichloride, B3LYP/pcseg-2\\0,1\O,0.0462460254,0.,0.
 0354858234\Cl,-0.0704359929,0.,1.7439165645\Cl,1.6662638721,0.,-0.5193
 947646\\Version=ES64L-G16RevB.01\State=1-A1\HF=-995.6011746\RMSD=4.279
 e-09\RMSF=9.287e-05\Dipole=0.2240905,0.,0.1719507\Quadrupole=0.2396439
 ,-1.1116644,0.8720205,0.,-1.1800307,0.\PG=C02V [C2(O1),SGV(Cl2)]\\@


 ALL MEN WHO EXPLORE
 DEPLORE
 THAT FRUSTRATING HURDLE
 THE GIRDLE.

         -- COLIN FLETCHER
 Job cpu time:       0 days  0 hours  1 minutes 57.7 seconds.
 Elapsed time:       0 days  0 hours  0 minutes 10.0 seconds.
 File lengths (MBytes):  RWF=     10 Int=      0 D2E=      0 Chk=      2 Scr=      1
 Normal termination of Gaussian 16 at Thu Jun 16 10:41:40 2022.
 Link1:  Proceeding to internal job step number  2.
 ------------------------------------------------------------------
 #N Geom=AllCheck Guess=TCheck SCRF=Check GenChk RB3LYP/ChkBas Freq
 ------------------------------------------------------------------
 1/10=4,29=7,30=1,38=1,40=1/1,3;
 2/12=2,40=1/2;
 3/5=7,6=2,11=2,14=-4,25=1,30=1,67=1,70=2,71=2,74=-5,82=7,116=1,140=1/1,2,3;
 4/5=101/1;
 5/5=2,38=6,98=1/2;
 8/6=4,10=90,11=11/1;
 11/6=1,8=1,9=11,15=111,16=1/1,2,10;
 10/6=1/2;
 6/7=2,8=2,9=2,10=2,28=1/1;
 7/8=1,10=1,25=1/1,2,3,16;
 1/10=4,30=1/3;
 99//99;
 Structure from the checkpoint file:  "/wrk/irikura/Gau-7639.chk"
 --------------------------------
 oxygen dichloride, B3LYP/pcseg-2
 --------------------------------
 Charge =  0 Multiplicity = 1
 Redundant internal coordinates found in file.  (old form).
 O,0,0.0462460254,0.,0.0354858234
 Cl,0,-0.0704359929,0.,1.7439165645
 Cl,0,1.6662638721,0.,-0.5193947646
 Recover connectivity data from disk.

 GradGradGradGradGradGradGradGradGradGradGradGradGradGradGradGradGradGrad
 Berny optimization.
 Initialization pass.
                           ----------------------------
                           !    Initial Parameters    !
                           ! (Angstroms and Degrees)  !
 --------------------------                            --------------------------
 ! Name  Definition              Value          Derivative Info.                !
 --------------------------------------------------------------------------------
 ! R1    R(1,2)                  1.7124         calculate D2E/DX2 analytically  !
 ! R2    R(1,3)                  1.7124         calculate D2E/DX2 analytically  !
 ! A1    A(2,1,3)              112.8142         calculate D2E/DX2 analytically  !
 --------------------------------------------------------------------------------
 Trust Radius=3.00D-01 FncErr=1.00D-07 GrdErr=1.00D-07 EigMax=2.50D+02 EigMin=1.00D-04
 Number of steps in this run=      2 maximum allowed number of steps=      2.
 GradGradGradGradGradGradGradGradGradGradGradGradGradGradGradGradGradGrad

                          Input orientation:                          
 ---------------------------------------------------------------------
 Center     Atomic      Atomic             Coordinates (Angstroms)
 Number     Number       Type             X           Y           Z
 ---------------------------------------------------------------------
      1          8           0        0.046246    0.000000    0.035486
      2         17           0       -0.070436   -0.000000    1.743917
      3         17           0        1.666264    0.000000   -0.519395
 ---------------------------------------------------------------------
                    Distance matrix (angstroms):
                    1          2          3
     1  O    0.000000
     2  Cl   1.712411   0.000000
     3  Cl   1.712411   2.852841   0.000000
 Stoichiometry    Cl2O
 Framework group  C2V[C2(O),SGV(Cl2)]
 Deg. of freedom     2
 Full point group                 C2V     NOp   4
 Largest Abelian subgroup         C2V     NOp   4
 Largest concise Abelian subgroup C2      NOp   2
                         Standard orientation:                         
 ---------------------------------------------------------------------
 Center     Atomic      Atomic             Coordinates (Angstroms)
 Number     Number       Type             X           Y           Z
 ---------------------------------------------------------------------
      1          8           0        0.000000    0.000000    0.766989
      2         17           0       -0.000000    1.426421   -0.180468
      3         17           0       -0.000000   -1.426421   -0.180468
 ---------------------------------------------------------------------
 Rotational constants (GHZ):          43.2477215           3.5514894           3.2819747
 Basis read from chk: "/wrk/irikura/Gau-7639.chk" (5D, 7F)
 There are    43 symmetry adapted cartesian basis functions of A1  symmetry.
 There are    15 symmetry adapted cartesian basis functions of A2  symmetry.
 There are    20 symmetry adapted cartesian basis functions of B1  symmetry.
 There are    35 symmetry adapted cartesian basis functions of B2  symmetry.
 There are    36 symmetry adapted basis functions of A1  symmetry.
 There are    14 symmetry adapted basis functions of A2  symmetry.
 There are    18 symmetry adapted basis functions of B1  symmetry.
 There are    30 symmetry adapted basis functions of B2  symmetry.
    98 basis functions,   191 primitive gaussians,   113 cartesian basis functions
    21 alpha electrons       21 beta electrons
       nuclear repulsion energy       137.6617002802 Hartrees.
 NAtoms=    3 NActive=    3 NUniq=    2 SFac= 2.25D+00 NAtFMM=   60 NAOKFM=F Big=F
 Integral buffers will be    131072 words long.
 Raffenetti 2 integral format.
 Two-electron integral symmetry is turned on.
 One-electron integrals computed using PRISM.
 NBasis=    98 RedAO= T EigKep=  9.26D-03  NBF=    36    14    18    30
 NBsUse=    98 1.00D-06 EigRej= -1.00D+00 NBFU=    36    14    18    30
 Initial guess from the checkpoint file:  "/wrk/irikura/Gau-7639.chk"
 B after Tr=     0.000000    0.000000   -0.000000
         Rot=    1.000000    0.000000    0.000000   -0.000000 Ang=   0.00 deg.
 Initial guess orbital symmetries:
       Occupied  (B2) (A1) (A1) (B2) (A1) (A1) (B2) (A1) (B2) (B1)
                 (A2) (A1) (B2) (A1) (B2) (A1) (B1) (A2) (A1) (B2)
                 (B1)
       Virtual   (A1) (B2) (B2) (A1) (B1) (A1) (B2) (B2) (A1) (A2)
                 (B1) (A1) (A2) (A1) (B1) (B2) (A2) (A1) (B2) (B1)
                 (A1) (B2) (A1) (B2) (B1) (A2) (A1) (A1) (B2) (B1)
                 (B2) (A2) (A1) (B1) (B2) (A2) (A1) (B2) (B1) (B1)
                 (A1) (B2) (A2) (A1) (B2) (A1) (B2) (A2) (B1) (A1)
                 (A1) (B2) (A1) (B1) (B2) (A2) (A1) (B2) (A2) (B1)
                 (A1) (B2) (A1) (B1) (A1) (A2) (B1) (B2) (B2) (A1)
                 (B1) (A1) (A2) (A1) (B2) (A1) (B2)
 Keep R1 ints in memory in symmetry-blocked form, NReq=23048886.
 Requested convergence on RMS density matrix=1.00D-08 within 128 cycles.
 Requested convergence on MAX density matrix=1.00D-06.
 Requested convergence on             energy=1.00D-06.
 No special actions if energy rises.
 SCF Done:  E(RB3LYP) =  -995.601174638     A.U. after    1 cycles
            NFock=  1  Conv=0.64D-09     -V/T= 2.0010
 DoSCS=F DFT=T ScalE2(SS,OS)=  1.000000  1.000000
 Range of M.O.s used for correlation:     1    98
 NBasis=    98 NAE=    21 NBE=    21 NFC=     0 NFV=     0
 NROrb=     98 NOA=    21 NOB=    21 NVA=    77 NVB=    77
 Symmetrizing basis deriv contribution to polar:
 IMax=3 JMax=2 DiffMx= 0.00D+00
 G2DrvN: will do     4 centers at a time, making    1 passes.
 Calling FoFCou, ICntrl=  3107 FMM=F I1Cent=   0 AccDes= 0.00D+00.
 End of G2Drv F.D. properties file   721 does not exist.
 End of G2Drv F.D. properties file   722 does not exist.
 End of G2Drv F.D. properties file   788 does not exist.
          IDoAtm=111
          Differentiating once with respect to electric field.
                with respect to dipole field.
          Differentiating once with respect to nuclear coordinates.
 Keep R1 ints in memory in symmetry-blocked form, NReq=23009856.
          There are     9 degrees of freedom in the 1st order CPHF.  IDoFFX=4 NUNeed=     9.
      9 vectors produced by pass  0 Test12= 1.80D-14 1.11D-08 XBig12= 5.12D+01 4.04D+00.
 AX will form     9 AO Fock derivatives at one time.
      9 vectors produced by pass  1 Test12= 1.80D-14 1.11D-08 XBig12= 1.05D+01 1.17D+00.
      9 vectors produced by pass  2 Test12= 1.80D-14 1.11D-08 XBig12= 6.81D-01 3.06D-01.
      9 vectors produced by pass  3 Test12= 1.80D-14 1.11D-08 XBig12= 2.64D-02 4.40D-02.
      9 vectors produced by pass  4 Test12= 1.80D-14 1.11D-08 XBig12= 2.07D-04 3.82D-03.
      9 vectors produced by pass  5 Test12= 1.80D-14 1.11D-08 XBig12= 1.05D-06 2.37D-04.
      8 vectors produced by pass  6 Test12= 1.80D-14 1.11D-08 XBig12= 3.27D-09 1.52D-05.
      5 vectors produced by pass  7 Test12= 1.80D-14 1.11D-08 XBig12= 1.38D-11 1.27D-06.
      2 vectors produced by pass  8 Test12= 1.80D-14 1.11D-08 XBig12= 6.17D-14 6.20D-08.
 InvSVY:  IOpt=1 It=  1 EMax= 8.88D-16
 Solved reduced A of dimension    69 with     9 vectors.
 Isotropic polarizability for W=    0.000000       27.69 Bohr**3.
 End of Minotr F.D. properties file   721 does not exist.
 End of Minotr F.D. properties file   722 does not exist.
 End of Minotr F.D. properties file   788 does not exist.

 **********************************************************************

            Population analysis using the SCF Density.

 **********************************************************************

 Orbital symmetries:
       Occupied  (B2) (A1) (A1) (B2) (A1) (A1) (B2) (A1) (B2) (B1)
                 (A2) (A1) (B2) (A1) (B2) (A1) (B1) (A2) (A1) (B2)
                 (B1)
       Virtual   (A1) (B2) (B2) (A1) (B1) (A1) (B2) (B2) (A1) (A2)
                 (B1) (A1) (A2) (A1) (B1) (B2) (A2) (A1) (B2) (B1)
                 (A1) (B2) (A1) (B2) (B1) (A2) (A1) (A1) (B2) (B1)
                 (B2) (A2) (A1) (B1) (B2) (A2) (A1) (B2) (B1) (B1)
                 (A1) (B2) (A2) (A1) (B2) (A1) (B2) (A2) (B1) (A1)
                 (A1) (B2) (A1) (B1) (B2) (A2) (A1) (B2) (A2) (B1)
                 (A1) (B2) (A1) (B1) (A1) (A2) (B1) (B2) (B2) (A1)
                 (B1) (A1) (A2) (A1) (B2) (A1) (B2)
 The electronic state is 1-A1.
 Alpha  occ. eigenvalues -- -101.57831-101.57831 -19.26279  -9.51914  -9.51913
 Alpha  occ. eigenvalues --   -7.28512  -7.28512  -7.27035  -7.27035  -7.26964
 Alpha  occ. eigenvalues --   -7.26964  -1.10839  -0.87392  -0.77417  -0.53487
 Alpha  occ. eigenvalues --   -0.48809  -0.46809  -0.35803  -0.35154  -0.34357
 Alpha  occ. eigenvalues --   -0.29738
 Alpha virt. eigenvalues --   -0.14151  -0.07000   0.24613   0.26049   0.27541
 Alpha virt. eigenvalues --    0.29910   0.31159   0.32001   0.32176   0.32272
 Alpha virt. eigenvalues --    0.34233   0.38276   0.49086   0.50036   0.51384
 Alpha virt. eigenvalues --    0.53046   0.54295   0.55035   0.61535   0.61771
 Alpha virt. eigenvalues --    0.64681   0.69365   0.88327   0.95631   1.42859
 Alpha virt. eigenvalues --    1.43951   1.44054   1.68297   1.71726   1.95903
 Alpha virt. eigenvalues --    2.05922   2.05964   2.06815   2.07504   2.08263
 Alpha virt. eigenvalues --    2.08583   2.09824   2.10470   2.10629   2.14493
 Alpha virt. eigenvalues --    2.14508   2.14541   2.16164   2.16207   2.18225
 Alpha virt. eigenvalues --    2.20646   2.32578   2.37400   2.51608   2.52838
 Alpha virt. eigenvalues --    2.65784   2.93951   3.37926   3.43250   3.43535
 Alpha virt. eigenvalues --    3.44569   3.45270   3.48019   3.48671   3.50005
 Alpha virt. eigenvalues --    3.64494   3.95133   3.95827   3.96859   4.03308
 Alpha virt. eigenvalues --    4.30163   4.33512   4.52427   4.80381   5.24726
 Alpha virt. eigenvalues --    6.06663   6.17317   6.19305   6.62389   6.74076
 Alpha virt. eigenvalues --   31.67839  32.32815
          Condensed to atoms (all electrons):
               1          2          3
     1  O    8.149648   0.036451   0.036451
     2  Cl   0.036451  16.907866  -0.055592
     3  Cl   0.036451  -0.055592  16.907866
 Mulliken charges:
               1
     1  O   -0.222550
     2  Cl   0.111275
     3  Cl   0.111275
 Sum of Mulliken charges =  -0.00000
 Mulliken charges with hydrogens summed into heavy atoms:
               1
     1  O   -0.222550
     2  Cl   0.111275
     3  Cl   0.111275
 APT charges:
               1
     1  O    0.035486
     2  Cl  -0.017743
     3  Cl  -0.017743
 Sum of APT charges =   0.00000
 APT charges with hydrogens summed into heavy atoms:
               1
     1  O    0.035486
     2  Cl  -0.017743
     3  Cl  -0.017743
 Electronic spatial extent (au):  <R**2>=            333.5884
 Charge=             -0.0000 electrons
 Dipole moment (field-independent basis, Debye):
    X=             -0.0000    Y=              0.0000    Z=             -0.7179  Tot=              0.7179
 Quadrupole moment (field-independent basis, Debye-Ang):
   XX=            -30.9898   YY=            -27.1037   ZZ=            -30.3901
   XY=              0.0000   XZ=             -0.0000   YZ=             -0.0000
 Traceless Quadrupole moment (field-independent basis, Debye-Ang):
   XX=             -1.4952   YY=              2.3908   ZZ=             -0.8956
   XY=              0.0000   XZ=             -0.0000   YZ=             -0.0000
 Octapole moment (field-independent basis, Debye-Ang**2):
  XXX=              0.0000  YYY=              0.0000  ZZZ=              0.8306  XYY=              0.0000
  XXY=              0.0000  XXZ=              0.5851  XZZ=              0.0000  YZZ=              0.0000
  YYZ=             -4.2952  XYZ=             -0.0000
 Hexadecapole moment (field-independent basis, Debye-Ang**3):
 XXXX=            -33.7695 YYYY=           -304.0485 ZZZZ=            -55.5170 XXXY=             -0.0000
 XXXZ=             -0.0000 YYYX=             -0.0000 YYYZ=             -0.0000 ZZZX=             -0.0000
 ZZZY=             -0.0000 XXYY=            -63.5923 XXZZ=            -15.2065 YYZZ=            -60.9527
 XXYZ=             -0.0000 YYXZ=              0.0000 ZZXY=             -0.0000
 N-N= 1.376617002802D+02 E-N=-2.642409805385D+03  KE= 9.945745081486D+02
 Symmetry A1   KE= 4.804601600535D+02
 Symmetry A2   KE= 4.638215349094D+01
 Symmetry B1   KE= 5.123201360994D+01
 Symmetry B2   KE= 4.165001809942D+02
  Exact polarizability:  14.760   0.000  47.141   0.000   0.000  21.156
 Approx polarizability:  21.693   0.000  73.703   0.000   0.000  37.535
 Calling FoFJK, ICntrl=    100127 FMM=F ISym2X=1 I1Cent= 0 IOpClX= 0 NMat=1 NMatS=1 NMatT=0.
 Full mass-weighted force constant matrix:
 Low frequencies ---  -17.7143   -9.1787   -8.7416   -0.0012    0.0007    0.0051
 Low frequencies ---  290.2102  654.7063  660.8564
 Diagonal vibrational polarizability:
        0.0000000       0.7954604       0.0861851
 Harmonic frequencies (cm**-1), IR intensities (KM/Mole), Raman scattering
 activities (A**4/AMU), depolarization ratios for plane and unpolarized
 incident light, reduced masses (AMU), force constants (mDyne/A),
 and normal coordinates:
                      1                      2                      3
                     A1                     A1                     B2
 Frequencies --    290.2102               654.7063               660.8563
 Red. masses --     29.6763                19.5673                18.4807
 Frc consts  --      1.4726                 4.9417                 4.7554
 IR Inten    --      0.0383                 1.1778                12.9092
  Atom  AN      X      Y      Z        X      Y      Z        X      Y      Z
     1   8    -0.00   0.00  -0.53     0.00  -0.00   0.90     0.00   0.93   0.00
     2  17     0.00   0.59   0.12    -0.00   0.23  -0.21    -0.00  -0.21   0.14
     3  17    -0.00  -0.59   0.12    -0.00  -0.23  -0.21    -0.00  -0.21  -0.14

 -------------------
 - Thermochemistry -
 -------------------
 Temperature   298.150 Kelvin.  Pressure   1.00000 Atm.
 Atom     1 has atomic number  8 and mass  15.99491
 Atom     2 has atomic number 17 and mass  34.96885
 Atom     3 has atomic number 17 and mass  34.96885
 Molecular mass:    85.93262 amu.
 Principal axes and moments of inertia in atomic units:
                           1         2         3
     Eigenvalues --    41.73032 508.16460 549.89492
           X           -0.00000   0.00000   1.00000
           Y            1.00000  -0.00000  -0.00000
           Z            0.00000   1.00000  -0.00000
 This molecule is an asymmetric top.
 Rotational symmetry number  2.
 Rotational temperatures (Kelvin)      2.07556     0.17044     0.15751
 Rotational constants (GHZ):          43.24772     3.55149     3.28197
 Zero-point vibrational energy       9604.7 (Joules/Mol)
                                    2.29557 (Kcal/Mol)
 Warning -- explicit consideration of   1 degrees of freedom as
           vibrations may cause significant error
 Vibrational temperatures:    417.55   941.98   950.82
          (Kelvin)
 
 Zero-point correction=                           0.003658 (Hartree/Particle)
 Thermal correction to Energy=                    0.007185
 Thermal correction to Enthalpy=                  0.008129
 Thermal correction to Gibbs Free Energy=        -0.022304
 Sum of electronic and zero-point Energies=           -995.597516
 Sum of electronic and thermal Energies=              -995.593990
 Sum of electronic and thermal Enthalpies=            -995.593045
 Sum of electronic and thermal Free Energies=         -995.623479
 
                     E (Thermal)             CV                S
                      KCal/Mol        Cal/Mol-Kelvin    Cal/Mol-Kelvin
 Total                    4.509              9.478             64.053
 Electronic               0.000              0.000              0.000
 Translational            0.889              2.981             39.266
 Rotational               0.889              2.981             22.593
 Vibrational              2.731              3.516              2.193
 Vibration     1          0.686              1.692              1.473
                       Q            Log10(Q)             Ln(Q)
 Total Bot       0.181649D+11         10.259234         23.622759
 Total V=0       0.874776D+12         11.941897         27.497234
 Vib (Bot)       0.300165D-01         -1.522640         -3.506009
 Vib (Bot)    1  0.658871D+00         -0.181199         -0.417227
 Vib (V=0)       0.144551D+01          0.160022          0.368465
 Vib (V=0)    1  0.132711D+01          0.122907          0.283004
 Electronic      0.100000D+01          0.000000          0.000000
 Translational   0.313106D+08          7.495691         17.259466
 Rotational      0.193278D+05          4.286184          9.869302
 ***** Axes restored to original set *****
 -------------------------------------------------------------------
 Center     Atomic                   Forces (Hartrees/Bohr)
 Number     Number              X              Y              Z
 -------------------------------------------------------------------
      1        8           0.000149873    0.000000000    0.000115001
      2       17          -0.000008127    0.000000000   -0.000144568
      3       17          -0.000141745   -0.000000000    0.000029566
 -------------------------------------------------------------------
 Cartesian Forces:  Max     0.000149873 RMS     0.000092867
 FormGI is forming the generalized inverse of G from B-inverse, IUseBI=4.

 GradGradGradGradGradGradGradGradGradGradGradGradGradGradGradGradGradGrad
 Berny optimization.
 Internal  Forces:  Max     0.000143678 RMS     0.000122017
 Search for a local minimum.
 Step number   1 out of a maximum of    2
 All quantities printed in internal units (Hartrees-Bohrs-Radians)
 Second derivative matrix not updated -- analytic derivatives used.
 The second derivative matrix:
                          R1        R2        A1
           R1           0.18845
           R2           0.04517   0.18845
           A1           0.03097   0.03097   0.27171
 ITU=  0
     Eigenvalues ---    0.14328   0.20491   0.30042
 Angle between quadratic step and forces=   5.30 degrees.
 Linear search not attempted -- first point.
 Iteration  1 RMS(Cart)=  0.00044497 RMS(Int)=  0.00000006
 Iteration  2 RMS(Cart)=  0.00000010 RMS(Int)=  0.00000000
 ClnCor:  largest displacement from symmetrization is 1.04D-12 for atom     3.
 Variable       Old X    -DE/DX   Delta X   Delta X   Delta X     New X
                                 (Linear)    (Quad)   (Total)
    R1        3.23599  -0.00014   0.00000  -0.00066  -0.00066   3.23532
    R2        3.23599  -0.00014   0.00000  -0.00066  -0.00066   3.23532
    A1        1.96898   0.00006   0.00000   0.00037   0.00037   1.96934
         Item               Value     Threshold  Converged?
 Maximum Force            0.000144     0.000450     YES
 RMS     Force            0.000122     0.000300     YES
 Maximum Displacement     0.000454     0.001800     YES
 RMS     Displacement     0.000445     0.001200     YES
 Predicted change in Energy=-1.059249D-07
 Optimization completed.
    -- Stationary point found.
                           ----------------------------
                           !   Optimized Parameters   !
                           ! (Angstroms and Degrees)  !
 --------------------------                            --------------------------
 ! Name  Definition              Value          Derivative Info.                !
 --------------------------------------------------------------------------------
 ! R1    R(1,2)                  1.7124         -DE/DX =   -0.0001              !
 ! R2    R(1,3)                  1.7124         -DE/DX =   -0.0001              !
 ! A1    A(2,1,3)              112.8142         -DE/DX =    0.0001              !
 --------------------------------------------------------------------------------
 GradGradGradGradGradGradGradGradGradGradGradGradGradGradGradGradGradGrad


 ----------------------------------------------------------------------

 Electric dipole moment (input orientation):
 (Debye = 10**-18 statcoulomb cm , SI units = C m)
                  (au)            (Debye)         (10**-30 SI)
   Tot        0.282460D+00      0.717941D+00      0.239480D+01
   x          0.224091D+00      0.569581D+00      0.189992D+01
   y          0.000000D+00      0.000000D+00      0.000000D+00
   z          0.171951D+00      0.437055D+00      0.145786D+01

 Dipole polarizability, Alpha (input orientation).
 (esu units = cm**3 , SI units = C**2 m**2 J**-1)
 Alpha(0;0):
               (au)            (10**-24 esu)      (10**-40 SI)
   iso        0.276859D+02      0.410262D+01      0.456478D+01
   aniso      0.297037D+02      0.440163D+01      0.489747D+01
   xx         0.307861D+02      0.456202D+01      0.507593D+01
   yx         0.000000D+00      0.000000D+00      0.000000D+00
   yy         0.147602D+02      0.218724D+01      0.243363D+01
   zx        -0.125495D+02     -0.185965D+01     -0.206914D+01
   zy         0.000000D+00      0.000000D+00      0.000000D+00
   zz         0.375113D+02      0.555861D+01      0.618478D+01

 ----------------------------------------------------------------------

 Dipole orientation:
     8          0.00000000          0.00000000          0.11015561
    17         -2.69554455          0.00000000          1.90058923
    17          2.69554455          0.00000000          1.90058923

 Electric dipole moment (dipole orientation):
 (Debye = 10**-18 statcoulomb cm , SI units = C m)
                  (au)            (Debye)         (10**-30 SI)
   Tot        0.282460D+00      0.717941D+00      0.239480D+01
   x          0.000000D+00      0.000000D+00      0.000000D+00
   y          0.000000D+00      0.000000D+00      0.000000D+00
   z          0.282460D+00      0.717941D+00      0.239480D+01

 Dipole polarizability, Alpha (dipole orientation).
 (esu units = cm**3 , SI units = C**2 m**2 J**-1)
 Alpha(0;0):
               (au)            (10**-24 esu)      (10**-40 SI)
   iso        0.276859D+02      0.410262D+01      0.456478D+01
   aniso      0.297037D+02      0.440163D+01      0.489747D+01
   xx         0.471409D+02      0.698557D+01      0.777249D+01
   yx         0.000000D+00      0.000000D+00      0.000000D+00
   yy         0.147602D+02      0.218724D+01      0.243363D+01
   zx         0.000000D+00      0.000000D+00      0.000000D+00
   zy         0.000000D+00      0.000000D+00      0.000000D+00
   zz         0.211564D+02      0.313506D+01      0.348823D+01

 ----------------------------------------------------------------------
 1\1\GINC-GAMBA\Freq\RB3LYP\Gen\Cl2O1\IRIKURA\16-Jun-2022\0\\#N Geom=Al
 lCheck Guess=TCheck SCRF=Check GenChk RB3LYP/ChkBas Freq\\oxygen dichl
 oride, B3LYP/pcseg-2\\0,1\O,0.0462460254,0.,0.0354858234\Cl,-0.0704359
 929,0.,1.7439165645\Cl,1.6662638721,0.,-0.5193947646\\Version=ES64L-G1
 6RevB.01\State=1-A1\HF=-995.6011746\RMSD=6.407e-10\RMSF=9.287e-05\Zero
 Point=0.0036582\Thermal=0.007185\Dipole=0.2240905,0.,0.1719507\DipoleD
 eriv=0.0660782,0.,-0.2463528,0.,-0.1577173,0.,-0.2463528,0.,0.1980982,
 0.0356571,0.,-0.0051504,0.,0.0788586,0.,0.214689,0.,-0.1677452,-0.1017
 352,0.,0.2515031,0.,0.0788586,0.,0.0316638,0.,-0.0303529\Polar=30.7860
 502,0.,14.7602048,-12.5495408,0.,37.5113289\Quadrupole=0.2396439,-1.11
 16645,0.8720207,0.,-1.1800312,0.\PG=C02V [C2(O1),SGV(Cl2)]\NImag=0\\0.
 18684483,0.,-0.00015459,-0.00915396,0.,0.19175042,-0.02463015,0.,-0.00
 876373,0.02798016,0.,0.00007729,0.,0.,-0.00008921,-0.01894797,0.,-0.16
 466748,-0.02050618,0.,0.18643204,-0.16221468,0.,0.01791769,-0.00335000
 ,0.,0.03945415,0.16556469,0.,0.00007729,0.,0.,0.00001191,0.,0.,-0.0000
 8921,0.02810193,0.,-0.02708295,0.02926992,0.,-0.02176456,-0.05737184,0
 .,0.04884751\\-0.00014987,0.,-0.00011500,0.00000813,0.,0.00014457,0.00
 014175,0.,-0.00002957\\\@


 ALL OUR THINKING ABOUT NATURE MUST NECESSARILY MOVE IN CIRCLES OR SPIRALS;
 FOR WE CAN ONLY UNDERSTAND NATURE IF WE THINK ABOUT HER, AND WE CAN ONLY
 THINK BECAUSE OUR BRAIN IS BUILT IN ACCORDANCE WITH NATURE'S LAWS.

                                             -- TIMOTHY FERRIS, "GALAXIES"
 Job cpu time:       0 days  0 hours  1 minutes 21.7 seconds.
 Elapsed time:       0 days  0 hours  0 minutes  6.8 seconds.
 File lengths (MBytes):  RWF=     10 Int=      0 D2E=      0 Chk=      2 Scr=      1
 Normal termination of Gaussian 16 at Thu Jun 16 10:41:47 2022.
