 Entering Gaussian System, Link 0=g16
 AtFile(1): pcseg2.gbs
            -H     0
            S   4   1.00
                  0.754732D+02           0.427821D-02
                  0.113575D+02           0.328672D-01
                  0.260081D+01           0.159578D+00
                  0.735503D+00           0.500000D+00
            S   1   1.00
                  0.231761D+00           1.0000000
            S   1   1.00
                  0.741675D-01           1.0000000
            P   1   1.00
                  0.160000D+01           1.0000000
            P   1   1.00
                  0.450000D+00           1.0000000
            D   1   1.00
                  0.125000D+01           1.0000000
            ****
            -C     0
            S   7   1.00
                  0.731999D+04           0.695369D-03
                  0.109818D+04           0.537138D-02
                  0.250014D+03           0.274734D-01
                  0.707586D+02           0.105078D+00
                  0.228595D+02           0.291262D+00
                  0.803936D+01           0.500000D+00
                  0.289309D+01           0.362224D+00
            S   2   1.00
                  0.521640D+01          -0.957844D-01
                  0.556124D+00           0.500000D+00
            S   1   1.00
                  0.228813D+00           1.0000000
            S   1   1.00
                  0.936338D-01           1.0000000
            P   4   1.00
                  0.339855D+02           0.818395D-02
                  0.772957D+01           0.586921D-01
                  0.224954D+01           0.222514D+00
                  0.767681D+00           0.500000D+00
            P   1   1.00
                  0.263283D+00           1.0000000
            P   1   1.00
                  0.848744D-01           1.0000000
            D   1   1.00
                  0.140000D+01           1.0000000
            D   1   1.00
                  0.450000D+00           1.0000000
            F   1   1.00
                  0.950000D+00           1.0000000
            ****
            -O     0
            S   7   1.00
                  0.135887D+05           0.665492D-03
                  0.203847D+04           0.514222D-02
                  0.464041D+03           0.263472D-01
                  0.131339D+03           0.101500D+00
                  0.425340D+02           0.285877D+00
                  0.150429D+02           0.500000D+00
                  0.546616D+01           0.368211D+00
            S   2   1.00
                  0.100915D+02          -0.100084D+00
                  0.110429D+01           0.500000D+00
            S   1   1.00
                  0.448082D+00           1.0000000
            S   1   1.00
                  0.175325D+00           1.0000000
            P   4   1.00
                  0.608220D+02           0.908253D-02
                  0.140332D+02           0.645878D-01
                  0.418244D+01           0.241502D+00
                  0.142490D+01           0.500000D+00
            P   1   1.00
                  0.478741D+00           1.0000000
            P   1   1.00
                  0.146257D+00           1.0000000
            D   1   1.00
                  0.220000D+01           1.0000000
            D   1   1.00
                  0.650000D+00           1.0000000
            F   1   1.00
                  0.110000D+01           1.0000000
            ****
            -N     0
            S   7   1.00
                  0.101643D+05           0.682757D-03
                  0.152481D+04           0.527488D-02
                  0.347119D+03           0.270037D-01
                  0.982389D+02           0.103673D+00
                  0.317799D+02           0.289575D+00
                  0.112240D+02           0.500000D+00
                  0.406611D+01           0.364621D+00
            S   2   1.00
                  0.747898D+01          -0.975681D-01
                  0.805040D+00           0.500000D+00
            S   1   1.00
                  0.324626D+00           1.0000000
            S   1   1.00
                  0.128132D+00           1.0000000
            P   4   1.00
                  0.482704D+02           0.829547D-02
                  0.110815D+02           0.596223D-01
                  0.326643D+01           0.227889D+00
                  0.111680D+01           0.500000D+00
            P   1   1.00
                  0.382049D+00           1.0000000
            P   1   1.00
                  0.121222D+00           1.0000000
            D   1   1.00
                  0.180000D+01           1.0000000
            D   1   1.00
                  0.550000D+00           1.0000000
            F   1   1.00
                  0.102000D+01           1.0000000
            ****
            -F     0
            S   7   1.00
                  0.174507D+05           0.655972D-03
                  0.261768D+04           0.506944D-02
                  0.595857D+03           0.259899D-01
                  0.168651D+03           0.100353D+00
                  0.546654D+02           0.284095D+00
                  0.193717D+02           0.500000D+00
                  0.706202D+01           0.370721D+00
            S   2   1.00
                  0.131197D+02          -0.101997D+00
                  0.145046D+01           0.500000D+00
            S   1   1.00
                  0.588255D+00           1.0000000
            S   1   1.00
                  0.227960D+00           1.0000000
            P   4   1.00
                  0.779407D+02           0.931135D-02
                  0.180425D+02           0.663964D-01
                  0.542342D+01           0.246386D+00
                  0.184876D+01           0.500000D+00
            P   1   1.00
                  0.617455D+00           1.0000000
            P   1   1.00
                  0.185496D+00           1.0000000
            D   1   1.00
                  0.280000D+01           1.0000000
            D   1   1.00
                  0.800000D+00           1.0000000
            F   1   1.00
                  0.120000D+01           1.0000000
            ****
            -Cl     0
            S   8   1.00
                  0.154272D+06           0.222473D-03
                  0.231232D+05           0.172590D-02
                  0.526257D+04           0.899286D-02
                  0.148995D+04           0.367724D-01
                  0.485417D+03           0.121446D+00
                  0.174634D+03           0.304148D+00
                  0.672393D+02           0.500000D+00
                  0.265780D+02           0.360252D+00
            S   3   1.00
                  0.131826D+03          -0.531330D-01
                  0.400703D+02          -0.233346D+00
                  0.789448D+01           0.500000D+00
            S   2   1.00
                  0.427711D+01           0.500000D+00
                  0.196233D+01           0.370517D+00
            S   1   1.00
                  0.520793D+00           1.0000000
            S   1   1.00
                  0.181633D+00           1.0000000
            P   7   1.00
                  0.124440D+04           0.988206D-03
                  0.295109D+03           0.829674D-02
                  0.947224D+02           0.430906D-01
                  0.352588D+02           0.148443D+00
                  0.144211D+02           0.344744D+00
                  0.610371D+01           0.500000D+00
                  0.258886D+01           0.348278D+00
            P   2   1.00
                  0.109447D+02          -0.196768D-01
                  0.104413D+01           0.500000D+00
            P   1   1.00
                  0.376184D+00           1.0000000
            P   1   1.00
                  0.120613D+00           1.0000000
            D   1   1.00
                  0.231000D+01           1.0000000
            D   1   1.00
                  0.520000D+00           1.0000000
            F   1   1.00
                  0.720000D+00           1.0000000
            ****
            -S     0
            S   8   1.00
                  0.134700D+06           0.226231D-03
                  0.201904D+05           0.175488D-02
                  0.459528D+04           0.914190D-02
                  0.130109D+04           0.373551D-01
                  0.423902D+03           0.123121D+00
                  0.152485D+03           0.306801D+00
                  0.586925D+02           0.500000D+00
                  0.231461D+02           0.354358D+00
            S   3   1.00
                  0.116327D+03          -0.491772D-01
                  0.352841D+02          -0.215962D+00
                  0.677831D+01           0.500000D+00
            S   2   1.00
                  0.360404D+01           0.500000D+00
                  0.164871D+01           0.366278D+00
            S   1   1.00
                  0.421821D+00           1.0000000
            S   1   1.00
                  0.147554D+00           1.0000000
            P   7   1.00
                  0.104863D+04           0.105273D-02
                  0.248717D+03           0.879338D-02
                  0.797887D+02           0.453358D-01
                  0.296023D+02           0.154476D+00
                  0.120627D+02           0.352366D+00
                  0.507628D+01           0.500000D+00
                  0.213375D+01           0.346429D+00
            P   2   1.00
                  0.928958D+01          -0.185932D-01
                  0.837819D+00           0.500000D+00
            P   1   1.00
                  0.301495D+00           1.0000000
            P   1   1.00
                  0.974740D-01           1.0000000
            D   1   1.00
                  0.210000D+01           1.0000000
            D   1   1.00
                  0.480000D+00           1.0000000
            F   1   1.00
                  0.660000D+00           1.0000000
            ****
            -Br     0
            S    10   1.00
                  0.233625D+07           0.532336D-04
                  0.349961D+06           0.413715D-03
                  0.796444D+05           0.217123D-02
                  0.225555D+05           0.910109D-02
                  0.735546D+04           0.323789D-01
                  0.265352D+04           0.988755D-01
                  0.103517D+04           0.248138D+00
                  0.422205D+03           0.474328D+00
                  0.180035D+03           0.500000D+00
                  0.793308D+02           0.187769D+00
            S    4   1.00
                  0.620834D+03          -0.226511D-01
                  0.190829D+03          -0.109497D+00
                  0.312505D+02           0.500000D+00
                  0.135270D+02           0.492812D+00
            S    2   1.00
                  0.216097D+02          -0.165418D+00
                  0.372566D+01           0.500000D+00
            S    1   1.00
                  0.169770D+01           1.0000000
            S    1   1.00
                  0.489332D+00           1.0000000
            S    1   1.00
                  0.175712D+00           1.0000000
            P    8   1.00
                  0.960829D+04           0.478974D-03
                  0.227618D+04           0.417853D-02
                  0.736723D+03           0.229315D-01
                  0.281579D+03           0.892653D-01
                  0.118395D+03           0.255288D+00
                  0.527481D+02           0.479074D+00
                  0.245098D+02           0.500000D+00
                  0.112009D+02           0.200944D+00
            P    4   1.00
                  0.587849D+02          -0.189674D-01
                  0.918962D+01           0.264104D+00
                  0.413895D+01           0.500000D+00
                  0.184225D+01           0.319316D+00
            P    1   1.00
                  0.713862D+00           1.0000000
            P    1   1.00
                  0.274232D+00           1.0000000
            P    1   1.00
                  0.944411D-01           1.0000000
            D    7   1.00
                  0.398470D+03           0.204066D-02
                  0.118967D+03           0.175171D-01
                  0.450197D+02           0.829708D-01
                  0.190320D+02           0.236284D+00
                  0.855686D+01           0.428468D+00
                  0.382950D+01           0.500000D+00
                  0.166291D+01           0.349360D+00
            D    1   1.00
                  0.672953D+00           1.0000000
            D    1   1.00
                  0.252000D+00           1.0000000
            F    1   1.00
                  0.530000D+00           1.0000000
            ****
            -Si     0
            S    8   1.00
                  0.996133D+05           0.235546D-03
                  0.149311D+05           0.182707D-02
                  0.339820D+04           0.951425D-02
                  0.962140D+03           0.388172D-01
                  0.313430D+03           0.127328D+00
                  0.112683D+03           0.313522D+00
                  0.433372D+02           0.500000D+00
                  0.170029D+02           0.340347D+00
            S    3   1.00
                  0.884208D+02          -0.404451D-01
                  0.266756D+02          -0.178059D+00
                  0.479640D+01           0.500000D+00
            S    2   1.00
                  0.239385D+01           0.500000D+00
                  0.108333D+01           0.338016D+00
            S    1   1.00
                  0.252420D+00           1.0000000
            S    1   1.00
                  0.891210D-01           1.0000000
            P    7   1.00
                  0.709901D+03           0.123028D-02
                  0.168426D+03           0.101366D-01
                  0.539946D+02           0.511840D-01
                  0.198646D+02           0.169967D+00
                  0.801369D+01           0.370717D+00
                  0.331870D+01           0.500000D+00
                  0.136112D+01           0.344128D+00
            P    2   1.00
                  0.622158D+01          -0.166609D-01
                  0.503049D+00           0.500000D+00
            P    1   1.00
                  0.179848D+00           1.0000000
            P    1   1.00
                  0.591912D-01           1.0000000
            D    1   1.00
                  0.168000D+01           1.0000000
            D    1   1.00
                  0.380000D+00           1.0000000
            F    1   1.00
                  0.540000D+00           1.0000000
            ****
            -P     0
            S    8   1.00
                  0.116416D+06           0.230715D-03
                  0.174500D+05           0.178960D-02
                  0.397149D+04           0.932116D-02
                  0.112447D+04           0.380591D-01
                  0.366347D+03           0.125148D+00
                  0.131757D+03           0.310022D+00
                  0.506988D+02           0.500000D+00
                  0.199436D+02           0.347528D+00
            S    3   1.00
                  0.101878D+03          -0.446755D-01
                  0.308249D+02          -0.196376D+00
                  0.573688D+01           0.500000D+00
            S    2   1.00
                  0.296868D+01           0.500000D+00
                  0.135315D+01           0.355098D+00
            S    1   1.00
                  0.332196D+00           1.0000000
            S    1   1.00
                  0.116229D+00           1.0000000
            P    7   1.00
                  0.873928D+03           0.112375D-02
                  0.207298D+03           0.933330D-02
                  0.664628D+02           0.477213D-01
                  0.245665D+02           0.160733D+00
                  0.996820D+01           0.359760D+00
                  0.416536D+01           0.500000D+00
                  0.173022D+01           0.346593D+00
            P    2   1.00
                  0.772530D+01          -0.175718D-01
                  0.657252D+00           0.500000D+00
            P    1   1.00
                  0.239903D+00           1.0000000
            P    1   1.00
                  0.800988D-01           1.0000000
            D    1   1.00
                  0.189000D+01           1.0000000
            D    1   1.00
                  0.430000D+00           1.0000000
            F    1   1.00
                  0.600000D+00           1.0000000
            ****
            
 Initial command:
 /usr/local/apps/g16_b01_avx/g16/l1.exe "/wrk/irikura/Gau-458582.inp" -scrdir="/wrk/irikura/"
 Entering Link 1 = /usr/local/apps/g16_b01_avx/g16/l1.exe PID=    458584.
  
 Copyright (c) 1988-2017, Gaussian, Inc.  All Rights Reserved.
  
 This is part of the Gaussian(R) 16 program.  It is based on
 the Gaussian(R) 09 system (copyright 2009, Gaussian, Inc.),
 the Gaussian(R) 03 system (copyright 2003, Gaussian, Inc.),
 the Gaussian(R) 98 system (copyright 1998, Gaussian, Inc.),
 the Gaussian(R) 94 system (copyright 1995, Gaussian, Inc.),
 the Gaussian 92(TM) system (copyright 1992, Gaussian, Inc.),
 the Gaussian 90(TM) system (copyright 1990, Gaussian, Inc.),
 the Gaussian 88(TM) system (copyright 1988, Gaussian, Inc.),
 the Gaussian 86(TM) system (copyright 1986, Carnegie Mellon
 University), and the Gaussian 82(TM) system (copyright 1983,
 Carnegie Mellon University). Gaussian is a federally registered
 trademark of Gaussian, Inc.
  
 This software contains proprietary and confidential information,
 including trade secrets, belonging to Gaussian, Inc.
  
 This software is provided under written license and may be
 used, copied, transmitted, or stored only in accord with that
 written license.
  
 The following legend is applicable only to US Government
 contracts under FAR:
  
                    RESTRICTED RIGHTS LEGEND
  
 Use, reproduction and disclosure by the US Government is
 subject to restrictions as set forth in subparagraphs (a)
 and (c) of the Commercial Computer Software - Restricted
 Rights clause in FAR 52.227-19.
  
 Gaussian, Inc.
 340 Quinnipiac St., Bldg. 40, Wallingford CT 06492
  
  
 ---------------------------------------------------------------
 Warning -- This program may not be used in any manner that
 competes with the business of Gaussian, Inc. or will provide
 assistance to any competitor of Gaussian, Inc.  The licensee
 of this program is prohibited from giving any competitor of
 Gaussian, Inc. access to this program.  By using this program,
 the user acknowledges that Gaussian, Inc. is engaged in the
 business of creating and licensing software in the field of
 computational chemistry and represents and warrants to the
 licensee that it is not a competitor of Gaussian, Inc. and that
 it will not use this program in any manner prohibited above.
 ---------------------------------------------------------------
  

 Cite this work as:
 Gaussian 16, Revision B.01,
 M. J. Frisch, G. W. Trucks, H. B. Schlegel, G. E. Scuseria, 
 M. A. Robb, J. R. Cheeseman, G. Scalmani, V. Barone, 
 G. A. Petersson, H. Nakatsuji, X. Li, M. Caricato, A. V. Marenich, 
 J. Bloino, B. G. Janesko, R. Gomperts, B. Mennucci, H. P. Hratchian, 
 J. V. Ortiz, A. F. Izmaylov, J. L. Sonnenberg, D. Williams-Young, 
 F. Ding, F. Lipparini, F. Egidi, J. Goings, B. Peng, A. Petrone, 
 T. Henderson, D. Ranasinghe, V. G. Zakrzewski, J. Gao, N. Rega, 
 G. Zheng, W. Liang, M. Hada, M. Ehara, K. Toyota, R. Fukuda, 
 J. Hasegawa, M. Ishida, T. Nakajima, Y. Honda, O. Kitao, H. Nakai, 
 T. Vreven, K. Throssell, J. A. Montgomery, Jr., J. E. Peralta, 
 F. Ogliaro, M. J. Bearpark, J. J. Heyd, E. N. Brothers, K. N. Kudin, 
 V. N. Staroverov, T. A. Keith, R. Kobayashi, J. Normand, 
 K. Raghavachari, A. P. Rendell, J. C. Burant, S. S. Iyengar, 
 J. Tomasi, M. Cossi, J. M. Millam, M. Klene, C. Adamo, R. Cammi, 
 J. W. Ochterski, R. L. Martin, K. Morokuma, O. Farkas, 
 J. B. Foresman, and D. J. Fox, Gaussian, Inc., Wallingford CT, 2016.
 
 ******************************************
 Gaussian 16:  ES64L-G16RevB.01 20-Dec-2017
                30-Sep-2023 
 ******************************************
 %chk=clf5.chk
 %mem=500mw
 %nprocs=4
 Will use up to    4 processors via shared memory.
 ---------------------------------------
 # b3lyp/gen opt freq CPHF(Grid=OneStep)
 ---------------------------------------
 1/18=20,19=15,26=3,38=1/1,3;
 2/9=110,12=2,17=6,18=5,40=1/2;
 3/5=7,11=2,25=1,30=1,71=1,74=-5/1,2,3;
 4//1;
 5/5=2,38=5/2;
 6/7=2,8=2,9=2,10=2,28=1/1;
 7//1,2,3,16;
 1/18=20,19=15,26=3/3(2);
 2/9=110/2;
 99//99;
 2/9=110/2;
 3/5=7,6=1,11=2,25=1,30=1,71=1,74=-5,82=7/1,2,3;
 4/5=5,16=3,69=1/1;
 5/5=2,38=5/2;
 7//1,2,3,16;
 1/18=20,19=15,26=3/3(-5);
 2/9=110/2;
 6/7=2,8=2,9=2,10=2,19=2,28=1/1;
 99/9=1/99;
 -------------------------------------
 chlorine pentafluoride, B3LYP/pcseg-2
 -------------------------------------
 Symbolic Z-matrix:
 Charge =  0 Multiplicity = 1
 Cl                    0.        0.        0.301 
 F                     0.        0.       -1.31802 
 F                     0.        1.68805   0.18737 
 F                    -1.68805   0.        0.18737 
 F                     0.       -1.68805   0.18737 
 F                     1.68805   0.        0.18737 
 

 GradGradGradGradGradGradGradGradGradGradGradGradGradGradGradGradGradGrad
 Berny optimization.
 Initialization pass.
                           ----------------------------
                           !    Initial Parameters    !
                           ! (Angstroms and Degrees)  !
 --------------------------                            --------------------------
 ! Name  Definition              Value          Derivative Info.                !
 --------------------------------------------------------------------------------
 ! R1    R(1,2)                  1.619          estimate D2E/DX2                !
 ! R2    R(1,3)                  1.6919         estimate D2E/DX2                !
 ! R3    R(1,4)                  1.6919         estimate D2E/DX2                !
 ! R4    R(1,5)                  1.6919         estimate D2E/DX2                !
 ! R5    R(1,6)                  1.6919         estimate D2E/DX2                !
 ! A1    A(2,1,3)               86.1489         estimate D2E/DX2                !
 ! A2    A(2,1,4)               86.1489         estimate D2E/DX2                !
 ! A3    A(2,1,5)               86.1489         estimate D2E/DX2                !
 ! A4    A(2,1,6)               86.1489         estimate D2E/DX2                !
 ! A5    A(3,1,4)               89.7415         estimate D2E/DX2                !
 ! A6    A(3,1,6)               89.7415         estimate D2E/DX2                !
 ! A7    A(4,1,5)               89.7415         estimate D2E/DX2                !
 ! A8    A(5,1,6)               89.7415         estimate D2E/DX2                !
 ! A9    L(3,1,5,2,-1)         172.2978         estimate D2E/DX2                !
 ! A10   L(4,1,6,2,-1)         172.2978         estimate D2E/DX2                !
 ! A11   L(3,1,5,2,-2)         180.0            estimate D2E/DX2                !
 ! A12   L(4,1,6,2,-2)         180.0            estimate D2E/DX2                !
 ! D1    D(2,1,4,3)            -86.1576         estimate D2E/DX2                !
 ! D2    D(2,1,5,3)              0.0            estimate D2E/DX2                !
 ! D3    D(2,1,6,3)             86.1576         estimate D2E/DX2                !
 ! D4    D(2,1,5,4)            -86.1576         estimate D2E/DX2                !
 ! D5    D(2,1,6,4)              0.0            estimate D2E/DX2                !
 ! D6    D(2,1,6,5)            -86.1576         estimate D2E/DX2                !
 ! D7    D(3,1,6,4)            -86.1576         estimate D2E/DX2                !
 --------------------------------------------------------------------------------
 Trust Radius=3.00D-01 FncErr=1.00D-07 GrdErr=1.00D-06 EigMax=2.50D+02 EigMin=1.00D-04
 Number of steps in this run=     34 maximum allowed number of steps=    100.
 GradGradGradGradGradGradGradGradGradGradGradGradGradGradGradGradGradGrad

                          Input orientation:                          
 ---------------------------------------------------------------------
 Center     Atomic      Atomic             Coordinates (Angstroms)
 Number     Number       Type             X           Y           Z
 ---------------------------------------------------------------------
      1         17           0        0.000000    0.000000    0.300998
      2          9           0        0.000000    0.000000   -1.318017
      3          9           0        0.000000    1.688052    0.187366
      4          9           0       -1.688052    0.000000    0.187366
      5          9           0        0.000000   -1.688052    0.187366
      6          9           0        1.688052    0.000000    0.187366
 ---------------------------------------------------------------------
                    Distance matrix (angstroms):
                    1          2          3          4          5
     1  Cl   0.000000
     2  F    1.619015   0.000000
     3  F    1.691872   2.261791   0.000000
     4  F    1.691872   2.261791   2.387266   0.000000
     5  F    1.691872   2.261791   3.376104   2.387266   0.000000
     6  F    1.691872   2.261791   2.387266   3.376104   2.387266
                    6
     6  F    0.000000
 Stoichiometry    ClF5
 Framework group  C4V[C4(FCl),2SGV(F2)]
 Deg. of freedom     3
 Full point group                 C4V     NOp   8
 Largest Abelian subgroup         C2V     NOp   4
 Largest concise Abelian subgroup C2V     NOp   4
                         Standard orientation:                         
 ---------------------------------------------------------------------
 Center     Atomic      Atomic             Coordinates (Angstroms)
 Number     Number       Type             X           Y           Z
 ---------------------------------------------------------------------
      1         17           0        0.000000    0.000000    0.300998
      2          9           0        0.000000    0.000000   -1.318017
      3          9           0        0.000000    1.688052    0.187366
      4          9           0       -1.688052    0.000000    0.187366
      5          9           0       -0.000000   -1.688052    0.187366
      6          9           0        1.688052   -0.000000    0.187366
 ---------------------------------------------------------------------
 Rotational constants (GHZ):           3.4353469           3.4353469           2.3338260
 General basis read from cards:  (5D, 7F)
 There are    82 symmetry adapted cartesian basis functions of A1  symmetry.
 There are    28 symmetry adapted cartesian basis functions of A2  symmetry.
 There are    52 symmetry adapted cartesian basis functions of B1  symmetry.
 There are    52 symmetry adapted cartesian basis functions of B2  symmetry.
 There are    68 symmetry adapted basis functions of A1  symmetry.
 There are    26 symmetry adapted basis functions of A2  symmetry.
 There are    45 symmetry adapted basis functions of B1  symmetry.
 There are    45 symmetry adapted basis functions of B2  symmetry.
   184 basis functions,   325 primitive gaussians,   214 cartesian basis functions
    31 alpha electrons       31 beta electrons
       nuclear repulsion energy       414.4436922285 Hartrees.
 NAtoms=    6 NActive=    6 NUniq=    3 SFac= 4.00D+00 NAtFMM=   60 NAOKFM=F Big=F
 Integral buffers will be    131072 words long.
 Raffenetti 2 integral format.
 Two-electron integral symmetry is turned on.
 One-electron integrals computed using PRISM.
 NBasis=   184 RedAO= T EigKep=  5.22D-03  NBF=    68    26    45    45
 NBsUse=   184 1.00D-06 EigRej= -1.00D+00 NBFU=    68    26    45    45
 ExpMin= 1.21D-01 ExpMax= 1.54D+05 ExpMxC= 1.49D+03 IAcc=3 IRadAn=         5 AccDes= 0.00D+00
 Harris functional with IExCor=  402 and IRadAn=       5 diagonalized for initial guess.
 HarFok:  IExCor=  402 AccDes= 0.00D+00 IRadAn=         5 IDoV= 1 UseB2=F ITyADJ=14
 ICtDFT=  3500011 ScaDFX=  1.000000  1.000000  1.000000  1.000000
 FoFCou: FMM=F IPFlag=           0 FMFlag=      100000 FMFlg1=           0
         NFxFlg=           0 DoJE=T BraDBF=F KetDBF=T FulRan=T
         wScrn=  0.000000 ICntrl=       500 IOpCl=  0 I1Cent=   200000004 NGrid=           0
         NMat0=    1 NMatS0=      1 NMatT0=    0 NMatD0=    1 NMtDS0=    0 NMtDT0=    0
 Petite list used in FoFCou.
 Initial guess orbital symmetries:
       Occupied  (A1) (A1) (E) (E) (B2) (A1) (A1) (E) (E) (A1)
                 (A1) (E) (E) (A1) (B2) (A1) (E) (E) (A1) (B1)
                 (E) (E) (B2) (A1) (E) (E) (B2) (E) (E) (A2) (A1)
       Virtual   (A1) (E) (E) (E) (E) (A1) (A1) (E) (E) (B1) (A1)
                 (B2) (E) (E) (A1) (B2) (E) (E) (A1) (B1) (E) (E)
                 (A2) (E) (E) (A1) (B2) (B2) (A1) (E) (E) (A1)
                 (B2) (E) (E) (B1) (A1) (E) (E) (E) (E) (A2) (B1)
                 (B2) (A1) (E) (E) (B1) (B2) (A2) (E) (E) (E) (E)
                 (A1) (B1) (A1) (B2) (E) (E) (A1) (E) (E) (B2)
                 (A1) (E) (E) (E) (E) (A2) (B1) (B2) (E) (E) (A1)
                 (B2) (E) (E) (A1) (A1) (E) (E) (B1) (E) (E) (A1)
                 (B2) (B2) (A1) (E) (E) (B1) (A2) (A2) (E) (E)
                 (E) (E) (B2) (E) (E) (A2) (B1) (A1) (E) (E) (B2)
                 (E) (E) (A1) (B1) (B2) (A1) (A1) (E) (E) (B2)
                 (E) (E) (A1) (B1) (E) (E) (E) (E) (B2) (A1) (B1)
                 (E) (E) (A2) (B1) (E) (E) (B2) (A1) (B2) (A2)
                 (E) (E) (E) (E) (B2) (B1) (E) (E) (A1) (A1) (B2)
                 (A1) (E) (E) (A1)
 The electronic state of the initial guess is 1-A1.
 Keep R1 ints in memory in symmetry-blocked form, NReq=181347020.
 Requested convergence on RMS density matrix=1.00D-08 within 128 cycles.
 Requested convergence on MAX density matrix=1.00D-06.
 Requested convergence on             energy=1.00D-06.
 No special actions if energy rises.
 Integral accuracy reduced to 1.0D-05 until final iterations.
 Initial convergence to 1.0D-05 achieved.  Increase integral accuracy.
 SCF Done:  E(RB3LYP) =  -959.303716068     A.U. after   13 cycles
            NFock= 13  Conv=0.96D-08     -V/T= 2.0018

 **********************************************************************

            Population analysis using the SCF Density.

 **********************************************************************

 Orbital symmetries:
       Occupied  (A1) (A1) (B2) (E) (E) (A1) (A1) (E) (E) (A1)
                 (A1) (A1) (E) (E) (B2) (A1) (E) (E) (A1) (E) (E)
                 (B1) (B2) (A1) (E) (E) (B2) (E) (E) (A2) (A1)
       Virtual   (A1) (E) (E) (A1) (E) (E) (A1) (B1) (E) (E) (A1)
                 (B2) (B1) (E) (E) (A1) (E) (E) (B2) (A1) (E) (E)
                 (B2) (A2) (E) (E) (A1) (A1) (B2) (E) (E) (A1)
                 (B2) (E) (E) (B1) (A1) (E) (E) (B1) (E) (E) (A2)
                 (B2) (A1) (B1) (E) (E) (B2) (A2) (E) (E) (E) (E)
                 (A1) (B1) (A1) (B2) (E) (E) (A1) (E) (E) (B2)
                 (A1) (E) (E) (B1) (E) (E) (A2) (B2) (E) (E) (A1)
                 (B2) (E) (E) (A1) (A1) (E) (E) (B1) (E) (E) (A1)
                 (B2) (B2) (A1) (B1) (E) (E) (A2) (A2) (E) (E)
                 (E) (E) (B1) (B2) (E) (E) (A1) (A2) (E) (E) (A1)
                 (B2) (E) (E) (B1) (A1) (B2) (A1) (E) (E) (B2)
                 (A1) (E) (E) (B1) (E) (E) (E) (E) (B2) (A1) (B1)
                 (E) (E) (A2) (B1) (E) (E) (B2) (A1) (B2) (A2)
                 (E) (E) (E) (E) (B2) (B1) (E) (E) (A1) (A1) (B2)
                 (A1) (E) (E) (A1)
 The electronic state is 1-A1.
 Alpha  occ. eigenvalues -- -101.93906 -24.79591 -24.73841 -24.73841 -24.73841
 Alpha  occ. eigenvalues --  -24.73840  -9.83216  -7.59369  -7.59369  -7.58662
 Alpha  occ. eigenvalues --   -1.38970  -1.25989  -1.25102  -1.25102  -1.21429
 Alpha  occ. eigenvalues --   -0.94833  -0.68399  -0.68399  -0.68136  -0.54488
 Alpha  occ. eigenvalues --   -0.54488  -0.52976  -0.51074  -0.48999  -0.46702
 Alpha  occ. eigenvalues --   -0.46702  -0.46563  -0.45735  -0.45735  -0.43556
 Alpha  occ. eigenvalues --   -0.39666
 Alpha virt. eigenvalues --   -0.17418  -0.10596  -0.10596   0.19308   0.20760
 Alpha virt. eigenvalues --    0.20760   0.29753   0.30238   0.30240   0.30240
 Alpha virt. eigenvalues --    0.36695   0.38284   0.45538   0.46057   0.46057
 Alpha virt. eigenvalues --    0.46916   0.47516   0.47516   0.51113   0.51335
 Alpha virt. eigenvalues --    0.52437   0.52437   0.63107   0.63160   0.63254
 Alpha virt. eigenvalues --    0.63254   0.63374   0.80720   0.82209   0.98447
 Alpha virt. eigenvalues --    0.98447   1.21429   1.38827   1.42143   1.42143
 Alpha virt. eigenvalues --    1.49487   1.57946   1.68257   1.68257   1.78805
 Alpha virt. eigenvalues --    1.78931   1.78931   1.80072   1.84772   1.86267
 Alpha virt. eigenvalues --    1.87923   1.88130   1.88130   1.91352   1.93463
 Alpha virt. eigenvalues --    1.94788   1.94788   1.99987   1.99987   2.06575
 Alpha virt. eigenvalues --    2.12337   2.27334   2.29972   2.33100   2.33100
 Alpha virt. eigenvalues --    2.39880   2.46345   2.46345   2.48670   2.49497
 Alpha virt. eigenvalues --    2.55072   2.55072   2.81977   2.83052   2.83052
 Alpha virt. eigenvalues --    2.85106   2.85957   2.86862   2.86862   2.94593
 Alpha virt. eigenvalues --    2.95108   2.97429   2.97429   2.98160   3.45800
 Alpha virt. eigenvalues --    3.48926   3.48926   3.51695   3.88602   3.88602
 Alpha virt. eigenvalues --    4.06097   4.09574   4.18438   4.21185   4.26943
 Alpha virt. eigenvalues --    4.27556   4.27556   4.28313   4.30593   4.31107
 Alpha virt. eigenvalues --    4.31107   4.31870   4.31870   4.33101   4.33535
 Alpha virt. eigenvalues --    4.33739   4.33739   4.33946   4.34808   4.35232
 Alpha virt. eigenvalues --    4.35232   4.36948   4.37162   4.38053   4.38053
 Alpha virt. eigenvalues --    4.44786   4.46530   4.47055   4.59051   4.61463
 Alpha virt. eigenvalues --    4.61463   4.72755   4.79132   4.79372   4.79372
 Alpha virt. eigenvalues --    4.94445   5.00079   5.00079   5.73382   5.73382
 Alpha virt. eigenvalues --    5.76299   5.98311   7.40864   7.44974   7.44974
 Alpha virt. eigenvalues --    7.45895   7.45981   7.47298   7.47298   7.47929
 Alpha virt. eigenvalues --    7.53093   7.53491   7.59511   7.64004   7.64004
 Alpha virt. eigenvalues --    7.67713   7.67713   7.68648   7.69485   7.77686
 Alpha virt. eigenvalues --    7.77686   7.81385   7.95628   8.23784   8.27402
 Alpha virt. eigenvalues --    8.32387   8.32387  34.39113
          Condensed to atoms (all electrons):
               1          2          3          4          5          6
     1  Cl  15.350367   0.152669   0.079819   0.079819   0.079819   0.079819
     2  F    0.152669   9.146312  -0.045105  -0.045105  -0.045105  -0.045105
     3  F    0.079819  -0.045105   9.268674  -0.022424   0.006241  -0.022424
     4  F    0.079819  -0.045105  -0.022424   9.268674  -0.022424   0.006241
     5  F    0.079819  -0.045105   0.006241  -0.022424   9.268674  -0.022424
     6  F    0.079819  -0.045105  -0.022424   0.006241  -0.022424   9.268674
 Mulliken charges:
               1
     1  Cl   1.177686
     2  F   -0.118559
     3  F   -0.264782
     4  F   -0.264782
     5  F   -0.264782
     6  F   -0.264782
 Sum of Mulliken charges =  -0.00000
 Mulliken charges with hydrogens summed into heavy atoms:
               1
     1  Cl   1.177686
     2  F   -0.118559
     3  F   -0.264782
     4  F   -0.264782
     5  F   -0.264782
     6  F   -0.264782
 Electronic spatial extent (au):  <R**2>=            519.2489
 Charge=              0.0000 electrons
 Dipole moment (field-independent basis, Debye):
    X=             -0.0000    Y=              0.0000    Z=              0.6730  Tot=              0.6730
 Quadrupole moment (field-independent basis, Debye-Ang):
   XX=            -40.7873   YY=            -40.7873   ZZ=            -35.5432
   XY=              0.0000   XZ=             -0.0000   YZ=              0.0000
 Traceless Quadrupole moment (field-independent basis, Debye-Ang):
   XX=             -1.7481   YY=             -1.7481   ZZ=              3.4961
   XY=              0.0000   XZ=             -0.0000   YZ=              0.0000
 Octapole moment (field-independent basis, Debye-Ang**2):
  XXX=             -0.0000  YYY=              0.0000  ZZZ=             -2.0239  XYY=              0.0000
  XXY=              0.0000  XXZ=             -1.6355  XZZ=             -0.0000  YZZ=              0.0000
  YYZ=             -1.6355  XYZ=              0.0000
 Hexadecapole moment (field-independent basis, Debye-Ang**3):
 XXXX=           -207.3315 YYYY=           -207.3315 ZZZZ=            -83.3172 XXXY=              0.0000
 XXXZ=             -0.0000 YYYX=              0.0000 YYYZ=              0.0000 ZZZX=              0.0000
 ZZZY=              0.0000 XXYY=            -66.8637 XXZZ=            -48.0542 YYZZ=            -48.0542
 XXYZ=              0.0000 YYXZ=              0.0000 ZZXY=              0.0000
 N-N= 4.144436922285D+02 E-N=-3.111813449629D+03  KE= 9.575888739668D+02
 Symmetry A1   KE= 6.461207172355D+02
 Symmetry A2   KE= 1.282836414761D+01
 Symmetry B1   KE= 1.493198962919D+02
 Symmetry B2   KE= 1.493198962919D+02
 Calling FoFJK, ICntrl=      2127 FMM=F ISym2X=1 I1Cent= 0 IOpClX= 0 NMat=1 NMatS=1 NMatT=0.
 ***** Axes restored to original set *****
 -------------------------------------------------------------------
 Center     Atomic                   Forces (Hartrees/Bohr)
 Number     Number              X              Y              Z
 -------------------------------------------------------------------
      1       17           0.000000000   -0.000000000   -0.000107526
      2        9           0.000000000    0.000000000    0.000176278
      3        9           0.000000000    0.000034762   -0.000017188
      4        9          -0.000034762   -0.000000000   -0.000017188
      5        9          -0.000000000   -0.000034762   -0.000017188
      6        9           0.000034762    0.000000000   -0.000017188
 -------------------------------------------------------------------
 Cartesian Forces:  Max     0.000176278 RMS     0.000051989

 GradGradGradGradGradGradGradGradGradGradGradGradGradGradGradGradGradGrad
 Berny optimization.
 FormGI is forming the generalized inverse of G from B-inverse, IUseBI=4.
 Internal  Forces:  Max     0.000176278 RMS     0.000040073
 Search for a local minimum.
 Step number   1 out of a maximum of   34
 All quantities printed in internal units (Hartrees-Bohrs-Radians)
 Mixed Optimization -- En-DIIS/RFO-DIIS
 Second derivative matrix not updated -- first step.
 ITU=  0
     Eigenvalues ---    0.00693   0.00897   0.05415   0.07306   0.10314
     Eigenvalues ---    0.18271   0.24927   0.36887   0.36887   0.36887
     Eigenvalues ---    0.36887   0.47710
 RFO step:  Lambda=-1.12359975D-07 EMin= 6.92716547D-03
 Linear search not attempted -- first point.
 Iteration  1 RMS(Cart)=  0.00018670 RMS(Int)=  0.00000005
 Iteration  2 RMS(Cart)=  0.00000002 RMS(Int)=  0.00000001
 ClnCor:  largest displacement from symmetrization is 1.83D-05 for atom     6.
 Variable       Old X    -DE/DX   Delta X   Delta X   Delta X     New X
                                 (Linear)    (Quad)   (Total)
    R1        3.05949  -0.00018   0.00000  -0.00037  -0.00037   3.05913
    R2        3.19718   0.00004   0.00000   0.00010   0.00010   3.19728
    R3        3.19718   0.00004   0.00000   0.00010   0.00010   3.19728
    R4        3.19718   0.00004   0.00000   0.00010   0.00010   3.19728
    R5        3.19718   0.00004   0.00000   0.00010   0.00010   3.19728
    A1        1.50358  -0.00001   0.00000  -0.00017  -0.00017   1.50341
    A2        1.50358  -0.00001   0.00000  -0.00018  -0.00017   1.50341
    A3        1.50358  -0.00001   0.00000  -0.00018  -0.00017   1.50341
    A4        1.50358  -0.00002   0.00000  -0.00018  -0.00017   1.50341
    A5        1.56629  -0.00000   0.00000  -0.00002  -0.00002   1.56626
    A6        1.56629  -0.00000   0.00000  -0.00002  -0.00002   1.56626
    A7        1.56629  -0.00000   0.00000  -0.00003  -0.00002   1.56626
    A8        1.56629  -0.00000   0.00000  -0.00003  -0.00002   1.56626
    A9        3.00716  -0.00002   0.00000  -0.00035  -0.00035   3.00682
   A10        3.00716  -0.00003   0.00000  -0.00036  -0.00035   3.00682
   A11        3.14159   0.00000   0.00000   0.00000   0.00000   3.14159
   A12        3.14159   0.00000   0.00000   0.00001   0.00000   3.14159
    D1       -1.50373   0.00001   0.00000   0.00017   0.00017  -1.50356
    D2       -0.00000  -0.00000   0.00000  -0.00000   0.00000   0.00000
    D3        1.50373  -0.00001   0.00000  -0.00017  -0.00017   1.50356
    D4       -1.50373   0.00001   0.00000   0.00017   0.00017  -1.50356
    D5       -0.00000  -0.00000   0.00000  -0.00006   0.00000   0.00000
    D6       -1.50373   0.00001   0.00000   0.00017   0.00017  -1.50356
    D7       -1.50373   0.00000   0.00000   0.00011   0.00017  -1.50356
         Item               Value     Threshold  Converged?
 Maximum Force            0.000176     0.000450     YES
 RMS     Force            0.000040     0.000300     YES
 Maximum Displacement     0.000686     0.001800     YES
 RMS     Displacement     0.000185     0.001200     YES
 Predicted change in Energy=-5.612844D-08
 Optimization completed.
    -- Stationary point found.
                           ----------------------------
                           !   Optimized Parameters   !
                           ! (Angstroms and Degrees)  !
 --------------------------                            --------------------------
 ! Name  Definition              Value          Derivative Info.                !
 --------------------------------------------------------------------------------
 ! R1    R(1,2)                  1.619          -DE/DX =   -0.0002              !
 ! R2    R(1,3)                  1.6919         -DE/DX =    0.0                 !
 ! R3    R(1,4)                  1.6919         -DE/DX =    0.0                 !
 ! R4    R(1,5)                  1.6919         -DE/DX =    0.0                 !
 ! R5    R(1,6)                  1.6919         -DE/DX =    0.0                 !
 ! A1    A(2,1,3)               86.1489         -DE/DX =    0.0                 !
 ! A2    A(2,1,4)               86.1489         -DE/DX =    0.0                 !
 ! A3    A(2,1,5)               86.1489         -DE/DX =    0.0                 !
 ! A4    A(2,1,6)               86.1489         -DE/DX =    0.0                 !
 ! A5    A(3,1,4)               89.7415         -DE/DX =    0.0                 !
 ! A6    A(3,1,6)               89.7415         -DE/DX =    0.0                 !
 ! A7    A(4,1,5)               89.7415         -DE/DX =    0.0                 !
 ! A8    A(5,1,6)               89.7415         -DE/DX =    0.0                 !
 ! A9    L(3,1,5,2,-1)         172.2978         -DE/DX =    0.0                 !
 ! A10   L(4,1,6,2,-1)         172.2978         -DE/DX =    0.0                 !
 ! A11   L(3,1,5,2,-2)         180.0            -DE/DX =    0.0                 !
 ! A12   L(4,1,6,2,-2)         180.0            -DE/DX =    0.0                 !
 ! D1    D(2,1,4,3)            -86.1576         -DE/DX =    0.0                 !
 ! D2    D(2,1,5,3)              0.0            -DE/DX =    0.0                 !
 ! D3    D(2,1,6,3)             86.1576         -DE/DX =    0.0                 !
 ! D4    D(2,1,5,4)            -86.1576         -DE/DX =    0.0                 !
 ! D5    D(2,1,6,4)              0.0            -DE/DX =    0.0                 !
 ! D6    D(2,1,6,5)            -86.1576         -DE/DX =    0.0                 !
 ! D7    D(3,1,6,4)            -86.1576         -DE/DX =    0.0                 !
 --------------------------------------------------------------------------------
 GradGradGradGradGradGradGradGradGradGradGradGradGradGradGradGradGradGrad

                          Input orientation:                          
 ---------------------------------------------------------------------
 Center     Atomic      Atomic             Coordinates (Angstroms)
 Number     Number       Type             X           Y           Z
 ---------------------------------------------------------------------
      1         17           0        0.000000    0.000000    0.300998
      2          9           0        0.000000    0.000000   -1.318017
      3          9           0        0.000000    1.688052    0.187366
      4          9           0       -1.688052    0.000000    0.187366
      5          9           0       -0.000000   -1.688052    0.187366
      6          9           0        1.688052   -0.000000    0.187366
 ---------------------------------------------------------------------
                    Distance matrix (angstroms):
                    1          2          3          4          5
     1  Cl   0.000000
     2  F    1.619015   0.000000
     3  F    1.691872   2.261791   0.000000
     4  F    1.691872   2.261791   2.387266   0.000000
     5  F    1.691872   2.261791   3.376104   2.387266   0.000000
     6  F    1.691872   2.261791   2.387266   3.376104   2.387266
                    6
     6  F    0.000000
 Stoichiometry    ClF5
 Framework group  C4V[C4(FCl),2SGV(F2)]
 Deg. of freedom     3
 Full point group                 C4V     NOp   8
 Largest Abelian subgroup         C2V     NOp   4
 Largest concise Abelian subgroup C2V     NOp   4
                         Standard orientation:                         
 ---------------------------------------------------------------------
 Center     Atomic      Atomic             Coordinates (Angstroms)
 Number     Number       Type             X           Y           Z
 ---------------------------------------------------------------------
      1         17           0        0.000000    0.000000    0.300998
      2          9           0        0.000000    0.000000   -1.318017
      3          9           0        0.000000    1.688052    0.187366
      4          9           0       -1.688052    0.000000    0.187366
      5          9           0       -0.000000   -1.688052    0.187366
      6          9           0        1.688052   -0.000000    0.187366
 ---------------------------------------------------------------------
 Rotational constants (GHZ):           3.4353469           3.4353469           2.3338260
 1\1\GINC-GAMBA\FOpt\RB3LYP\Gen\Cl1F5\IRIKURA\30-Sep-2023\0\\# b3lyp/ge
 n opt freq CPHF(Grid=OneStep)\\chlorine pentafluoride, B3LYP/pcseg-2\\
 0,1\Cl,0.,0.,0.300998\F,0.,0.,-1.318017\F,0.,1.688052,0.187366\F,-1.68
 8052,0.,0.187366\F,0.,-1.688052,0.187366\F,1.688052,0.,0.187366\\Versi
 on=ES64L-G16RevB.01\State=1-A1\HF=-959.3037161\RMSD=9.559e-09\RMSF=5.1
 99e-05\Dipole=0.,0.,0.264768\Quadrupole=-1.2996364,-1.2996364,2.599272
 8,0.,0.,0.\PG=C04V [C4(F1Cl1),2SGV(F2)]\\@


 CONTRAIWISE...CONTINUED TWEEDLEDEE, IF IT WAS SO, IT MIGHT BE,
 AND IF IT WERE SO, IT WOULD BE.....
 BUT AS IT ISN'T, IT AIN'T....
 THAT'S LOGIC.....
 ALICE THROUGH THE LOOKING GLASS
 Job cpu time:       0 days  0 hours  0 minutes 37.6 seconds.
 Elapsed time:       0 days  0 hours  0 minutes  9.6 seconds.
 File lengths (MBytes):  RWF=     20 Int=      0 D2E=      0 Chk=      3 Scr=      1
 Normal termination of Gaussian 16 at Sat Sep 30 12:29:05 2023.
 Link1:  Proceeding to internal job step number  2.
 ------------------------------------------------------------------
 #N Geom=AllCheck Guess=TCheck SCRF=Check GenChk RB3LYP/ChkBas Freq
 ------------------------------------------------------------------
 1/10=4,29=7,30=1,38=1,40=1/1,3;
 2/12=2,40=1/2;
 3/5=7,6=2,11=2,14=-4,25=1,30=1,67=1,70=2,71=2,74=-5,82=7,116=1,140=1/1,2,3;
 4/5=101/1;
 5/5=2,38=6,98=1/2;
 8/6=4,10=90,11=11/1;
 11/6=1,8=1,9=11,15=111,16=1/1,2,10;
 10/6=1,60=-420/2;
 6/7=2,8=2,9=2,10=2,28=1/1;
 7/8=1,10=1,25=1/1,2,3,16;
 1/10=4,30=1/3;
 99//99;
 Structure from the checkpoint file:  "clf5.chk"
 -------------------------------------
 chlorine pentafluoride, B3LYP/pcseg-2
 -------------------------------------
 Charge =  0 Multiplicity = 1
 Redundant internal coordinates found in file.  (old form).
 Cl,0,0.,0.,0.300998
 F,0,0.,0.,-1.318017
 F,0,0.,1.688052,0.187366
 F,0,-1.688052,0.,0.187366
 F,0,0.,-1.688052,0.187366
 F,0,1.688052,0.,0.187366
 Recover connectivity data from disk.

 GradGradGradGradGradGradGradGradGradGradGradGradGradGradGradGradGradGrad
 Berny optimization.
 Initialization pass.
                           ----------------------------
                           !    Initial Parameters    !
                           ! (Angstroms and Degrees)  !
 --------------------------                            --------------------------
 ! Name  Definition              Value          Derivative Info.                !
 --------------------------------------------------------------------------------
 ! R1    R(1,2)                  1.619          calculate D2E/DX2 analytically  !
 ! R2    R(1,3)                  1.6919         calculate D2E/DX2 analytically  !
 ! R3    R(1,4)                  1.6919         calculate D2E/DX2 analytically  !
 ! R4    R(1,5)                  1.6919         calculate D2E/DX2 analytically  !
 ! R5    R(1,6)                  1.6919         calculate D2E/DX2 analytically  !
 ! A1    A(2,1,3)               86.1489         calculate D2E/DX2 analytically  !
 ! A2    A(2,1,4)               86.1489         calculate D2E/DX2 analytically  !
 ! A3    A(2,1,5)               86.1489         calculate D2E/DX2 analytically  !
 ! A4    A(2,1,6)               86.1489         calculate D2E/DX2 analytically  !
 ! A5    A(3,1,4)               89.7415         calculate D2E/DX2 analytically  !
 ! A6    A(3,1,6)               89.7415         calculate D2E/DX2 analytically  !
 ! A7    A(4,1,5)               89.7415         calculate D2E/DX2 analytically  !
 ! A8    A(5,1,6)               89.7415         calculate D2E/DX2 analytically  !
 ! A9    L(3,1,5,2,-1)         172.2978         calculate D2E/DX2 analytically  !
 ! A10   L(4,1,6,2,-1)         172.2978         calculate D2E/DX2 analytically  !
 ! A11   L(3,1,5,2,-2)         180.0            calculate D2E/DX2 analytically  !
 ! A12   L(4,1,6,2,-2)         180.0            calculate D2E/DX2 analytically  !
 ! D1    D(2,1,4,3)            -86.1576         calculate D2E/DX2 analytically  !
 ! D2    D(2,1,5,3)              0.0            calculate D2E/DX2 analytically  !
 ! D3    D(2,1,6,3)             86.1576         calculate D2E/DX2 analytically  !
 ! D4    D(2,1,5,4)            -86.1576         calculate D2E/DX2 analytically  !
 ! D5    D(2,1,6,4)              0.0            calculate D2E/DX2 analytically  !
 ! D6    D(2,1,6,5)            -86.1576         calculate D2E/DX2 analytically  !
 ! D7    D(3,1,6,4)            -86.1576         calculate D2E/DX2 analytically  !
 --------------------------------------------------------------------------------
 Trust Radius=3.00D-01 FncErr=1.00D-07 GrdErr=1.00D-07 EigMax=2.50D+02 EigMin=1.00D-04
 Number of steps in this run=      2 maximum allowed number of steps=      2.
 GradGradGradGradGradGradGradGradGradGradGradGradGradGradGradGradGradGrad

                          Input orientation:                          
 ---------------------------------------------------------------------
 Center     Atomic      Atomic             Coordinates (Angstroms)
 Number     Number       Type             X           Y           Z
 ---------------------------------------------------------------------
      1         17           0       -0.000000   -0.000000    0.300998
      2          9           0       -0.000000   -0.000000   -1.318017
      3          9           0       -0.000000    1.688052    0.187366
      4          9           0       -1.688052    0.000000    0.187366
      5          9           0       -0.000000   -1.688052    0.187366
      6          9           0        1.688052   -0.000000    0.187366
 ---------------------------------------------------------------------
                    Distance matrix (angstroms):
                    1          2          3          4          5
     1  Cl   0.000000
     2  F    1.619015   0.000000
     3  F    1.691872   2.261791   0.000000
     4  F    1.691872   2.261791   2.387266   0.000000
     5  F    1.691872   2.261791   3.376104   2.387266   0.000000
     6  F    1.691872   2.261791   2.387266   3.376104   2.387266
                    6
     6  F    0.000000
 Stoichiometry    ClF5
 Framework group  C4V[C4(FCl),2SGV(F2)]
 Deg. of freedom     3
 Full point group                 C4V     NOp   8
 Largest Abelian subgroup         C2V     NOp   4
 Largest concise Abelian subgroup C2V     NOp   4
                         Standard orientation:                         
 ---------------------------------------------------------------------
 Center     Atomic      Atomic             Coordinates (Angstroms)
 Number     Number       Type             X           Y           Z
 ---------------------------------------------------------------------
      1         17           0        0.000000    0.000000    0.300998
      2          9           0        0.000000    0.000000   -1.318017
      3          9           0        0.000000    1.688052    0.187366
      4          9           0       -1.688052    0.000000    0.187366
      5          9           0       -0.000000   -1.688052    0.187366
      6          9           0        1.688052   -0.000000    0.187366
 ---------------------------------------------------------------------
 Rotational constants (GHZ):           3.4353469           3.4353469           2.3338260
 Basis read from chk: "clf5.chk" (5D, 7F)
 There are    82 symmetry adapted cartesian basis functions of A1  symmetry.
 There are    28 symmetry adapted cartesian basis functions of A2  symmetry.
 There are    52 symmetry adapted cartesian basis functions of B1  symmetry.
 There are    52 symmetry adapted cartesian basis functions of B2  symmetry.
 There are    68 symmetry adapted basis functions of A1  symmetry.
 There are    26 symmetry adapted basis functions of A2  symmetry.
 There are    45 symmetry adapted basis functions of B1  symmetry.
 There are    45 symmetry adapted basis functions of B2  symmetry.
   184 basis functions,   325 primitive gaussians,   214 cartesian basis functions
    31 alpha electrons       31 beta electrons
       nuclear repulsion energy       414.4436922285 Hartrees.
 NAtoms=    6 NActive=    6 NUniq=    3 SFac= 4.00D+00 NAtFMM=   60 NAOKFM=F Big=F
 Integral buffers will be    131072 words long.
 Raffenetti 2 integral format.
 Two-electron integral symmetry is turned on.
 One-electron integrals computed using PRISM.
 NBasis=   184 RedAO= T EigKep=  5.22D-03  NBF=    68    26    45    45
 NBsUse=   184 1.00D-06 EigRej= -1.00D+00 NBFU=    68    26    45    45
 Initial guess from the checkpoint file:  "clf5.chk"
 B after Tr=     0.000000    0.000000    0.000000
         Rot=    1.000000    0.000000    0.000000    0.000000 Ang=   0.00 deg.
 Initial guess orbital symmetries:
       Occupied  (A1) (A1) (B2) (E) (E) (A1) (A1) (E) (E) (A1)
                 (A1) (A1) (E) (E) (B2) (A1) (E) (E) (A1) (E) (E)
                 (B1) (B2) (A1) (E) (E) (B2) (E) (E) (A2) (A1)
       Virtual   (A1) (E) (E) (A1) (E) (E) (A1) (B1) (E) (E) (A1)
                 (B2) (B1) (E) (E) (A1) (E) (E) (B2) (A1) (E) (E)
                 (B2) (A2) (E) (E) (A1) (A1) (B2) (E) (E) (A1)
                 (B2) (E) (E) (B1) (A1) (E) (E) (B1) (E) (E) (A2)
                 (B2) (A1) (B1) (E) (E) (B2) (A2) (E) (E) (E) (E)
                 (A1) (B1) (A1) (B2) (E) (E) (A1) (E) (E) (B2)
                 (A1) (E) (E) (B1) (E) (E) (A2) (B2) (E) (E) (A1)
                 (B2) (E) (E) (A1) (A1) (E) (E) (B1) (E) (E) (A1)
                 (B2) (B2) (A1) (B1) (E) (E) (A2) (A2) (E) (E)
                 (E) (E) (B1) (B2) (E) (E) (A1) (A2) (E) (E) (A1)
                 (B2) (E) (E) (B1) (A1) (B2) (A1) (E) (E) (B2)
                 (A1) (E) (E) (B1) (E) (E) (E) (E) (B2) (A1) (B1)
                 (E) (E) (A2) (B1) (E) (E) (B2) (A1) (B2) (A2)
                 (E) (E) (E) (E) (B2) (B1) (E) (E) (A1) (A1) (B2)
                 (A1) (E) (E) (A1)
 Keep R1 ints in memory in symmetry-blocked form, NReq=181347020.
 Requested convergence on RMS density matrix=1.00D-08 within 128 cycles.
 Requested convergence on MAX density matrix=1.00D-06.
 Requested convergence on             energy=1.00D-06.
 No special actions if energy rises.
 SCF Done:  E(RB3LYP) =  -959.303716068     A.U. after    1 cycles
            NFock=  1  Conv=0.47D-08     -V/T= 2.0018
 DoSCS=F DFT=T ScalE2(SS,OS)=  1.000000  1.000000
 Range of M.O.s used for correlation:     1   184
 NBasis=   184 NAE=    31 NBE=    31 NFC=     0 NFV=     0
 NROrb=    184 NOA=    31 NOB=    31 NVA=   153 NVB=   153
 Symmetrizing basis deriv contribution to polar:
 IMax=3 JMax=2 DiffMx= 0.00D+00
 G2DrvN: will do     7 centers at a time, making    1 passes.
 Calling FoFCou, ICntrl=  3107 FMM=F I1Cent=   0 AccDes= 0.00D+00.
 End of G2Drv F.D. properties file   721 does not exist.
 End of G2Drv F.D. properties file   722 does not exist.
 End of G2Drv F.D. properties file   788 does not exist.
          IDoAtm=111111
          Differentiating once with respect to electric field.
                with respect to dipole field.
          Differentiating once with respect to nuclear coordinates.
 Keep R1 ints in memory in symmetry-blocked form, NReq=181351000.
          There are    12 degrees of freedom in the 1st order CPHF.  IDoFFX=4 NUNeed=    12.
     12 vectors produced by pass  0 Test12= 3.95D-14 8.33D-09 XBig12= 4.18D+01 4.32D+00.
 AX will form    12 AO Fock derivatives at one time.
     12 vectors produced by pass  1 Test12= 3.95D-14 8.33D-09 XBig12= 1.83D+01 1.06D+00.
     12 vectors produced by pass  2 Test12= 3.95D-14 8.33D-09 XBig12= 5.21D-01 3.48D-01.
     12 vectors produced by pass  3 Test12= 3.95D-14 8.33D-09 XBig12= 1.84D-02 3.16D-02.
     12 vectors produced by pass  4 Test12= 3.95D-14 8.33D-09 XBig12= 3.83D-04 5.68D-03.
     12 vectors produced by pass  5 Test12= 3.95D-14 8.33D-09 XBig12= 5.99D-06 6.42D-04.
     12 vectors produced by pass  6 Test12= 3.95D-14 8.33D-09 XBig12= 1.26D-07 1.23D-04.
      9 vectors produced by pass  7 Test12= 3.95D-14 8.33D-09 XBig12= 7.12D-10 8.25D-06.
      3 vectors produced by pass  8 Test12= 3.95D-14 8.33D-09 XBig12= 2.72D-12 4.81D-07.
      2 vectors produced by pass  9 Test12= 3.95D-14 8.33D-09 XBig12= 4.69D-15 1.84D-08.
 InvSVY:  IOpt=1 It=  1 EMax= 8.88D-16
 Solved reduced A of dimension    98 with    12 vectors.
 Isotropic polarizability for W=    0.000000       33.02 Bohr**3.
 End of Minotr F.D. properties file   721 does not exist.
 End of Minotr F.D. properties file   722 does not exist.
 End of Minotr F.D. properties file   788 does not exist.

 **********************************************************************

            Population analysis using the SCF Density.

 **********************************************************************

 Orbital symmetries:
       Occupied  (A1) (A1) (B2) (E) (E) (A1) (A1) (E) (E) (A1)
                 (A1) (A1) (E) (E) (B2) (A1) (E) (E) (A1) (E) (E)
                 (B1) (B2) (A1) (E) (E) (B2) (E) (E) (A2) (A1)
       Virtual   (A1) (E) (E) (A1) (E) (E) (A1) (B1) (E) (E) (A1)
                 (B2) (B1) (E) (E) (A1) (E) (E) (B2) (A1) (E) (E)
                 (B2) (A2) (E) (E) (A1) (A1) (B2) (E) (E) (A1)
                 (B2) (E) (E) (B1) (A1) (E) (E) (B1) (E) (E) (A2)
                 (B2) (A1) (B1) (E) (E) (B2) (A2) (E) (E) (E) (E)
                 (A1) (B1) (A1) (B2) (E) (E) (A1) (E) (E) (B2)
                 (A1) (E) (E) (B1) (E) (E) (A2) (B2) (E) (E) (A1)
                 (B2) (E) (E) (A1) (A1) (E) (E) (B1) (E) (E) (A1)
                 (B2) (B2) (A1) (B1) (E) (E) (A2) (A2) (E) (E)
                 (E) (E) (B1) (B2) (E) (E) (A1) (A2) (E) (E) (A1)
                 (B2) (E) (E) (B1) (A1) (B2) (A1) (E) (E) (B2)
                 (A1) (E) (E) (B1) (E) (E) (E) (E) (B2) (A1) (B1)
                 (E) (E) (A2) (B1) (E) (E) (B2) (A1) (B2) (A2)
                 (E) (E) (E) (E) (B2) (B1) (E) (E) (A1) (A1) (B2)
                 (A1) (E) (E) (A1)
 The electronic state is 1-A1.
 Alpha  occ. eigenvalues -- -101.93906 -24.79591 -24.73841 -24.73841 -24.73841
 Alpha  occ. eigenvalues --  -24.73840  -9.83216  -7.59369  -7.59369  -7.58662
 Alpha  occ. eigenvalues --   -1.38970  -1.25989  -1.25102  -1.25102  -1.21429
 Alpha  occ. eigenvalues --   -0.94833  -0.68399  -0.68399  -0.68136  -0.54488
 Alpha  occ. eigenvalues --   -0.54488  -0.52976  -0.51074  -0.48999  -0.46702
 Alpha  occ. eigenvalues --   -0.46702  -0.46563  -0.45735  -0.45735  -0.43556
 Alpha  occ. eigenvalues --   -0.39666
 Alpha virt. eigenvalues --   -0.17418  -0.10596  -0.10596   0.19308   0.20760
 Alpha virt. eigenvalues --    0.20760   0.29753   0.30238   0.30240   0.30240
 Alpha virt. eigenvalues --    0.36695   0.38284   0.45538   0.46057   0.46057
 Alpha virt. eigenvalues --    0.46916   0.47516   0.47516   0.51113   0.51335
 Alpha virt. eigenvalues --    0.52437   0.52437   0.63107   0.63160   0.63254
 Alpha virt. eigenvalues --    0.63254   0.63374   0.80720   0.82209   0.98447
 Alpha virt. eigenvalues --    0.98447   1.21429   1.38827   1.42143   1.42143
 Alpha virt. eigenvalues --    1.49487   1.57946   1.68257   1.68257   1.78805
 Alpha virt. eigenvalues --    1.78931   1.78931   1.80072   1.84772   1.86267
 Alpha virt. eigenvalues --    1.87923   1.88130   1.88130   1.91352   1.93463
 Alpha virt. eigenvalues --    1.94788   1.94788   1.99987   1.99987   2.06575
 Alpha virt. eigenvalues --    2.12337   2.27334   2.29972   2.33100   2.33100
 Alpha virt. eigenvalues --    2.39880   2.46345   2.46345   2.48670   2.49497
 Alpha virt. eigenvalues --    2.55072   2.55072   2.81977   2.83052   2.83052
 Alpha virt. eigenvalues --    2.85106   2.85957   2.86862   2.86862   2.94593
 Alpha virt. eigenvalues --    2.95108   2.97429   2.97429   2.98160   3.45800
 Alpha virt. eigenvalues --    3.48926   3.48926   3.51695   3.88602   3.88602
 Alpha virt. eigenvalues --    4.06097   4.09574   4.18438   4.21185   4.26943
 Alpha virt. eigenvalues --    4.27556   4.27556   4.28313   4.30593   4.31107
 Alpha virt. eigenvalues --    4.31107   4.31870   4.31870   4.33101   4.33535
 Alpha virt. eigenvalues --    4.33739   4.33739   4.33946   4.34808   4.35232
 Alpha virt. eigenvalues --    4.35232   4.36948   4.37162   4.38053   4.38053
 Alpha virt. eigenvalues --    4.44786   4.46530   4.47055   4.59051   4.61463
 Alpha virt. eigenvalues --    4.61463   4.72755   4.79132   4.79372   4.79372
 Alpha virt. eigenvalues --    4.94446   5.00079   5.00079   5.73382   5.73382
 Alpha virt. eigenvalues --    5.76299   5.98311   7.40864   7.44974   7.44974
 Alpha virt. eigenvalues --    7.45895   7.45981   7.47298   7.47298   7.47929
 Alpha virt. eigenvalues --    7.53093   7.53491   7.59511   7.64004   7.64004
 Alpha virt. eigenvalues --    7.67713   7.67713   7.68648   7.69485   7.77686
 Alpha virt. eigenvalues --    7.77686   7.81385   7.95628   8.23784   8.27402
 Alpha virt. eigenvalues --    8.32387   8.32387  34.39114
          Condensed to atoms (all electrons):
               1          2          3          4          5          6
     1  Cl  15.350366   0.152669   0.079819   0.079819   0.079819   0.079819
     2  F    0.152669   9.146312  -0.045105  -0.045105  -0.045105  -0.045105
     3  F    0.079819  -0.045105   9.268674  -0.022424   0.006241  -0.022424
     4  F    0.079819  -0.045105  -0.022424   9.268674  -0.022424   0.006241
     5  F    0.079819  -0.045105   0.006241  -0.022424   9.268674  -0.022424
     6  F    0.079819  -0.045105  -0.022424   0.006241  -0.022424   9.268674
 Mulliken charges:
               1
     1  Cl   1.177687
     2  F   -0.118559
     3  F   -0.264782
     4  F   -0.264782
     5  F   -0.264782
     6  F   -0.264782
 Sum of Mulliken charges =  -0.00000
 Mulliken charges with hydrogens summed into heavy atoms:
               1
     1  Cl   1.177687
     2  F   -0.118559
     3  F   -0.264782
     4  F   -0.264782
     5  F   -0.264782
     6  F   -0.264782
 APT charges:
               1
     1  Cl   2.878302
     2  F   -0.411424
     3  F   -0.616720
     4  F   -0.616720
     5  F   -0.616720
     6  F   -0.616720
 Sum of APT charges =  -0.00000
 APT charges with hydrogens summed into heavy atoms:
               1
     1  Cl   2.878302
     2  F   -0.411424
     3  F   -0.616720
     4  F   -0.616720
     5  F   -0.616720
     6  F   -0.616720
 Electronic spatial extent (au):  <R**2>=            519.2490
 Charge=             -0.0000 electrons
 Dipole moment (field-independent basis, Debye):
    X=             -0.0000    Y=              0.0000    Z=              0.6730  Tot=              0.6730
 Quadrupole moment (field-independent basis, Debye-Ang):
   XX=            -40.7873   YY=            -40.7873   ZZ=            -35.5432
   XY=              0.0000   XZ=             -0.0000   YZ=              0.0000
 Traceless Quadrupole moment (field-independent basis, Debye-Ang):
   XX=             -1.7481   YY=             -1.7481   ZZ=              3.4961
   XY=              0.0000   XZ=             -0.0000   YZ=              0.0000
 Octapole moment (field-independent basis, Debye-Ang**2):
  XXX=             -0.0000  YYY=              0.0000  ZZZ=             -2.0239  XYY=              0.0000
  XXY=              0.0000  XXZ=             -1.6355  XZZ=              0.0000  YZZ=              0.0000
  YYZ=             -1.6355  XYZ=              0.0000
 Hexadecapole moment (field-independent basis, Debye-Ang**3):
 XXXX=           -207.3315 YYYY=           -207.3315 ZZZZ=            -83.3172 XXXY=              0.0000
 XXXZ=             -0.0000 YYYX=              0.0000 YYYZ=              0.0000 ZZZX=             -0.0000
 ZZZY=              0.0000 XXYY=            -66.8637 XXZZ=            -48.0542 YYZZ=            -48.0542
 XXYZ=              0.0000 YYXZ=              0.0000 ZZXY=              0.0000
 N-N= 4.144436922285D+02 E-N=-3.111813419448D+03  KE= 9.575888617357D+02
 Symmetry A1   KE= 6.461207117026D+02
 Symmetry A2   KE= 1.282836304084D+01
 Symmetry B1   KE= 1.493198934962D+02
 Symmetry B2   KE= 1.493198934962D+02
  Exact polarizability:  37.972   0.000  37.972   0.000   0.000  23.130
 Approx polarizability:  67.812  -0.000  67.812   0.000   0.000  35.471
 Calling FoFJK, ICntrl=    100127 FMM=F ISym2X=1 I1Cent= 0 IOpClX= 0 NMat=1 NMatS=1 NMatT=0.
 Full mass-weighted force constant matrix:
 Low frequencies ---  -17.0536  -11.2412  -11.2412   -0.0041   -0.0025   -0.0022
 Low frequencies ---  260.0244  284.3430  284.3430
 Diagonal vibrational polarizability:
       27.1302479      27.1302480       9.3057923
 Harmonic frequencies (cm**-1), IR intensities (KM/Mole), Raman scattering
 activities (A**4/AMU), depolarization ratios for plane and unpolarized
 incident light, reduced masses (AMU), force constants (mDyne/A),
 and normal coordinates:
                      1                      2                      3
                     B2                      E                      E
 Frequencies --    260.0244               284.3430               284.3430
 Red. masses --     18.9984                19.2700                19.2700
 Frc consts  --      0.7568                 0.9179                 0.9179
 IR Inten    --      0.0000                 1.2814                 1.2814
  Atom  AN      X      Y      Z        X      Y      Z        X      Y      Z
     1  17     0.00  -0.00  -0.00     0.00  -0.13  -0.00    -0.13  -0.00  -0.00
     2   9     0.00  -0.00  -0.00     0.00  -0.40  -0.00    -0.40  -0.00  -0.00
     3   9    -0.00   0.05   0.50    -0.00  -0.25   0.17     0.57  -0.00   0.00
     4   9     0.05   0.00  -0.50     0.00   0.57   0.00    -0.25   0.00  -0.17
     5   9    -0.00  -0.05   0.50    -0.00  -0.25  -0.17     0.57  -0.00  -0.00
     6   9    -0.05   0.00  -0.50     0.00   0.57  -0.00    -0.25   0.00   0.17
                      4                      5                      6
                     B1                     A1                      E
 Frequencies --    360.3102               463.7468               470.3969
 Red. masses --     18.9984                21.9001                19.2178
 Frc consts  --      1.4532                 2.7750                 2.5054
 IR Inten    --      0.0000                33.0229                 3.4689
  Atom  AN      X      Y      Z        X      Y      Z        X      Y      Z
     1  17     0.00   0.00   0.00    -0.00   0.00   0.43     0.00  -0.12   0.00
     2   9     0.00   0.00  -0.00     0.00  -0.00   0.37    -0.00   0.68   0.00
     3   9     0.50   0.00  -0.00     0.00  -0.30  -0.29    -0.00  -0.38  -0.31
     4   9     0.00  -0.50   0.00     0.30  -0.00  -0.29     0.00   0.14  -0.00
     5   9    -0.50   0.00   0.00     0.00   0.30  -0.29    -0.00  -0.38   0.31
     6   9     0.00   0.50  -0.00    -0.30  -0.00  -0.29     0.00   0.14   0.00
                      7                      8                      9
                      E                     B2                     A1
 Frequencies --    470.3969               477.4203               532.1020
 Red. masses --     19.2178                18.9984                19.0024
 Frc consts  --      2.5054                 2.5513                 3.1699
 IR Inten    --      3.4689                 0.0000                 7.1275
  Atom  AN      X      Y      Z        X      Y      Z        X      Y      Z
     1  17    -0.12  -0.00  -0.00    -0.00  -0.00   0.00     0.00  -0.00  -0.02
     2   9     0.68   0.00  -0.00     0.00   0.00   0.00    -0.00   0.00   0.66
     3   9     0.14  -0.00  -0.00     0.00   0.50  -0.05     0.00   0.34  -0.16
     4   9    -0.38   0.00   0.31     0.50   0.00   0.05    -0.34   0.00  -0.16
     5   9     0.14  -0.00   0.00     0.00  -0.50  -0.05    -0.00  -0.34  -0.16
     6   9    -0.38   0.00  -0.31    -0.50   0.00   0.05     0.34   0.00  -0.16
                     10                     11                     12
                     A1                      E                      E
 Frequencies --    724.6472               734.5258               734.5258
 Red. masses --     23.7811                27.0759                27.0759
 Frc consts  --      7.3576                 8.6069                 8.6069
 IR Inten    --     87.7314               526.9104               526.9104
  Atom  AN      X      Y      Z        X      Y      Z        X      Y      Z
     1  17     0.00  -0.00   0.55     0.71  -0.00  -0.00     0.00   0.71   0.00
     2   9    -0.00   0.00  -0.62    -0.13   0.00   0.00    -0.00  -0.13  -0.00
     3   9     0.00   0.26  -0.10    -0.13   0.00  -0.00    -0.00  -0.46   0.10
     4   9    -0.26   0.00  -0.10    -0.46   0.00  -0.10    -0.00  -0.13  -0.00
     5   9    -0.00  -0.26  -0.10    -0.13   0.00   0.00    -0.00  -0.46  -0.10
     6   9     0.26   0.00  -0.10    -0.46   0.00   0.10    -0.00  -0.13   0.00

 -------------------
 - Thermochemistry -
 -------------------
 Temperature   298.150 Kelvin.  Pressure   1.00000 Atm.
 Atom     1 has atomic number 17 and mass  34.96885
 Atom     2 has atomic number  9 and mass  18.99840
 Atom     3 has atomic number  9 and mass  18.99840
 Atom     4 has atomic number  9 and mass  18.99840
 Atom     5 has atomic number  9 and mass  18.99840
 Atom     6 has atomic number  9 and mass  18.99840
 Molecular mass:   129.96087 amu.
 Principal axes and moments of inertia in atomic units:
                           1         2         3
     Eigenvalues --   525.34468 525.34468 773.29726
           X            0.72828   0.68528   0.00000
           Y           -0.68528   0.72828   0.00000
           Z            0.00000  -0.00000   1.00000
 This molecule is an oblate symmetric top.
 Rotational symmetry number  4.
 Warning -- assumption of classical behavior for rotation
           may cause significant error
 Rotational temperatures (Kelvin)      0.16487     0.16487     0.11201
 Rotational constants (GHZ):           3.43535     3.43535     2.33383
 Zero-point vibrational energy      34672.5 (Joules/Mol)
                                    8.28692 (Kcal/Mol)
 Warning -- explicit consideration of   9 degrees of freedom as
           vibrations may cause significant error
 Vibrational temperatures:    374.12   409.11   409.11   518.41   667.23
          (Kelvin)            676.80   676.80   686.90   765.58  1042.61
                             1056.82  1056.82
 
 Zero-point correction=                           0.013206 (Hartree/Particle)
 Thermal correction to Energy=                    0.019233
 Thermal correction to Enthalpy=                  0.020177
 Thermal correction to Gibbs Free Energy=        -0.015335
 Sum of electronic and zero-point Energies=           -959.290510
 Sum of electronic and thermal Energies=              -959.284483
 Sum of electronic and thermal Enthalpies=            -959.283539
 Sum of electronic and thermal Free Energies=         -959.319052
 
                     E (Thermal)             CV                S
                      KCal/Mol        Cal/Mol-Kelvin    Cal/Mol-Kelvin
 Total                   12.069             21.420             74.742
 Electronic               0.000              0.000              0.000
 Translational            0.889              2.981             40.499
 Rotational               0.889              2.981             24.104
 Vibrational             10.291             15.458             10.139
 Vibration     1          0.668              1.746              1.662
 Vibration     2          0.683              1.703              1.507
 Vibration     3          0.683              1.703              1.507
 Vibration     4          0.735              1.554              1.121
 Vibration     5          0.821              1.330              0.755
 Vibration     6          0.827              1.316              0.736
 Vibration     7          0.827              1.316              0.736
 Vibration     8          0.834              1.300              0.717
 Vibration     9          0.887              1.179              0.583
                       Q            Log10(Q)             Ln(Q)
 Total Bot       0.113196D+08          7.053830         16.242044
 Total V=0       0.134333D+14         13.128182         30.228756
 Vib (Bot)       0.470169D-05         -5.327746        -12.267589
 Vib (Bot)    1  0.746965D+00         -0.126700         -0.291737
 Vib (Bot)    2  0.674602D+00         -0.170952         -0.393632
 Vib (Bot)    3  0.674602D+00         -0.170952         -0.393632
 Vib (Bot)    4  0.508597D+00         -0.293627         -0.676100
 Vib (Bot)    5  0.365630D+00         -0.436958         -1.006134
 Vib (Bot)    6  0.358458D+00         -0.445562         -1.025944
 Vib (Bot)    7  0.358458D+00         -0.445562         -1.025944
 Vib (Bot)    8  0.351087D+00         -0.454586         -1.046722
 Vib (Bot)    9  0.299971D+00         -0.522920         -1.204068
 Vib (V=0)       0.557964D+01          0.746606          1.719124
 Vib (V=0)    1  0.139886D+01          0.145776          0.335661
 Vib (V=0)    2  0.133970D+01          0.127006          0.292442
 Vib (V=0)    3  0.133970D+01          0.127006          0.292442
 Vib (V=0)    4  0.121321D+01          0.083936          0.193271
 Vib (V=0)    5  0.111942D+01          0.048994          0.112814
 Vib (V=0)    6  0.111522D+01          0.047359          0.109049
 Vib (V=0)    7  0.111522D+01          0.047359          0.109049
 Vib (V=0)    8  0.111095D+01          0.045695          0.105217
 Vib (V=0)    9  0.108308D+01          0.034661          0.079809
 Electronic      0.100000D+01          0.000000          0.000000
 Translational   0.582335D+08          7.765173         17.879971
 Rotational      0.413431D+05          4.616403         10.629661
 ***** Axes restored to original set *****
 -------------------------------------------------------------------
 Center     Atomic                   Forces (Hartrees/Bohr)
 Number     Number              X              Y              Z
 -------------------------------------------------------------------
      1       17          -0.000000000   -0.000000000   -0.000107660
      2        9          -0.000000000    0.000000000    0.000176460
      3        9          -0.000000000    0.000034692   -0.000017200
      4        9          -0.000034692   -0.000000000   -0.000017200
      5        9           0.000000000   -0.000034692   -0.000017200
      6        9           0.000034692    0.000000000   -0.000017200
 -------------------------------------------------------------------
 Cartesian Forces:  Max     0.000176460 RMS     0.000052029
 FormGI is forming the generalized inverse of G from B-inverse, IUseBI=4.

 GradGradGradGradGradGradGradGradGradGradGradGradGradGradGradGradGradGrad
 Berny optimization.
 Internal  Forces:  Max     0.000176460 RMS     0.000040099
 Search for a local minimum.
 Step number   1 out of a maximum of    2
 All quantities printed in internal units (Hartrees-Bohrs-Radians)
 Second derivative matrix not updated -- analytic derivatives used.
 ITU=  0
     Eigenvalues ---    0.00228   0.00440   0.09873   0.13068   0.14032
     Eigenvalues ---    0.15576   0.16451   0.19203   0.23889   0.24134
     Eigenvalues ---    0.26454   0.33008
 Angle between quadratic step and forces=  20.16 degrees.
 Linear search not attempted -- first point.
 Iteration  1 RMS(Cart)=  0.00018344 RMS(Int)=  0.00000000
 Iteration  2 RMS(Cart)=  0.00000000 RMS(Int)=  0.00000000
 ClnCor:  largest displacement from symmetrization is 4.25D-09 for atom     6.
 Variable       Old X    -DE/DX   Delta X   Delta X   Delta X     New X
                                 (Linear)    (Quad)   (Total)
    R1        3.05949  -0.00018   0.00000  -0.00089  -0.00089   3.05861
    R2        3.19718   0.00004   0.00000   0.00023   0.00023   3.19740
    R3        3.19718   0.00004   0.00000   0.00023   0.00023   3.19740
    R4        3.19718   0.00004   0.00000   0.00023   0.00023   3.19740
    R5        3.19718   0.00004   0.00000   0.00023   0.00023   3.19740
    A1        1.50358  -0.00001   0.00000   0.00002   0.00002   1.50361
    A2        1.50358  -0.00001   0.00000   0.00002   0.00002   1.50361
    A3        1.50358  -0.00001   0.00000   0.00002   0.00002   1.50361
    A4        1.50358  -0.00002   0.00000   0.00002   0.00002   1.50361
    A5        1.56629  -0.00000   0.00000   0.00000   0.00000   1.56629
    A6        1.56629  -0.00000   0.00000   0.00000   0.00000   1.56629
    A7        1.56629  -0.00000   0.00000   0.00000   0.00000   1.56629
    A8        1.56629  -0.00000   0.00000   0.00000   0.00000   1.56629
    A9        3.00716  -0.00002   0.00000   0.00005   0.00005   3.00721
   A10        3.00716  -0.00003   0.00000   0.00005   0.00005   3.00721
   A11        3.14159   0.00000   0.00000  -0.00000   0.00000   3.14159
   A12        3.14159   0.00000   0.00000   0.00000   0.00000   3.14159
    D1       -1.50373   0.00001   0.00000  -0.00002  -0.00002  -1.50376
    D2       -0.00000  -0.00000   0.00000   0.00000   0.00000   0.00000
    D3        1.50373  -0.00001   0.00000   0.00002   0.00002   1.50376
    D4       -1.50373   0.00001   0.00000  -0.00002  -0.00002  -1.50376
    D5       -0.00000  -0.00000   0.00000  -0.00000   0.00000   0.00000
    D6       -1.50373   0.00001   0.00000  -0.00002  -0.00002  -1.50376
    D7       -1.50373   0.00000   0.00000  -0.00002  -0.00002  -1.50376
         Item               Value     Threshold  Converged?
 Maximum Force            0.000176     0.000450     YES
 RMS     Force            0.000040     0.000300     YES
 Maximum Displacement     0.000702     0.001800     YES
 RMS     Displacement     0.000183     0.001200     YES
 Predicted change in Energy=-9.249197D-08
 Optimization completed.
    -- Stationary point found.
                           ----------------------------
                           !   Optimized Parameters   !
                           ! (Angstroms and Degrees)  !
[...]
      6          9           0        1.688052   -0.000000    0.187366
 ---------------------------------------------------------------------
 Rotational constants (GHZ):           3.4353469           3.4353469           2.3338260
 General basis read from cards:  (5D, 7F)
 There are   143 symmetry adapted cartesian basis functions of A1  symmetry.
 There are    51 symmetry adapted cartesian basis functions of A2  symmetry.
 There are    94 symmetry adapted cartesian basis functions of B1  symmetry.
 There are    94 symmetry adapted cartesian basis functions of B2  symmetry.
 There are   118 symmetry adapted basis functions of A1  symmetry.
 There are    47 symmetry adapted basis functions of A2  symmetry.
 There are    81 symmetry adapted basis functions of B1  symmetry.
 There are    81 symmetry adapted basis functions of B2  symmetry.
   327 basis functions,   519 primitive gaussians,   382 cartesian basis functions
    31 alpha electrons       31 beta electrons
       nuclear repulsion energy       414.4436922285 Hartrees.
 NAtoms=    6 NActive=    6 NUniq=    3 SFac= 4.00D+00 NAtFMM=   60 NAOKFM=F Big=F
 Integral buffers will be    131072 words long.
 Raffenetti 2 integral format.
 Two-electron integral symmetry is turned on.
 One-electron integrals computed using PRISM.
 NBasis=   327 RedAO= T EigKep=  2.47D-04  NBF=   118    47    81    81
 NBsUse=   327 1.00D-06 EigRej= -1.00D+00 NBFU=   118    47    81    81
 Initial guess from the checkpoint file:  "clf5.chk"
 B after Tr=     0.000000    0.000000    0.000000
         Rot=    1.000000    0.000000    0.000000    0.000000 Ang=   0.00 deg.
 Initial guess orbital symmetries:
       Occupied  (A1) (A1) (B2) (E) (E) (A1) (A1) (E) (E) (A1)
                 (A1) (A1) (E) (E) (B2) (A1) (E) (E) (A1) (E) (E)
                 (B1) (B2) (A1) (E) (E) (B2) (E) (E) (A2) (A1)
       Virtual   (A1) (E) (E) (A1) (E) (E) (A1) (B1) (E) (E) (A1)
                 (B2) (B1) (E) (E) (A1) (E) (E) (B2) (A1) (E) (E)
                 (B2) (A2) (E) (E) (A1) (A1) (B2) (E) (E) (A1)
                 (B2) (E) (E) (B1) (A1) (E) (E) (B1) (E) (E) (A2)
                 (B2) (A1) (B1) (E) (E) (B2) (A2) (E) (E) (E) (E)
                 (A1) (B1) (A1) (B2) (E) (E) (A1) (E) (E) (B2)
                 (A1) (E) (E) (B1) (E) (E) (A2) (B2) (E) (E) (A1)
                 (B2) (E) (E) (A1) (A1) (E) (E) (B1) (E) (E) (A1)
                 (B2) (B2) (A1) (B1) (E) (E) (A2) (A2) (E) (E)
                 (E) (E) (B1) (B2) (E) (E) (A1) (A2) (E) (E) (A1)
                 (B2) (E) (E) (B1) (A1) (B2) (A1) (E) (E) (B2)
                 (A1) (E) (E) (B1) (E) (E) (E) (E) (B2) (A1) (B1)
                 (E) (E) (A2) (B1) (E) (E) (B2) (A1) (B2) (A2)
                 (E) (E) (E) (E) (B2) (B1) (E) (E) (A1) (A1) (B2)
                 (A1) (E) (E) (A1) (A1) (A1) (B2) (A1) (A1) (A1)
                 (B2) (B2) (A1) (A1) (A1) (B2) (A1) (B2) (A1) (A1)
                 (A1) (B2) (A1) (B2) (A1) (B2) (B2) (A1) (A1) (A1)
                 (B2) (A1) (A1) (B2) (A1) (B2) (B2) (A1) (B2) (B2)
                 (A1) (A1) (A1) (A1) (A1) (B2) (B2) (A1) (B2) (A1)
                 (A1) (B2) (A1) (B2) (B1) (B1) (A2) (B1) (B1) (A2)
                 (B1) (A2) (B1) (B1) (B1) (A2) (A2) (B1) (A2) (B1)
                 (A2) (B1) (B1) (B1) (A2) (E) (E) (E) (E) (E) (E)
                 (E) (E) (E) (E) (E) (E) (E) (E) (E) (E) (E) (E)
                 (E) (E) (E) (E) (E) (E) (E) (E) (E) (E) (E) (E)
                 (E) (E) (E) (E) (E) (E) (E) (E) (E) (E) (E) (E)
                 (E) (E) (E) (E) (E) (E) (E) (E) (E) (E) (E) (E)
                 (E) (E) (E) (E) (E) (E) (E) (E) (E) (E) (E) (E)
                 (E) (E) (E) (E) (E) (E)
 Requested convergence on RMS density matrix=1.00D-08 within 128 cycles.
 Requested convergence on MAX density matrix=1.00D-06.
 Requested convergence on             energy=1.00D-06.
 No special actions if energy rises.
 SCF Done:  E(ROHF) =  -956.453816344     A.U. after   12 cycles
            NFock= 12  Conv=0.59D-08     -V/T= 2.0010
 <Sx>= 0.0000 <Sy>= 0.0000 <Sz>= 0.0000 <S**2>=-0.0000 S=-0.0000
 <L.S>=  0.00000000000    
 Annihilation of the first spin contaminant:
 S**2 before annihilation    -0.0000,   after     0.0000

 **********************************************************************

            Population analysis using the SCF Density.

 **********************************************************************

 Orbital symmetries:
       Occupied  (A1) (A1) (B2) (E) (E) (A1) (A1) (E) (E) (A1)
                 (A1) (A1) (E) (E) (B2) (A1) (E) (E) (A1) (E) (E)
                 (B1) (B2) (E) (E) (A1) (E) (E) (B2) (A2) (A1)
       Virtual   (A1) (E) (E) (A1) (A1) (E) (E) (A1) (B2) (E) (E)
                 (B1) (E) (E) (B2) (A1) (E) (E) (A1) (E) (E) (A2)
                 (A1) (E) (E) (A1) (B2) (E) (E) (B1) (A1) (E) (E)
                 (A1) (B2) (B1) (E) (E) (A1) (B1) (B2) (E) (E)
                 (A1) (B2) (E) (E) (A1) (A1) (E) (E) (A2) (E) (E)
                 (B2) (A1) (E) (E) (A1) (B2) (B1) (E) (E) (A2)
                 (A1) (B1) (B2) (E) (E) (E) (E) (A1) (E) (E) (B1)
                 (B2) (A1) (A2) (E) (E) (B2) (B1) (A1) (E) (E)
                 (E) (E) (A1) (B2) (E) (E) (A1) (B2) (A1) (E) (E)
                 (A1) (E) (E) (A1) (E) (E) (B2) (B1) (E) (E) (A1)
                 (B1) (B2) (E) (E) (A2) (B2) (E) (E) (A1) (A2)
                 (E) (E) (B1) (E) (E) (A2) (E) (E) (B1) (A2) (E)
                 (E) (B2) (B1) (E) (E) (A1) (B2) (A1) (B2) (A1)
                 (E) (E) (E) (E) (B1) (B2) (E) (E) (E) (E) (A1)
                 (A1) (B2) (E) (E) (A2) (B1) (B1) (A1) (A1) (E)
                 (E) (B2) (E) (E) (E) (E) (B2) (A1) (B1) (B2) (A1)
                 (E) (E) (A2) (E) (E) (B2) (A1) (E) (E) (B1) (E)
                 (E) (A1) (E) (E) (A1) (B2) (A1) (B2) (A1) (E)
                 (E) (E) (E) (B1) (A1) (E) (E) (B2) (A2) (A2) (E)
                 (E) (B1) (E) (E) (B2) (A2) (E) (E) (A1) (B1) (E)
                 (E) (E) (E) (B2) (A1) (B2) (E) (E) (B1) (A1) (E)
                 (E) (B2) (E) (E) (A1) (A2) (A1) (B2) (E) (E) (B1)
                 (E) (E) (A1) (A1) (B2) (E) (E) (B1) (E) (E) (B2)
                 (A1) (B1) (E) (E) (A2) (B1) (B2) (E) (E) (A1)
                 (E) (E) (A1) (B2) (E) (E) (A2) (B2) (A1) (E) (E)
                 (B1) (E) (E) (A1) (B2) (A1) (A1) (E) (E) (E) (E)
                 (A2) (A1) (B2) (E) (E) (B1) (E) (E) (A1) (A1)
                 (B2) (E) (E) (E) (E) (A1) (B2) (A1)
 The electronic state is 1-A1.
 Alpha  occ. eigenvalues -- -105.33031 -26.44251 -26.36306 -26.36304 -26.36304
 Alpha  occ. eigenvalues --  -26.36304 -10.99882  -8.46505  -8.46505  -8.46014
 Alpha  occ. eigenvalues --   -1.79383  -1.66343  -1.64879  -1.64879  -1.61193
 Alpha  occ. eigenvalues --   -1.23366  -0.89996  -0.89996  -0.89234  -0.78914
 Alpha  occ. eigenvalues --   -0.78914  -0.76855  -0.69992  -0.69646  -0.69646
 Alpha  occ. eigenvalues --   -0.69151  -0.68550  -0.68550  -0.67027  -0.66411
 Alpha  occ. eigenvalues --   -0.53784
 Alpha virt. eigenvalues --    0.00651   0.06387   0.06387   0.07234   0.08661
 Alpha virt. eigenvalues --    0.10808   0.10808   0.14888   0.15549   0.18026
 Alpha virt. eigenvalues --    0.18026   0.19502   0.23316   0.23316   0.24586
 Alpha virt. eigenvalues --    0.24868   0.25171   0.25171   0.28316   0.28988
 Alpha virt. eigenvalues --    0.28988   0.30938   0.33539   0.40219   0.40219
 Alpha virt. eigenvalues --    0.42147   0.44030   0.44211   0.44211   0.48985
 Alpha virt. eigenvalues --    0.50482   0.64330   0.64330   0.73607   0.76618
 Alpha virt. eigenvalues --    0.80565   0.82177   0.82177   0.83129   0.88312
 Alpha virt. eigenvalues --    0.89915   0.90081   0.90081   0.90996   0.92874
 Alpha virt. eigenvalues --    0.96535   0.96535   0.97021   0.99108   1.04375
 Alpha virt. eigenvalues --    1.04375   1.05062   1.13531   1.13531   1.15944
 Alpha virt. eigenvalues --    1.24413   1.24942   1.24942   1.28285   1.32517
 Alpha virt. eigenvalues --    1.33208   1.33280   1.33280   1.41006   1.45274
 Alpha virt. eigenvalues --    1.49485   1.52738   1.54058   1.54058   1.57031
 Alpha virt. eigenvalues --    1.57031   1.59354   1.63153   1.63153   1.66863
 Alpha virt. eigenvalues --    1.68842   1.80604   1.86693   1.90332   1.90332
 Alpha virt. eigenvalues --    1.92792   2.01656   2.06852   2.08172   2.08172
 Alpha virt. eigenvalues --    2.09463   2.09463   2.16220   2.16621   2.22823
 Alpha virt. eigenvalues --    2.22823   2.28230   2.28791   2.40238   2.42623
 Alpha virt. eigenvalues --    2.42623   2.92629   3.06332   3.06332   3.06718
 Alpha virt. eigenvalues --    3.14262   3.14262   3.19097   3.23769   3.25802
 Alpha virt. eigenvalues --    3.25802   3.33372   3.34360   3.36233   3.36734
 Alpha virt. eigenvalues --    3.36734   3.37430   3.38579   3.39004   3.39004
 Alpha virt. eigenvalues --    3.42456   3.44805   3.46011   3.46011   3.46393
 Alpha virt. eigenvalues --    3.46817   3.46817   3.46879   3.51798   3.51798
 Alpha virt. eigenvalues --    3.55641   3.56879   3.58593   3.58593   3.60961
 Alpha virt. eigenvalues --    3.65670   3.65779   3.65779   3.66769   3.73172
 Alpha virt. eigenvalues --    3.76120   3.82735   3.93192   4.01235   4.01235
 Alpha virt. eigenvalues --    4.09155   4.09155   4.13307   4.13871   4.16415
 Alpha virt. eigenvalues --    4.16415   4.25394   4.25394   4.26493   4.38736
 Alpha virt. eigenvalues --    4.41299   4.42844   4.42844   4.46607   4.47560
 Alpha virt. eigenvalues --    4.50752   4.52732   4.54405   4.61647   4.61647
 Alpha virt. eigenvalues --    4.75764   4.78049   4.78049   4.83014   4.83014
 Alpha virt. eigenvalues --    4.83176   4.89168   4.93880   4.98052   4.98921
 Alpha virt. eigenvalues --    5.08002   5.08002   5.11147   5.15228   5.15228
 Alpha virt. eigenvalues --    5.15411   5.18508   5.19691   5.19691   5.20713
 Alpha virt. eigenvalues --    5.29696   5.29696   5.80588   5.91900   5.91900
 Alpha virt. eigenvalues --    5.95373   6.06569   6.16058   6.43284   6.93536
 Alpha virt. eigenvalues --    6.95154   6.95154  11.17278  11.17278  11.19707
 Alpha virt. eigenvalues --   11.24208  11.26880  11.26880  11.28209  11.28249
 Alpha virt. eigenvalues --   11.28574  11.29121  11.29121  11.30802  11.30937
 Alpha virt. eigenvalues --   11.30937  11.36342  11.37109  11.39104  11.39104
 Alpha virt. eigenvalues --   11.44113  11.46132  11.48116  11.48116  11.53537
 Alpha virt. eigenvalues --   11.53537  11.53698  11.56474  11.57774  11.57793
 Alpha virt. eigenvalues --   11.57793  11.59450  11.60413  11.65827  11.65827
 Alpha virt. eigenvalues --   11.69515  11.80116  11.80116  11.81543  11.81602
 Alpha virt. eigenvalues --   11.94326  12.08774  12.14359  12.14359  12.23718
 Alpha virt. eigenvalues --   12.23951  12.23951  12.57503  12.85636  12.87502
 Alpha virt. eigenvalues --   13.04929  13.04929  13.43932  13.50129  13.50129
 Alpha virt. eigenvalues --   13.51072  13.54229  13.55384  13.55956  13.55956
 Alpha virt. eigenvalues --   13.55995  13.68160  13.69773  13.70640  13.70640
 Alpha virt. eigenvalues --   13.81730  13.85622  13.85622  13.90290  13.92513
 Alpha virt. eigenvalues --   13.96396  13.96396  13.97636  13.99253  14.00836
 Alpha virt. eigenvalues --   14.03954  14.03954  21.96109  21.96939  21.96939
 Alpha virt. eigenvalues --   22.38488  22.60340  24.79413  28.47826  28.60032
 Alpha virt. eigenvalues --   28.60032  46.75149  46.75149  46.78432  46.80784
 Alpha virt. eigenvalues --   46.85478  46.91482  46.91482  46.93021  46.95278
 Alpha virt. eigenvalues --   46.95278  47.30107  47.47057  47.47174  47.64931
 Alpha virt. eigenvalues --   47.64931  54.02195  54.02195  54.11432  54.17267
 Alpha virt. eigenvalues --   54.32221
          Condensed to atoms (all electrons):
               1          2          3          4          5          6
     1  Cl  14.819180   0.222850   0.050278   0.050278   0.050278   0.050278
     2  F    0.222850   9.167510  -0.032426  -0.032426  -0.032426  -0.032426
     3  F    0.050278  -0.032426   9.330794   0.006028   0.013348   0.006028
     4  F    0.050278  -0.032426   0.006028   9.330794   0.006028   0.013348
     5  F    0.050278  -0.032426   0.013348   0.006028   9.330794   0.006028
     6  F    0.050278  -0.032426   0.006028   0.013348   0.006028   9.330794
          Atomic-Atomic Spin Densities.
               1          2          3          4          5          6
     1  Cl   0.000000   0.000000   0.000000   0.000000   0.000000   0.000000
     2  F    0.000000   0.000000  -0.000000  -0.000000  -0.000000  -0.000000
     3  F    0.000000  -0.000000   0.000000  -0.000000   0.000000  -0.000000
     4  F    0.000000  -0.000000  -0.000000   0.000000   0.000000   0.000000
     5  F    0.000000  -0.000000   0.000000   0.000000   0.000000   0.000000
     6  F    0.000000  -0.000000  -0.000000   0.000000   0.000000   0.000000
 Mulliken charges and spin densities:
               1          2
     1  Cl   1.756857   0.000000
     2  F   -0.260656   0.000000
     3  F   -0.374050   0.000000
     4  F   -0.374050   0.000000
     5  F   -0.374050   0.000000
     6  F   -0.374050  -0.000000
 Sum of Mulliken charges =  -0.00000   0.00000
 Mulliken charges and spin densities with hydrogens summed into heavy atoms:
               1          2
     1  Cl   1.756857   0.000000
     2  F   -0.260656   0.000000
     3  F   -0.374050   0.000000
     4  F   -0.374050   0.000000
     5  F   -0.374050   0.000000
     6  F   -0.374050  -0.000000
 Electronic spatial extent (au):  <R**2>=            518.6340
 Charge=             -0.0000 electrons
 Dipole moment (field-independent basis, Debye):
    X=             -0.0000    Y=             -0.0000    Z=              0.5238  Tot=              0.5238
 Quadrupole moment (field-independent basis, Debye-Ang):
   XX=            -40.6966   YY=            -40.6966   ZZ=            -34.8974
   XY=              0.0000   XZ=              0.0000   YZ=             -0.0000
 Traceless Quadrupole moment (field-independent basis, Debye-Ang):
   XX=             -1.9331   YY=             -1.9331   ZZ=              3.8661
   XY=              0.0000   XZ=              0.0000   YZ=             -0.0000
 Octapole moment (field-independent basis, Debye-Ang**2):
  XXX=             -0.0000  YYY=             -0.0000  ZZZ=             -2.8140  XYY=             -0.0000
  XXY=              0.0000  XXZ=             -1.7825  XZZ=              0.0000  YZZ=              0.0000
  YYZ=             -1.7825  XYZ=              0.0000
 Hexadecapole moment (field-independent basis, Debye-Ang**3):
 XXXX=           -203.3285 YYYY=           -203.3285 ZZZZ=            -79.5807 XXXY=              0.0000
 XXXZ=              0.0000 YYYX=              0.0000 YYYZ=             -0.0000 ZZZX=              0.0000
 ZZZY=             -0.0000 XXYY=            -64.6800 XXZZ=            -46.3177 YYZZ=            -46.3177
 XXYZ=             -0.0000 YYXZ=              0.0000 ZZXY=              0.0000
 N-N= 4.144436922285D+02 E-N=-3.108756651032D+03  KE= 9.555239842559D+02
 Symmetry A1   KE= 6.452666142280D+02
 Symmetry A2   KE= 1.268879914610D+01
 Symmetry B1   KE= 1.487842854409D+02
 Symmetry B2   KE= 1.487842854409D+02
 Symmetry A1   SP= 3.661950930695D-15
 Symmetry A2   SP= 3.654441686748D-16
 Symmetry B1   SP= 1.552430136230D-15
 Symmetry B2   SP= 1.537726147858D-15
                          Isotropic Fermi Contact Couplings
        Atom                 a.u.       MegaHertz       Gauss      10(-4) cm-1
     1  Cl(35)             0.00000       0.00000       0.00000       0.00000
     2  F(19)              0.00000       0.00000       0.00000       0.00000
     3  F(19)              0.00000       0.00000       0.00000       0.00000
     4  F(19)              0.00000       0.00000       0.00000       0.00000
     5  F(19)              0.00000       0.00000       0.00000       0.00000
     6  F(19)              0.00000       0.00000       0.00000       0.00000
 --------------------------------------------------------
       Center         ----  Spin Dipole Couplings  ----
                      3XX-RR        3YY-RR        3ZZ-RR
 --------------------------------------------------------
     1   Atom        0.000000      0.000000      0.000000
     2   Atom        0.000000      0.000000      0.000000
     3   Atom        0.000000      0.000000      0.000000
     4   Atom        0.000000      0.000000      0.000000
     5   Atom        0.000000      0.000000      0.000000
     6   Atom        0.000000      0.000000      0.000000
 --------------------------------------------------------
                        XY            XZ            YZ
 --------------------------------------------------------
     1   Atom        0.000000      0.000000      0.000000
     2   Atom        0.000000      0.000000      0.000000
     3   Atom        0.000000      0.000000      0.000000
     4   Atom        0.000000      0.000000      0.000000
     5   Atom        0.000000      0.000000      0.000000
     6   Atom        0.000000      0.000000      0.000000
 --------------------------------------------------------


 ---------------------------------------------------------------------------------
              Anisotropic Spin Dipole Couplings in Principal Axis System
 ---------------------------------------------------------------------------------

       Atom             a.u.   MegaHertz   Gauss  10(-4) cm-1        Axes

              Baa     0.0000     0.000     0.000     0.000  1.0000  0.0000  0.0000
     1 Cl(35) Bbb     0.0000     0.000     0.000     0.000 -0.0000  1.0000  0.0000
              Bcc     0.0000     0.000     0.000     0.000  0.0000  0.0000  1.0000
 
              Baa     0.0000     0.000     0.000     0.000  1.0000  0.0000  0.0000
     2 F(19)  Bbb     0.0000     0.000     0.000     0.000 -0.0000  1.0000  0.0000
              Bcc     0.0000     0.000     0.000     0.000  0.0000  0.0000  1.0000
 
              Baa     0.0000     0.000     0.000     0.000  1.0000  0.0000  0.0000
     3 F(19)  Bbb     0.0000     0.000     0.000     0.000 -0.0000  1.0000  0.0000
              Bcc     0.0000     0.000     0.000     0.000  0.0000  0.0000  1.0000
 
              Baa     0.0000     0.000     0.000     0.000  1.0000  0.0000  0.0000
     4 F(19)  Bbb     0.0000     0.000     0.000     0.000 -0.0000  1.0000  0.0000
              Bcc     0.0000     0.000     0.000     0.000  0.0000  0.0000  1.0000
 
              Baa     0.0000     0.000     0.000     0.000  1.0000  0.0000  0.0000
     5 F(19)  Bbb     0.0000     0.000     0.000     0.000 -0.0000  1.0000  0.0000
              Bcc     0.0000     0.000     0.000     0.000  0.0000  0.0000  1.0000
 
              Baa     0.0000     0.000     0.000     0.000  1.0000  0.0000  0.0000
     6 F(19)  Bbb     0.0000     0.000     0.000     0.000 -0.0000  1.0000  0.0000
              Bcc     0.0000     0.000     0.000     0.000  0.0000  0.0000  1.0000
 

 ---------------------------------------------------------------------------------

 1\1\GINC-GAMBA\SP\ROHF\Gen\Cl1F5\IRIKURA\30-Sep-2023\0\\# rohf/gen geo
 m=check guess=check\\chlorine pentafluoride, ROHF/cc-pVTZ-F12\\0,1\Cl,
 0,0.,0.,0.300998\F,0,0.,0.,-1.318017\F,0,0.,1.688052,0.187366\F,0,-1.6
 88052,0.,0.187366\F,0,0.,-1.688052,0.187366\F,0,1.688052,0.,0.187366\\
 Version=ES64L-G16RevB.01\State=1-A1\HF=-956.4538163\RMSD=5.880e-09\Dip
 ole=0.,0.,0.2060665\Quadrupole=-1.4371809,-1.4371809,2.8743619,0.,0.,0
 .\PG=C04V [C4(F1Cl1),2SGV(F2)]\\@


 KNIGHT- SIRE, I'VE JUST RETURNED FROM THE FRONT
 KING-   HOW GOES THE BATTLE                    
 KNIGHT- THE SITUATION IS QUITE FLUID           
 KING-   WHAT DOES *THAT* MEAN                  
 KNIGHT- WE'RE UP THE CREEK                     
                THE WIZARD OF ID                
 Job cpu time:       0 days  0 hours  2 minutes 16.8 seconds.
 Elapsed time:       0 days  0 hours  0 minutes 34.3 seconds.
 File lengths (MBytes):  RWF=     79 Int=      0 D2E=      0 Chk=     10 Scr=      1
 Normal termination of Gaussian 16 at Sat Sep 30 12:30:54 2023.
