 Entering Gaussian System, Link 0=g16
 AtFile(1): pcseg2.gbs
            -H     0
            S   4   1.00
                  0.754732D+02           0.427821D-02
                  0.113575D+02           0.328672D-01
                  0.260081D+01           0.159578D+00
                  0.735503D+00           0.500000D+00
            S   1   1.00
                  0.231761D+00           1.0000000
            S   1   1.00
                  0.741675D-01           1.0000000
            P   1   1.00
                  0.160000D+01           1.0000000
            P   1   1.00
                  0.450000D+00           1.0000000
            D   1   1.00
                  0.125000D+01           1.0000000
            ****
            -C     0
            S   7   1.00
                  0.731999D+04           0.695369D-03
                  0.109818D+04           0.537138D-02
                  0.250014D+03           0.274734D-01
                  0.707586D+02           0.105078D+00
                  0.228595D+02           0.291262D+00
                  0.803936D+01           0.500000D+00
                  0.289309D+01           0.362224D+00
            S   2   1.00
                  0.521640D+01          -0.957844D-01
                  0.556124D+00           0.500000D+00
            S   1   1.00
                  0.228813D+00           1.0000000
            S   1   1.00
                  0.936338D-01           1.0000000
            P   4   1.00
                  0.339855D+02           0.818395D-02
                  0.772957D+01           0.586921D-01
                  0.224954D+01           0.222514D+00
                  0.767681D+00           0.500000D+00
            P   1   1.00
                  0.263283D+00           1.0000000
            P   1   1.00
                  0.848744D-01           1.0000000
            D   1   1.00
                  0.140000D+01           1.0000000
            D   1   1.00
                  0.450000D+00           1.0000000
            F   1   1.00
                  0.950000D+00           1.0000000
            ****
            -O     0
            S   7   1.00
                  0.135887D+05           0.665492D-03
                  0.203847D+04           0.514222D-02
                  0.464041D+03           0.263472D-01
                  0.131339D+03           0.101500D+00
                  0.425340D+02           0.285877D+00
                  0.150429D+02           0.500000D+00
                  0.546616D+01           0.368211D+00
            S   2   1.00
                  0.100915D+02          -0.100084D+00
                  0.110429D+01           0.500000D+00
            S   1   1.00
                  0.448082D+00           1.0000000
            S   1   1.00
                  0.175325D+00           1.0000000
            P   4   1.00
                  0.608220D+02           0.908253D-02
                  0.140332D+02           0.645878D-01
                  0.418244D+01           0.241502D+00
                  0.142490D+01           0.500000D+00
            P   1   1.00
                  0.478741D+00           1.0000000
            P   1   1.00
                  0.146257D+00           1.0000000
            D   1   1.00
                  0.220000D+01           1.0000000
            D   1   1.00
                  0.650000D+00           1.0000000
            F   1   1.00
                  0.110000D+01           1.0000000
            ****
            -N     0
            S   7   1.00
                  0.101643D+05           0.682757D-03
                  0.152481D+04           0.527488D-02
                  0.347119D+03           0.270037D-01
                  0.982389D+02           0.103673D+00
                  0.317799D+02           0.289575D+00
                  0.112240D+02           0.500000D+00
                  0.406611D+01           0.364621D+00
            S   2   1.00
                  0.747898D+01          -0.975681D-01
                  0.805040D+00           0.500000D+00
            S   1   1.00
                  0.324626D+00           1.0000000
            S   1   1.00
                  0.128132D+00           1.0000000
            P   4   1.00
                  0.482704D+02           0.829547D-02
                  0.110815D+02           0.596223D-01
                  0.326643D+01           0.227889D+00
                  0.111680D+01           0.500000D+00
            P   1   1.00
                  0.382049D+00           1.0000000
            P   1   1.00
                  0.121222D+00           1.0000000
            D   1   1.00
                  0.180000D+01           1.0000000
            D   1   1.00
                  0.550000D+00           1.0000000
            F   1   1.00
                  0.102000D+01           1.0000000
            ****
            -F     0
            S   7   1.00
                  0.174507D+05           0.655972D-03
                  0.261768D+04           0.506944D-02
                  0.595857D+03           0.259899D-01
                  0.168651D+03           0.100353D+00
                  0.546654D+02           0.284095D+00
                  0.193717D+02           0.500000D+00
                  0.706202D+01           0.370721D+00
            S   2   1.00
                  0.131197D+02          -0.101997D+00
                  0.145046D+01           0.500000D+00
            S   1   1.00
                  0.588255D+00           1.0000000
            S   1   1.00
                  0.227960D+00           1.0000000
            P   4   1.00
                  0.779407D+02           0.931135D-02
                  0.180425D+02           0.663964D-01
                  0.542342D+01           0.246386D+00
                  0.184876D+01           0.500000D+00
            P   1   1.00
                  0.617455D+00           1.0000000
            P   1   1.00
                  0.185496D+00           1.0000000
            D   1   1.00
                  0.280000D+01           1.0000000
            D   1   1.00
                  0.800000D+00           1.0000000
            F   1   1.00
                  0.120000D+01           1.0000000
            ****
            -Cl     0
            S   8   1.00
                  0.154272D+06           0.222473D-03
                  0.231232D+05           0.172590D-02
                  0.526257D+04           0.899286D-02
                  0.148995D+04           0.367724D-01
                  0.485417D+03           0.121446D+00
                  0.174634D+03           0.304148D+00
                  0.672393D+02           0.500000D+00
                  0.265780D+02           0.360252D+00
            S   3   1.00
                  0.131826D+03          -0.531330D-01
                  0.400703D+02          -0.233346D+00
                  0.789448D+01           0.500000D+00
            S   2   1.00
                  0.427711D+01           0.500000D+00
                  0.196233D+01           0.370517D+00
            S   1   1.00
                  0.520793D+00           1.0000000
            S   1   1.00
                  0.181633D+00           1.0000000
            P   7   1.00
                  0.124440D+04           0.988206D-03
                  0.295109D+03           0.829674D-02
                  0.947224D+02           0.430906D-01
                  0.352588D+02           0.148443D+00
                  0.144211D+02           0.344744D+00
                  0.610371D+01           0.500000D+00
                  0.258886D+01           0.348278D+00
            P   2   1.00
                  0.109447D+02          -0.196768D-01
                  0.104413D+01           0.500000D+00
            P   1   1.00
                  0.376184D+00           1.0000000
            P   1   1.00
                  0.120613D+00           1.0000000
            D   1   1.00
                  0.231000D+01           1.0000000
            D   1   1.00
                  0.520000D+00           1.0000000
            F   1   1.00
                  0.720000D+00           1.0000000
            ****
            -S     0
            S   8   1.00
                  0.134700D+06           0.226231D-03
                  0.201904D+05           0.175488D-02
                  0.459528D+04           0.914190D-02
                  0.130109D+04           0.373551D-01
                  0.423902D+03           0.123121D+00
                  0.152485D+03           0.306801D+00
                  0.586925D+02           0.500000D+00
                  0.231461D+02           0.354358D+00
            S   3   1.00
                  0.116327D+03          -0.491772D-01
                  0.352841D+02          -0.215962D+00
                  0.677831D+01           0.500000D+00
            S   2   1.00
                  0.360404D+01           0.500000D+00
                  0.164871D+01           0.366278D+00
            S   1   1.00
                  0.421821D+00           1.0000000
            S   1   1.00
                  0.147554D+00           1.0000000
            P   7   1.00
                  0.104863D+04           0.105273D-02
                  0.248717D+03           0.879338D-02
                  0.797887D+02           0.453358D-01
                  0.296023D+02           0.154476D+00
                  0.120627D+02           0.352366D+00
                  0.507628D+01           0.500000D+00
                  0.213375D+01           0.346429D+00
            P   2   1.00
                  0.928958D+01          -0.185932D-01
                  0.837819D+00           0.500000D+00
            P   1   1.00
                  0.301495D+00           1.0000000
            P   1   1.00
                  0.974740D-01           1.0000000
            D   1   1.00
                  0.210000D+01           1.0000000
            D   1   1.00
                  0.480000D+00           1.0000000
            F   1   1.00
                  0.660000D+00           1.0000000
            ****
            -Br     0
            S    10   1.00
                  0.233625D+07           0.532336D-04
                  0.349961D+06           0.413715D-03
                  0.796444D+05           0.217123D-02
                  0.225555D+05           0.910109D-02
                  0.735546D+04           0.323789D-01
                  0.265352D+04           0.988755D-01
                  0.103517D+04           0.248138D+00
                  0.422205D+03           0.474328D+00
                  0.180035D+03           0.500000D+00
                  0.793308D+02           0.187769D+00
            S    4   1.00
                  0.620834D+03          -0.226511D-01
                  0.190829D+03          -0.109497D+00
                  0.312505D+02           0.500000D+00
                  0.135270D+02           0.492812D+00
            S    2   1.00
                  0.216097D+02          -0.165418D+00
                  0.372566D+01           0.500000D+00
            S    1   1.00
                  0.169770D+01           1.0000000
            S    1   1.00
                  0.489332D+00           1.0000000
            S    1   1.00
                  0.175712D+00           1.0000000
            P    8   1.00
                  0.960829D+04           0.478974D-03
                  0.227618D+04           0.417853D-02
                  0.736723D+03           0.229315D-01
                  0.281579D+03           0.892653D-01
                  0.118395D+03           0.255288D+00
                  0.527481D+02           0.479074D+00
                  0.245098D+02           0.500000D+00
                  0.112009D+02           0.200944D+00
            P    4   1.00
                  0.587849D+02          -0.189674D-01
                  0.918962D+01           0.264104D+00
                  0.413895D+01           0.500000D+00
                  0.184225D+01           0.319316D+00
            P    1   1.00
                  0.713862D+00           1.0000000
            P    1   1.00
                  0.274232D+00           1.0000000
            P    1   1.00
                  0.944411D-01           1.0000000
            D    7   1.00
                  0.398470D+03           0.204066D-02
                  0.118967D+03           0.175171D-01
                  0.450197D+02           0.829708D-01
                  0.190320D+02           0.236284D+00
                  0.855686D+01           0.428468D+00
                  0.382950D+01           0.500000D+00
                  0.166291D+01           0.349360D+00
            D    1   1.00
                  0.672953D+00           1.0000000
            D    1   1.00
                  0.252000D+00           1.0000000
            F    1   1.00
                  0.530000D+00           1.0000000
            ****
            -Si     0
            S    8   1.00
                  0.996133D+05           0.235546D-03
                  0.149311D+05           0.182707D-02
                  0.339820D+04           0.951425D-02
                  0.962140D+03           0.388172D-01
                  0.313430D+03           0.127328D+00
                  0.112683D+03           0.313522D+00
                  0.433372D+02           0.500000D+00
                  0.170029D+02           0.340347D+00
            S    3   1.00
                  0.884208D+02          -0.404451D-01
                  0.266756D+02          -0.178059D+00
                  0.479640D+01           0.500000D+00
            S    2   1.00
                  0.239385D+01           0.500000D+00
                  0.108333D+01           0.338016D+00
            S    1   1.00
                  0.252420D+00           1.0000000
            S    1   1.00
                  0.891210D-01           1.0000000
            P    7   1.00
                  0.709901D+03           0.123028D-02
                  0.168426D+03           0.101366D-01
                  0.539946D+02           0.511840D-01
                  0.198646D+02           0.169967D+00
                  0.801369D+01           0.370717D+00
                  0.331870D+01           0.500000D+00
                  0.136112D+01           0.344128D+00
            P    2   1.00
                  0.622158D+01          -0.166609D-01
                  0.503049D+00           0.500000D+00
            P    1   1.00
                  0.179848D+00           1.0000000
            P    1   1.00
                  0.591912D-01           1.0000000
            D    1   1.00
                  0.168000D+01           1.0000000
            D    1   1.00
                  0.380000D+00           1.0000000
            F    1   1.00
                  0.540000D+00           1.0000000
            ****
            -P     0
            S    8   1.00
                  0.116416D+06           0.230715D-03
                  0.174500D+05           0.178960D-02
                  0.397149D+04           0.932116D-02
                  0.112447D+04           0.380591D-01
                  0.366347D+03           0.125148D+00
                  0.131757D+03           0.310022D+00
                  0.506988D+02           0.500000D+00
                  0.199436D+02           0.347528D+00
            S    3   1.00
                  0.101878D+03          -0.446755D-01
                  0.308249D+02          -0.196376D+00
                  0.573688D+01           0.500000D+00
            S    2   1.00
                  0.296868D+01           0.500000D+00
                  0.135315D+01           0.355098D+00
            S    1   1.00
                  0.332196D+00           1.0000000
            S    1   1.00
                  0.116229D+00           1.0000000
            P    7   1.00
                  0.873928D+03           0.112375D-02
                  0.207298D+03           0.933330D-02
                  0.664628D+02           0.477213D-01
                  0.245665D+02           0.160733D+00
                  0.996820D+01           0.359760D+00
                  0.416536D+01           0.500000D+00
                  0.173022D+01           0.346593D+00
            P    2   1.00
                  0.772530D+01          -0.175718D-01
                  0.657252D+00           0.500000D+00
            P    1   1.00
                  0.239903D+00           1.0000000
            P    1   1.00
                  0.800988D-01           1.0000000
            D    1   1.00
                  0.189000D+01           1.0000000
            D    1   1.00
                  0.430000D+00           1.0000000
            F    1   1.00
                  0.600000D+00           1.0000000
            ****
            
 Initial command:
 /usr/local/apps/g16_b01_avx/g16/l1.exe "/wrk/irikura/Gau-20181.inp" -scrdir="/wrk/irikura/"
 Entering Link 1 = /usr/local/apps/g16_b01_avx/g16/l1.exe PID=     20183.
  
 Copyright (c) 1988-2017, Gaussian, Inc.  All Rights Reserved.
  
 This is part of the Gaussian(R) 16 program.  It is based on
 the Gaussian(R) 09 system (copyright 2009, Gaussian, Inc.),
 the Gaussian(R) 03 system (copyright 2003, Gaussian, Inc.),
 the Gaussian(R) 98 system (copyright 1998, Gaussian, Inc.),
 the Gaussian(R) 94 system (copyright 1995, Gaussian, Inc.),
 the Gaussian 92(TM) system (copyright 1992, Gaussian, Inc.),
 the Gaussian 90(TM) system (copyright 1990, Gaussian, Inc.),
 the Gaussian 88(TM) system (copyright 1988, Gaussian, Inc.),
 the Gaussian 86(TM) system (copyright 1986, Carnegie Mellon
 University), and the Gaussian 82(TM) system (copyright 1983,
 Carnegie Mellon University). Gaussian is a federally registered
 trademark of Gaussian, Inc.
  
 This software contains proprietary and confidential information,
 including trade secrets, belonging to Gaussian, Inc.
  
 This software is provided under written license and may be
 used, copied, transmitted, or stored only in accord with that
 written license.
  
 The following legend is applicable only to US Government
 contracts under FAR:
  
                    RESTRICTED RIGHTS LEGEND
  
 Use, reproduction and disclosure by the US Government is
 subject to restrictions as set forth in subparagraphs (a)
 and (c) of the Commercial Computer Software - Restricted
 Rights clause in FAR 52.227-19.
  
 Gaussian, Inc.
 340 Quinnipiac St., Bldg. 40, Wallingford CT 06492
  
  
 ---------------------------------------------------------------
 Warning -- This program may not be used in any manner that
 competes with the business of Gaussian, Inc. or will provide
 assistance to any competitor of Gaussian, Inc.  The licensee
 of this program is prohibited from giving any competitor of
 Gaussian, Inc. access to this program.  By using this program,
 the user acknowledges that Gaussian, Inc. is engaged in the
 business of creating and licensing software in the field of
 computational chemistry and represents and warrants to the
 licensee that it is not a competitor of Gaussian, Inc. and that
 it will not use this program in any manner prohibited above.
 ---------------------------------------------------------------
  

 Cite this work as:
 Gaussian 16, Revision B.01,
 M. J. Frisch, G. W. Trucks, H. B. Schlegel, G. E. Scuseria, 
 M. A. Robb, J. R. Cheeseman, G. Scalmani, V. Barone, 
 G. A. Petersson, H. Nakatsuji, X. Li, M. Caricato, A. V. Marenich, 
 J. Bloino, B. G. Janesko, R. Gomperts, B. Mennucci, H. P. Hratchian, 
 J. V. Ortiz, A. F. Izmaylov, J. L. Sonnenberg, D. Williams-Young, 
 F. Ding, F. Lipparini, F. Egidi, J. Goings, B. Peng, A. Petrone, 
 T. Henderson, D. Ranasinghe, V. G. Zakrzewski, J. Gao, N. Rega, 
 G. Zheng, W. Liang, M. Hada, M. Ehara, K. Toyota, R. Fukuda, 
 J. Hasegawa, M. Ishida, T. Nakajima, Y. Honda, O. Kitao, H. Nakai, 
 T. Vreven, K. Throssell, J. A. Montgomery, Jr., J. E. Peralta, 
 F. Ogliaro, M. J. Bearpark, J. J. Heyd, E. N. Brothers, K. N. Kudin, 
 V. N. Staroverov, T. A. Keith, R. Kobayashi, J. Normand, 
 K. Raghavachari, A. P. Rendell, J. C. Burant, S. S. Iyengar, 
 J. Tomasi, M. Cossi, J. M. Millam, M. Klene, C. Adamo, R. Cammi, 
 J. W. Ochterski, R. L. Martin, K. Morokuma, O. Farkas, 
 J. B. Foresman, and D. J. Fox, Gaussian, Inc., Wallingford CT, 2016.
 
 ******************************************
 Gaussian 16:  ES64L-G16RevB.01 20-Dec-2017
                16-Jun-2022 
 ******************************************
 %mem=1000mw
 %nprocs=12
 Will use up to   12 processors via shared memory.
 --------------------
 # b3lyp/gen opt freq
 --------------------
 1/18=20,19=15,26=3,38=1/1,3;
 2/9=110,12=2,17=6,18=5,40=1/2;
 3/5=7,11=2,25=1,30=1,71=1,74=-5/1,2,3;
 4//1;
 5/5=2,38=5/2;
 6/7=2,8=2,9=2,10=2,28=1/1;
 7//1,2,3,16;
 1/18=20,19=15,26=3/3(2);
 2/9=110/2;
 99//99;
 2/9=110/2;
 3/5=7,6=1,11=2,25=1,30=1,71=1,74=-5,82=7/1,2,3;
 4/5=5,16=3,69=1/1;
 5/5=2,38=5/2;
 7//1,2,3,16;
 1/18=20,19=15,26=3/3(-5);
 2/9=110/2;
 6/7=2,8=2,9=2,10=2,19=2,28=1/1;
 99/9=1/99;
 --------------------------------
 chlorine trioxide, B3LYP/pcseg-2
 --------------------------------
 Symbolic Z-matrix:
 Charge =  0 Multiplicity = 2
 Cl                    0.        0.        0.21247 
 O                     0.        1.42806  -0.1505 
 O                     1.23673  -0.71403  -0.1505 
 O                    -1.23673  -0.71403  -0.1505 
 

 GradGradGradGradGradGradGradGradGradGradGradGradGradGradGradGradGradGrad
 Berny optimization.
 Initialization pass.
                           ----------------------------
                           !    Initial Parameters    !
                           ! (Angstroms and Degrees)  !
 --------------------------                            --------------------------
 ! Name  Definition              Value          Derivative Info.                !
 --------------------------------------------------------------------------------
 ! R1    R(1,2)                  1.4735         estimate D2E/DX2                !
 ! R2    R(1,3)                  1.4735         estimate D2E/DX2                !
 ! R3    R(1,4)                  1.4735         estimate D2E/DX2                !
 ! A1    A(2,1,3)              114.1405         estimate D2E/DX2                !
 ! A2    A(2,1,4)              114.1405         estimate D2E/DX2                !
 ! A3    A(3,1,4)              114.1405         estimate D2E/DX2                !
 ! D1    D(2,1,4,3)            133.7869         estimate D2E/DX2                !
 --------------------------------------------------------------------------------
 Trust Radius=3.00D-01 FncErr=1.00D-07 GrdErr=1.00D-06 EigMax=2.50D+02 EigMin=1.00D-04
 Number of steps in this run=     20 maximum allowed number of steps=    100.
 GradGradGradGradGradGradGradGradGradGradGradGradGradGradGradGradGradGrad

                          Input orientation:                          
 ---------------------------------------------------------------------
 Center     Atomic      Atomic             Coordinates (Angstroms)
 Number     Number       Type             X           Y           Z
 ---------------------------------------------------------------------
      1         17           0        0.000000    0.000000    0.212471
      2          8           0        0.000000    1.428057   -0.150500
      3          8           0        1.236734   -0.714029   -0.150500
      4          8           0       -1.236734   -0.714029   -0.150500
 ---------------------------------------------------------------------
                    Distance matrix (angstroms):
                    1          2          3          4
     1  Cl   0.000000
     2  O    1.473464   0.000000
     3  O    1.473464   2.473468   0.000000
     4  O    1.473464   2.473468   2.473468   0.000000
 Stoichiometry    ClO3(2)
 Framework group  C3V[C3(Cl),3SGV(O)]
 Deg. of freedom     2
 Full point group                 C3V     NOp   6
 Largest Abelian subgroup         CS      NOp   2
 Largest concise Abelian subgroup CS      NOp   2
                         Standard orientation:                         
 ---------------------------------------------------------------------
 Center     Atomic      Atomic             Coordinates (Angstroms)
 Number     Number       Type             X           Y           Z
 ---------------------------------------------------------------------
      1         17           0       -0.000000    0.000000    0.212471
      2          8           0        0.000000    1.428057   -0.150500
      3          8           0        1.236734   -0.714029   -0.150500
      4          8           0       -1.236734   -0.714029   -0.150500
 ---------------------------------------------------------------------
 Rotational constants (GHZ):           9.7953522           9.7953522           5.1644350
 General basis read from cards:  (5D, 7F)
 There are    86 symmetry adapted cartesian basis functions of A'  symmetry.
 There are    58 symmetry adapted cartesian basis functions of A"  symmetry.
 There are    73 symmetry adapted basis functions of A'  symmetry.
 There are    51 symmetry adapted basis functions of A"  symmetry.
   124 basis functions,   223 primitive gaussians,   144 cartesian basis functions
    21 alpha electrons       20 beta electrons
       nuclear repulsion energy       187.6051706904 Hartrees.
 NAtoms=    4 NActive=    4 NUniq=    2 SFac= 4.00D+00 NAtFMM=   60 NAOKFM=F Big=F
 Integral buffers will be    131072 words long.
 Raffenetti 2 integral format.
 Two-electron integral symmetry is turned on.
 One-electron integrals computed using PRISM.
 NBasis=   124 RedAO= T EigKep=  3.50D-03  NBF=    73    51
 NBsUse=   124 1.00D-06 EigRej= -1.00D+00 NBFU=    73    51
 ExpMin= 1.21D-01 ExpMax= 1.54D+05 ExpMxC= 1.49D+03 IAcc=3 IRadAn=         5 AccDes= 0.00D+00
 Harris functional with IExCor=  402 and IRadAn=       5 diagonalized for initial guess.
 HarFok:  IExCor=  402 AccDes= 0.00D+00 IRadAn=         5 IDoV= 1 UseB2=F ITyADJ=14
 ICtDFT=  3500011 ScaDFX=  1.000000  1.000000  1.000000  1.000000
 FoFCou: FMM=F IPFlag=           0 FMFlag=      100000 FMFlg1=           0
         NFxFlg=           0 DoJE=T BraDBF=F KetDBF=T FulRan=T
         wScrn=  0.000000 ICntrl=       500 IOpCl=  0 I1Cent=   200000004 NGrid=           0
         NMat0=    1 NMatS0=      1 NMatT0=    0 NMatD0=    1 NMtDS0=    0 NMtDT0=    0
 Petite list used in FoFCou.
 Initial guess orbital symmetries:
 Alpha Orbitals:
       Occupied  (A1) (E) (E) (A1) (A1) (E) (E) (A1) (A1) (E) (E)
                 (A1) (E) (E) (A1) (E) (E) (E) (E) (A2) (A1)
       Virtual   (A1) (E) (E) (A1) (E) (E) (A1) (A1) (E) (E) (E)
                 (E) (A1) (A2) (E) (E) (E) (E) (A1) (E) (E) (E)
                 (E) (A1) (A1) (A2) (E) (E) (E) (E) (A2) (E) (E)
                 (A1) (E) (E) (A1) (E) (E) (A1) (E) (E) (E) (E)
                 (A2) (A1) (E) (E) (E) (E) (A1) (A1) (E) (E) (A1)
                 (E) (E) (A2) (A1) (E) (E) (E) (E) (A2) (E) (E)
                 (E) (E) (A2) (A1) (E) (E) (A1) (E) (E) (A1) (A1)
                 (E) (E) (E) (E) (E) (E) (A1) (A2) (E) (E) (A2)
                 (E) (E) (A1) (A2) (E) (E) (E) (E) (A1) (E) (E)
                 (A1) (E) (E) (A1)
 Beta  Orbitals:
       Occupied  (A1) (E) (E) (A1) (A1) (E) (E) (A1) (A1) (E) (E)
                 (A1) (E) (E) (A1) (E) (E) (E) (E) (A2)
       Virtual   (A1) (A1) (E) (E) (A1) (E) (E) (A1) (A1) (E) (E)
                 (E) (E) (A1) (A2) (E) (E) (E) (E) (A1) (E) (E)
                 (E) (E) (A1) (A1) (A2) (E) (E) (E) (E) (A2) (E)
                 (E) (A1) (E) (E) (A1) (E) (E) (A1) (E) (E) (E)
                 (E) (A2) (A1) (E) (E) (E) (E) (A1) (A1) (E) (E)
                 (A1) (E) (E) (A2) (A1) (E) (E) (E) (E) (A2) (E)
                 (E) (E) (E) (A2) (A1) (E) (E) (A1) (E) (E) (A1)
                 (A1) (E) (E) (E) (E) (E) (E) (A1) (A2) (E) (E)
                 (A2) (E) (E) (A1) (A2) (E) (E) (E) (E) (A1) (E)
                 (E) (A1) (E) (E) (A1)
 The electronic state of the initial guess is 2-A1.
 Initial guess <Sx>= 0.0000 <Sy>= 0.0000 <Sz>= 0.5000 <S**2>= 0.7500 S= 0.5000
 Keep R1 and R2 ints in memory in symmetry-blocked form, NReq=45145827.
 Requested convergence on RMS density matrix=1.00D-08 within 128 cycles.
 Requested convergence on MAX density matrix=1.00D-06.
 Requested convergence on             energy=1.00D-06.
 No special actions if energy rises.
 Integral accuracy reduced to 1.0D-05 until final iterations.
 Initial convergence to 1.0D-05 achieved.  Increase integral accuracy.
 SCF Done:  E(UB3LYP) =  -685.705502386     A.U. after   13 cycles
            NFock= 13  Conv=0.37D-08     -V/T= 2.0017
 <Sx>= 0.0000 <Sy>= 0.0000 <Sz>= 0.5000 <S**2>= 0.7578 S= 0.5039
 <L.S>=  0.00000000000    
 Annihilation of the first spin contaminant:
 S**2 before annihilation     0.7578,   after     0.7500

 **********************************************************************

            Population analysis using the SCF Density.

 **********************************************************************

 Orbital symmetries:
 Alpha Orbitals:
       Occupied  (A1) (E) (E) (A1) (A1) (E) (E) (A1) (A1) (E) (E)
                 (A1) (A1) (E) (E) (E) (E) (E) (E) (A2) (A1)
       Virtual   (A1) (E) (E) (A1) (E) (E) (A1) (E) (E) (A1) (E)
                 (E) (A1) (E) (E) (A2) (E) (E) (A1) (E) (E) (E)
                 (E) (A1) (A1) (A2) (E) (E) (E) (E) (A2) (E) (E)
                 (A1) (E) (E) (A1) (E) (E) (A1) (E) (E) (A1) (E)
                 (E) (A2) (E) (E) (E) (E) (A1) (A1) (E) (E) (A1)
                 (A2) (E) (E) (A1) (E) (E) (E) (E) (A2) (A1) (E)
                 (E) (E) (E) (A2) (A1) (E) (E) (E) (E) (A1) (A1)
                 (E) (E) (E) (E) (E) (E) (A1) (A2) (E) (E) (A2)
                 (E) (E) (A1) (E) (E) (A2) (E) (E) (A1) (E) (E)
                 (A1) (E) (E) (A1)
 Beta  Orbitals:
       Occupied  (A1) (E) (E) (A1) (A1) (E) (E) (A1) (A1) (E) (E)
                 (A1) (A1) (E) (E) (E) (E) (E) (E) (A2)
       Virtual   (A1) (A1) (E) (E) (A1) (E) (E) (A1) (E) (E) (A1)
                 (E) (E) (A1) (E) (E) (A2) (E) (E) (A1) (E) (E)
                 (E) (E) (A1) (A1) (A2) (E) (E) (E) (E) (A2) (E)
                 (E) (A1) (E) (E) (A1) (E) (E) (A1) (E) (E) (A1)
                 (E) (E) (A2) (E) (E) (E) (E) (A1) (A1) (E) (E)
                 (A1) (A2) (E) (E) (A1) (E) (E) (E) (E) (A2) (A1)
                 (E) (E) (E) (E) (A2) (A1) (E) (E) (E) (E) (A1)
                 (A1) (E) (E) (E) (E) (E) (E) (A1) (A2) (E) (E)
                 (A2) (E) (E) (A1) (E) (E) (A2) (E) (E) (A1) (E)
                 (E) (A1) (E) (E) (A1)
 The electronic state is 2-A1.
 Alpha  occ. eigenvalues -- -101.85600 -19.22898 -19.22898 -19.22897  -9.75986
 Alpha  occ. eigenvalues --   -7.52009  -7.52009  -7.51859  -1.29984  -1.11360
 Alpha  occ. eigenvalues --   -1.11360  -0.75417  -0.62253  -0.59319  -0.59319
 Alpha  occ. eigenvalues --   -0.44941  -0.44941  -0.41450  -0.41450  -0.36524
 Alpha  occ. eigenvalues --   -0.34308
 Alpha virt. eigenvalues --   -0.04139   0.00680   0.00680   0.19196   0.24188
 Alpha virt. eigenvalues --    0.24188   0.25285   0.30735   0.30735   0.30983
 Alpha virt. eigenvalues --    0.32134   0.32134   0.39373   0.41215   0.41215
 Alpha virt. eigenvalues --    0.43415   0.46398   0.46398   0.50961   0.66519
 Alpha virt. eigenvalues --    0.66519   0.80261   0.80261   1.01162   1.31952
 Alpha virt. eigenvalues --    1.35497   1.36785   1.36785   1.40993   1.40993
 Alpha virt. eigenvalues --    1.49463   1.55650   1.55650   1.63178   1.75612
 Alpha virt. eigenvalues --    1.75612   1.81764   1.85726   1.85726   2.00206
 Alpha virt. eigenvalues --    2.05459   2.05459   2.11890   2.14126   2.14126
 Alpha virt. eigenvalues --    2.18335   2.30360   2.30360   2.38337   2.38337
 Alpha virt. eigenvalues --    2.49516   2.58337   2.60441   2.60441   2.67079
 Alpha virt. eigenvalues --    2.77141   2.82252   2.82252   3.39713   3.49717
 Alpha virt. eigenvalues --    3.49717   3.59866   3.59866   3.86367   3.90392
 Alpha virt. eigenvalues --    3.90705   3.90705   3.91109   3.91109   3.91275
 Alpha virt. eigenvalues --    3.92399   3.93256   3.93256   4.12015   4.12015
 Alpha virt. eigenvalues --    4.33010   4.44423   4.47453   4.47453   4.58457
 Alpha virt. eigenvalues --    4.58457   4.71625   4.71625   4.72488   4.97030
 Alpha virt. eigenvalues --    5.93885   5.93885   5.95212   5.95690   5.95690
 Alpha virt. eigenvalues --    5.96959   6.21660   6.21660   6.22834   6.29298
 Alpha virt. eigenvalues --    6.29298   6.30933   6.43906   6.43906   6.50173
 Alpha virt. eigenvalues --    7.72060   7.72060  38.52161
  Beta  occ. eigenvalues -- -101.85401 -19.22120 -19.22120 -19.22118  -9.75762
  Beta  occ. eigenvalues --   -7.51925  -7.51925  -7.51219  -1.28823  -1.09661
  Beta  occ. eigenvalues --   -1.09661  -0.72494  -0.60114  -0.57873  -0.57873
  Beta  occ. eigenvalues --   -0.43198  -0.43198  -0.38978  -0.38978  -0.35804
  Beta virt. eigenvalues --   -0.22739  -0.03599   0.02367   0.02367   0.19597
  Beta virt. eigenvalues --    0.24395   0.24395   0.26105   0.31219   0.31219
  Beta virt. eigenvalues --    0.31486   0.32618   0.32618   0.40372   0.41726
  Beta virt. eigenvalues --    0.41726   0.43548   0.47203   0.47203   0.52990
  Beta virt. eigenvalues --    0.66991   0.66991   0.80620   0.80620   1.02512
  Beta virt. eigenvalues --    1.33465   1.36410   1.37419   1.37419   1.41927
  Beta virt. eigenvalues --    1.41927   1.49705   1.57521   1.57521   1.63705
  Beta virt. eigenvalues --    1.76272   1.76272   1.83035   1.86851   1.86851
  Beta virt. eigenvalues --    2.02125   2.06066   2.06066   2.14091   2.16092
  Beta virt. eigenvalues --    2.16092   2.18819   2.31063   2.31063   2.39323
  Beta virt. eigenvalues --    2.39323   2.49922   2.59837   2.61099   2.61099
  Beta virt. eigenvalues --    2.68573   2.77204   2.83410   2.83410   3.40586
  Beta virt. eigenvalues --    3.50660   3.50660   3.60240   3.60240   3.87058
  Beta virt. eigenvalues --    3.91217   3.91646   3.91646   3.92142   3.92142
  Beta virt. eigenvalues --    3.92300   3.93855   3.94383   3.94383   4.13200
  Beta virt. eigenvalues --    4.13200   4.33871   4.46179   4.48152   4.48152
  Beta virt. eigenvalues --    4.59240   4.59240   4.73024   4.73024   4.73786
  Beta virt. eigenvalues --    4.97894   5.95454   5.95454   5.96977   5.97775
  Beta virt. eigenvalues --    5.97775   5.98928   6.23347   6.23347   6.23905
  Beta virt. eigenvalues --    6.31727   6.31727   6.33693   6.44982   6.44982
  Beta virt. eigenvalues --    6.51592   7.73249   7.73249  38.52536
          Condensed to atoms (all electrons):
               1          2          3          4
     1  Cl  15.264086   0.263073   0.263073   0.263073
     2  O    0.263073   8.185190  -0.066349  -0.066349
     3  O    0.263073  -0.066349   8.185190  -0.066349
     4  O    0.263073  -0.066349  -0.066349   8.185190
          Atomic-Atomic Spin Densities.
               1          2          3          4
     1  Cl   0.419087  -0.073257  -0.073257  -0.073257
     2  O   -0.073257   0.315774   0.012189   0.012189
     3  O   -0.073257   0.012189   0.315774   0.012189
     4  O   -0.073257   0.012189   0.012189   0.315774
 Mulliken charges and spin densities:
               1          2
     1  Cl   0.946696   0.199317
     2  O   -0.315565   0.266894
     3  O   -0.315565   0.266894
     4  O   -0.315565   0.266894
 Sum of Mulliken charges =  -0.00000   1.00000
 Mulliken charges and spin densities with hydrogens summed into heavy atoms:
               1          2
     1  Cl   0.946696   0.199317
     2  O   -0.315565   0.266894
     3  O   -0.315565   0.266894
     4  O   -0.315565   0.266894
 Electronic spatial extent (au):  <R**2>=            245.4132
 Charge=             -0.0000 electrons
 Dipole moment (field-independent basis, Debye):
    X=             -0.0000    Y=              0.0000    Z=              1.0423  Tot=              1.0423
 Quadrupole moment (field-independent basis, Debye-Ang):
   XX=            -31.2166   YY=            -31.2166   ZZ=            -26.2690
   XY=              0.0000   XZ=             -0.0000   YZ=              0.0000
 Traceless Quadrupole moment (field-independent basis, Debye-Ang):
   XX=             -1.6492   YY=             -1.6492   ZZ=              3.2984
   XY=              0.0000   XZ=             -0.0000   YZ=              0.0000
 Octapole moment (field-independent basis, Debye-Ang**2):
  XXX=              0.0000  YYY=             -2.2540  ZZZ=              0.6137  XYY=              0.0000
  XXY=              2.2540  XXZ=              0.3901  XZZ=              0.0000  YZZ=              0.0000
  YYZ=              0.3901  XYZ=             -0.0000
 Hexadecapole moment (field-independent basis, Debye-Ang**3):
 XXXX=           -129.7414 YYYY=           -129.7414 ZZZZ=            -27.4139 XXXY=              0.0000
 XXXZ=             -0.0000 YYYX=              0.0000 YYYZ=             -0.4825 ZZZX=             -0.0000
 ZZZY=             -0.0000 XXYY=            -43.2471 XXZZ=            -25.5818 YYZZ=            -25.5818
 XXYZ=              0.4825 YYXZ=             -0.0000 ZZXY=              0.0000
 N-N= 1.876051706904D+02 E-N=-1.999889270330D+03  KE= 6.845478702718D+02
 Symmetry A'   KE= 5.584829700442D+02
 Symmetry A"   KE= 1.260649002277D+02
 Symmetry A'   SP= 1.000000000000D+00
 Symmetry A"   SP=-1.717526504862D-14
                          Isotropic Fermi Contact Couplings
        Atom                 a.u.       MegaHertz       Gauss      10(-4) cm-1
     1  Cl(35)             0.66066     289.67649     103.36377      96.62568
     2  O(17)              0.05649     -34.24479     -12.21939     -11.42283
     3  O(17)              0.05649     -34.24479     -12.21939     -11.42283
     4  O(17)              0.05649     -34.24479     -12.21939     -11.42283
 --------------------------------------------------------
       Center         ----  Spin Dipole Couplings  ----
                      3XX-RR        3YY-RR        3ZZ-RR
 --------------------------------------------------------
     1   Atom       -0.873720     -0.873720      1.747439
     2   Atom       -0.639426     -0.422430      1.061856
     3   Atom       -0.476679     -0.585177      1.061856
     4   Atom       -0.476679     -0.585177      1.061856
 --------------------------------------------------------
                        XY            XZ            YZ
 --------------------------------------------------------
     1   Atom       -0.000000     -0.000000      0.000000
     2   Atom       -0.000000      0.000000     -0.625238
     3   Atom       -0.093962     -0.541472      0.312619
     4   Atom        0.093962      0.541472      0.312619
 --------------------------------------------------------


 ---------------------------------------------------------------------------------
              Anisotropic Spin Dipole Couplings in Principal Axis System
 ---------------------------------------------------------------------------------

       Atom             a.u.   MegaHertz   Gauss  10(-4) cm-1        Axes

              Baa    -0.8737   -45.728   -16.317   -15.253  0.3453  0.9385  0.0000
     1 Cl(35) Bbb    -0.8737   -45.728   -16.317   -15.253  0.9385 -0.3453  0.0000
              Bcc     1.7474    91.457    32.634    30.507 -0.0000  0.0000  1.0000
 
              Baa    -0.6507    47.084    16.801    15.706  0.0000  0.9394  0.3429
     2 O(17)  Bbb    -0.6394    46.268    16.510    15.433  1.0000 -0.0000 -0.0000
              Bcc     1.2901   -93.353   -33.311   -31.139  0.0000 -0.3429  0.9394
 
              Baa    -0.6507    47.084    16.801    15.706  0.8135 -0.4697  0.3429
     3 O(17)  Bbb    -0.6394    46.268    16.510    15.433  0.5000  0.8660  0.0000
              Bcc     1.2901   -93.353   -33.311   -31.139 -0.2970  0.1715  0.9394
 
              Baa    -0.6507    47.084    16.801    15.706  0.8135  0.4697 -0.3429
     4 O(17)  Bbb    -0.6394    46.268    16.510    15.433 -0.5000  0.8660  0.0000
              Bcc     1.2901   -93.353   -33.311   -31.139  0.2970  0.1715  0.9394
 

 ---------------------------------------------------------------------------------

 Calling FoFJK, ICntrl=      2127 FMM=F ISym2X=1 I1Cent= 0 IOpClX= 1 NMat=1 NMatS=1 NMatT=0.
 ***** Axes restored to original set *****
 -------------------------------------------------------------------
 Center     Atomic                   Forces (Hartrees/Bohr)
 Number     Number              X              Y              Z
 -------------------------------------------------------------------
      1       17           0.000000000    0.000000000   -0.000335647
      2        8          -0.000000001   -0.007549197    0.000111882
      3        8          -0.006537795    0.003774600    0.000111882
      4        8           0.006537797    0.003774597    0.000111882
 -------------------------------------------------------------------
 Cartesian Forces:  Max     0.007549197 RMS     0.003776256

 GradGradGradGradGradGradGradGradGradGradGradGradGradGradGradGradGradGrad
 Berny optimization.
 FormGI is forming the generalized inverse of G from B-inverse, IUseBI=4.
 Internal  Forces:  Max     0.007344120 RMS     0.005153112
 Search for a local minimum.
 Step number   1 out of a maximum of   20
 All quantities printed in internal units (Hartrees-Bohrs-Radians)
 Mixed Optimization -- RFO/linear search
 Second derivative matrix not updated -- first step.
 The second derivative matrix:
                          R1        R2        R3        A1        A2
           R1           0.86181
           R2           0.00000   0.86181
           R3           0.00000   0.00000   0.86181
           A1           0.00000   0.00000   0.00000   0.25000
           A2           0.00000   0.00000   0.00000   0.00000   0.25000
           A3           0.00000   0.00000   0.00000   0.00000   0.00000
           D1           0.00000   0.00000   0.00000   0.00000   0.00000
                          A3        D1
           A3           0.25000
           D1           0.00000   0.03631
 ITU=  0
     Eigenvalues ---    0.07509   0.25000   0.25000   0.86181   0.86181
     Eigenvalues ---    0.86181
 RFO step:  Lambda=-4.71672834D-04 EMin= 7.50877396D-02
 Linear search not attempted -- first point.
 Iteration  1 RMS(Cart)=  0.02174849 RMS(Int)=  0.00055875
 Iteration  2 RMS(Cart)=  0.00036594 RMS(Int)=  0.00042692
 Iteration  3 RMS(Cart)=  0.00000003 RMS(Int)=  0.00042692
 ClnCor:  largest displacement from symmetrization is 2.34D-03 for atom     4.
 Variable       Old X    -DE/DX   Delta X   Delta X   Delta X     New X
                                 (Linear)    (Quad)   (Total)
    R1        2.78444  -0.00734   0.00000  -0.00852  -0.00781   2.77663
    R2        2.78444  -0.00734   0.00000  -0.00852  -0.00781   2.77663
    R3        2.78444  -0.00734   0.00000  -0.00852  -0.00781   2.77663
    A1        1.99213  -0.00002   0.00000  -0.01277  -0.01571   1.97642
    A2        1.99213  -0.00193   0.00000  -0.01648  -0.01571   1.97642
    A3        1.99213  -0.00193   0.00000  -0.01648  -0.01571   1.97642
    D1        2.33502  -0.00408   0.00000  -0.05399  -0.05430   2.28072
         Item               Value     Threshold  Converged?
 Maximum Force            0.007344     0.000450     NO 
 RMS     Force            0.005153     0.000300     NO 
 Maximum Displacement     0.037700     0.001800     NO 
 RMS     Displacement     0.021555     0.001200     NO 
 Predicted change in Energy=-2.295487D-04
 GradGradGradGradGradGradGradGradGradGradGradGradGradGradGradGradGradGrad

                          Input orientation:                          
 ---------------------------------------------------------------------
 Center     Atomic      Atomic             Coordinates (Angstroms)
 Number     Number       Type             X           Y           Z
 ---------------------------------------------------------------------
      1         17           0       -0.000000   -0.000000    0.232421
      2          8           0        0.000000    1.416763   -0.157084
      3          8           0        1.226953   -0.708382   -0.157084
      4          8           0       -1.226953   -0.708382   -0.157084
 ---------------------------------------------------------------------
                    Distance matrix (angstroms):
                    1          2          3          4
     1  Cl   0.000000
     2  O    1.469331   0.000000
     3  O    1.469331   2.453906   0.000000
     4  O    1.469331   2.453906   2.453906   0.000000
 Stoichiometry    ClO3(2)
 Framework group  C3V[C3(Cl),3SGV(O)]
 Deg. of freedom     2
 Full point group                 C3V     NOp   6
 Largest Abelian subgroup         CS      NOp   2
 Largest concise Abelian subgroup CS      NOp   2
                         Standard orientation:                         
 ---------------------------------------------------------------------
 Center     Atomic      Atomic             Coordinates (Angstroms)
 Number     Number       Type             X           Y           Z
 ---------------------------------------------------------------------
      1         17           0        0.000000    0.000000    0.228003
      2          8           0        0.000000    1.416763   -0.161502
      3          8           0        1.226953   -0.708382   -0.161502
      4          8           0       -1.226953   -0.708382   -0.161502
 ---------------------------------------------------------------------
 Rotational constants (GHZ):           9.8655233           9.8655233           5.2471013
 Basis read from rwf:  (5D, 7F)
 There are    86 symmetry adapted cartesian basis functions of A'  symmetry.
 There are    58 symmetry adapted cartesian basis functions of A"  symmetry.
 There are    73 symmetry adapted basis functions of A'  symmetry.
 There are    51 symmetry adapted basis functions of A"  symmetry.
   124 basis functions,   223 primitive gaussians,   144 cartesian basis functions
    21 alpha electrons       20 beta electrons
       nuclear repulsion energy       188.3447814938 Hartrees.
 NAtoms=    4 NActive=    4 NUniq=    2 SFac= 4.00D+00 NAtFMM=   60 NAOKFM=F Big=F
 Integral buffers will be    131072 words long.
 Raffenetti 2 integral format.
 Two-electron integral symmetry is turned on.
 One-electron integrals computed using PRISM.
 NBasis=   124 RedAO= T EigKep=  3.37D-03  NBF=    73    51
 NBsUse=   124 1.00D-06 EigRej= -1.00D+00 NBFU=    73    51
 Initial guess from the checkpoint file:  "/wrk/irikura/Gau-20183.chk"
 B after Tr=     0.000000   -0.000000    0.000000
         Rot=    1.000000    0.000000    0.000000   -0.000000 Ang=   0.00 deg.
 Initial guess orbital symmetries:
 Alpha Orbitals:
       Occupied  (A1) (E) (E) (A1) (A1) (E) (E) (A1) (A1) (E) (E)
                 (A1) (A1) (E) (E) (E) (E) (E) (E) (A2) (A1)
       Virtual   (A1) (E) (E) (A1) (E) (E) (A1) (E) (E) (A1) (E)
                 (E) (A1) (E) (E) (A2) (E) (E) (A1) (E) (E) (E)
                 (E) (A1) (A1) (A2) (E) (E) (E) (E) (A2) (E) (E)
                 (A1) (E) (E) (A1) (E) (E) (A1) (E) (E) (A1) (E)
                 (E) (A2) (E) (E) (E) (E) (A1) (A1) (E) (E) (A1)
                 (A2) (E) (E) (A1) (E) (E) (E) (E) (A2) (A1) (E)
                 (E) (E) (E) (A2) (A1) (E) (E) (E) (E) (A1) (A1)
                 (E) (E) (E) (E) (E) (E) (A1) (A2) (E) (E) (A2)
                 (E) (E) (A1) (E) (E) (A2) (E) (E) (A1) (E) (E)
                 (A1) (E) (E) (A1)
 Beta  Orbitals:
       Occupied  (A1) (E) (E) (A1) (A1) (E) (E) (A1) (A1) (E) (E)
                 (A1) (A1) (E) (E) (E) (E) (E) (E) (A2)
       Virtual   (A1) (A1) (E) (E) (A1) (E) (E) (A1) (E) (E) (A1)
                 (E) (E) (A1) (E) (E) (A2) (E) (E) (A1) (E) (E)
                 (E) (E) (A1) (A1) (A2) (E) (E) (E) (E) (A2) (E)
                 (E) (A1) (E) (E) (A1) (E) (E) (A1) (E) (E) (A1)
                 (E) (E) (A2) (E) (E) (E) (E) (A1) (A1) (E) (E)
                 (A1) (A2) (E) (E) (A1) (E) (E) (E) (E) (A2) (A1)
                 (E) (E) (E) (E) (A2) (A1) (E) (E) (E) (E) (A1)
                 (A1) (E) (E) (E) (E) (E) (E) (A1) (A2) (E) (E)
                 (A2) (E) (E) (A1) (E) (E) (A2) (E) (E) (A1) (E)
                 (E) (A1) (E) (E) (A1)
 Initial guess <Sx>= 0.0000 <Sy>= 0.0000 <Sz>= 0.5000 <S**2>= 0.7579 S= 0.5039
 ExpMin= 1.21D-01 ExpMax= 1.54D+05 ExpMxC= 1.49D+03 IAcc=3 IRadAn=         5 AccDes= 0.00D+00
 Harris functional with IExCor=  402 and IRadAn=       5 diagonalized for initial guess.
 HarFok:  IExCor=  402 AccDes= 0.00D+00 IRadAn=         5 IDoV= 1 UseB2=F ITyADJ=14
 ICtDFT=  3500011 ScaDFX=  1.000000  1.000000  1.000000  1.000000
 FoFCou: FMM=F IPFlag=           0 FMFlag=      100000 FMFlg1=           0
         NFxFlg=           0 DoJE=T BraDBF=F KetDBF=T FulRan=T
         wScrn=  0.000000 ICntrl=       500 IOpCl=  0 I1Cent=   200000004 NGrid=           0
         NMat0=    1 NMatS0=      1 NMatT0=    0 NMatD0=    1 NMtDS0=    0 NMtDT0=    0
 Petite list used in FoFCou.
 Keep R1 and R2 ints in memory in symmetry-blocked form, NReq=45145827.
 Requested convergence on RMS density matrix=1.00D-08 within 128 cycles.
 Requested convergence on MAX density matrix=1.00D-06.
 Requested convergence on             energy=1.00D-06.
 No special actions if energy rises.
 Integral accuracy reduced to 1.0D-05 until final iterations.
 Initial convergence to 1.0D-05 achieved.  Increase integral accuracy.
 SCF Done:  E(UB3LYP) =  -685.705544108     A.U. after   11 cycles
            NFock= 11  Conv=0.18D-08     -V/T= 2.0016
 <Sx>= 0.0000 <Sy>= 0.0000 <Sz>= 0.5000 <S**2>= 0.7580 S= 0.5040
 <L.S>=  0.00000000000    
 Annihilation of the first spin contaminant:
 S**2 before annihilation     0.7580,   after     0.7500
 Calling FoFJK, ICntrl=      2127 FMM=F ISym2X=1 I1Cent= 0 IOpClX= 1 NMat=1 NMatS=1 NMatT=0.
 ***** Axes restored to original set *****
 -------------------------------------------------------------------
 Center     Atomic                   Forces (Hartrees/Bohr)
 Number     Number              X              Y              Z
 -------------------------------------------------------------------
      1       17           0.000000000   -0.000000000   -0.011086026
      2        8          -0.000000001   -0.002614932    0.003695342
      3        8          -0.002264597    0.001307466    0.003695342
      4        8           0.002264598    0.001307466    0.003695342
 -------------------------------------------------------------------
 Cartesian Forces:  Max     0.011086026 RMS     0.003919824

 GradGradGradGradGradGradGradGradGradGradGradGradGradGradGradGradGradGrad
 Berny optimization.
 Using GEDIIS/GDIIS optimizer.
 FormGI is forming the generalized inverse of G from B-inverse, IUseBI=4.
 Internal  Forces:  Max     0.006563926 RMS     0.003838216
 Search for a local minimum.
 Step number   2 out of a maximum of   20
 All quantities printed in internal units (Hartrees-Bohrs-Radians)
 Mixed Optimization -- RFO/linear search
 Update second derivatives using D2CorX and points    1    2
 DE= -4.17D-05 DEPred=-2.30D-04 R= 1.82D-01
 Trust test= 1.82D-01 RLast= 6.22D-02 DXMaxT set to 3.00D-01
 The second derivative matrix:
                          R1        R2        R3        A1        A2
           R1           0.77873
           R2          -0.08308   0.77873
           R3          -0.08308  -0.08308   0.77873
           A1          -0.05807  -0.05807  -0.05807   0.21574
           A2          -0.03429  -0.03429  -0.03429  -0.03333   0.24970
           A3          -0.03429  -0.03429  -0.03429  -0.03333  -0.00030
           D1           0.01931   0.01931   0.01931  -0.01531   0.05057
                          A3        D1
           A3           0.24970
           D1           0.05057   0.16284
 ITU=  0  0
 Use linear search instead of GDIIS.
     Eigenvalues ---    0.16260   0.25000   0.31365   0.61472   0.86181
     Eigenvalues ---    0.86181
 RFO step:  Lambda=-1.47126549D-04 EMin= 1.62604344D-01
 Quartic linear search produced a step of -0.44660.
 Iteration  1 RMS(Cart)=  0.01045947 RMS(Int)=  0.00013573
 Iteration  2 RMS(Cart)=  0.00013058 RMS(Int)=  0.00004418
 Iteration  3 RMS(Cart)=  0.00000000 RMS(Int)=  0.00004418
 ClnCor:  largest displacement from symmetrization is 1.40D-03 for atom     4.
 Variable       Old X    -DE/DX   Delta X   Delta X   Delta X     New X
                                 (Linear)    (Quad)   (Total)
    R1        2.77663  -0.00350   0.00349  -0.00837  -0.00530   2.77133
    R2        2.77663  -0.00350   0.00349  -0.00837  -0.00530   2.77133
    R3        2.77663  -0.00350   0.00349  -0.00837  -0.00530   2.77133
    A1        1.97642   0.00013   0.00702   0.00065   0.00907   1.98549
    A2        1.97642   0.00341   0.00702   0.00275   0.00907   1.98549
    A3        1.97642   0.00341   0.00702   0.00275   0.00907   1.98549
    D1        2.28072   0.00656   0.02425   0.00609   0.03076   2.31148
         Item               Value     Threshold  Converged?
 Maximum Force            0.006564     0.000450     NO 
 RMS     Force            0.003838     0.000300     NO 
 Maximum Displacement     0.023306     0.001800     NO 
 RMS     Displacement     0.010315     0.001200     NO 
 Predicted change in Energy=-1.610648D-04
 GradGradGradGradGradGradGradGradGradGradGradGradGradGradGradGradGradGrad

                          Input orientation:                          
 ---------------------------------------------------------------------
 Center     Atomic      Atomic             Coordinates (Angstroms)
 Number     Number       Type             X           Y           Z
 ---------------------------------------------------------------------
      1         17           0       -0.000000   -0.000000    0.220088
      2          8           0        0.000000    1.418269   -0.153016
      3          8           0        1.228257   -0.709135   -0.153016
      4          8           0       -1.228257   -0.709134   -0.153016
 ---------------------------------------------------------------------
                    Distance matrix (angstroms):
                    1          2          3          4
     1  Cl   0.000000
     2  O    1.466524   0.000000
     3  O    1.466524   2.456514   0.000000
     4  O    1.466524   2.456514   2.456514   0.000000
 Stoichiometry    ClO3(2)
 Framework group  C3V[C3(Cl),3SGV(O)]
 Deg. of freedom     2
 Full point group                 C3V     NOp   6
 Largest Abelian subgroup         CS      NOp   2
 Largest concise Abelian subgroup CS      NOp   2
                         Standard orientation:                         
 ---------------------------------------------------------------------
 Center     Atomic      Atomic             Coordinates (Angstroms)
 Number     Number       Type             X           Y           Z
 ---------------------------------------------------------------------
      1         17           0        0.000000    0.000000    0.218402
      2          8           0        0.000000    1.418269   -0.154702
      3          8           0        1.228257   -0.709134   -0.154702
      4          8           0       -1.228257   -0.709134   -0.154702
 ---------------------------------------------------------------------
 Rotational constants (GHZ):           9.8946104           9.8946104           5.2359660
 Basis read from rwf:  (5D, 7F)
 There are    86 symmetry adapted cartesian basis functions of A'  symmetry.
 There are    58 symmetry adapted cartesian basis functions of A"  symmetry.
 There are    73 symmetry adapted basis functions of A'  symmetry.
 There are    51 symmetry adapted basis functions of A"  symmetry.
   124 basis functions,   223 primitive gaussians,   144 cartesian basis functions
    21 alpha electrons       20 beta electrons
       nuclear repulsion energy       188.5820160654 Hartrees.
 NAtoms=    4 NActive=    4 NUniq=    2 SFac= 4.00D+00 NAtFMM=   60 NAOKFM=F Big=F
 Integral buffers will be    131072 words long.
 Raffenetti 2 integral format.
 Two-electron integral symmetry is turned on.
 One-electron integrals computed using PRISM.
 NBasis=   124 RedAO= T EigKep=  3.37D-03  NBF=    73    51
 NBsUse=   124 1.00D-06 EigRej= -1.00D+00 NBFU=    73    51
 Initial guess from the checkpoint file:  "/wrk/irikura/Gau-20183.chk"
 B after Tr=     0.000000    0.000000   -0.000000
         Rot=    1.000000   -0.000000   -0.000000    0.000000 Ang=   0.00 deg.
 Initial guess orbital symmetries:
 Alpha Orbitals:
       Occupied  (A1) (E) (E) (A1) (A1) (E) (E) (A1) (A1) (E) (E)
                 (A1) (A1) (E) (E) (E) (E) (E) (E) (A2) (A1)
       Virtual   (A1) (E) (E) (A1) (E) (E) (A1) (E) (E) (A1) (E)
                 (E) (A1) (E) (E) (A2) (E) (E) (A1) (E) (E) (E)
                 (E) (A1) (A1) (A2) (E) (E) (E) (E) (A2) (E) (E)
                 (A1) (E) (E) (A1) (E) (E) (A1) (E) (E) (A1) (E)
                 (E) (A2) (E) (E) (E) (E) (A1) (A1) (E) (E) (A1)
                 (A2) (E) (E) (A1) (E) (E) (E) (E) (A2) (E) (E)
                 (E) (E) (A2) (A1) (A1) (E) (E) (E) (E) (A1) (A1)
                 (E) (E) (E) (E) (E) (E) (A1) (A2) (E) (E) (E)
                 (E) (A2) (A1) (A2) (E) (E) (E) (E) (A1) (E) (E)
                 (A1) (E) (E) (A1)
 Beta  Orbitals:
       Occupied  (A1) (E) (E) (A1) (A1) (E) (E) (A1) (A1) (E) (E)
                 (A1) (A1) (E) (E) (E) (E) (E) (E) (A2)
       Virtual   (A1) (A1) (E) (E) (A1) (E) (E) (A1) (E) (E) (A1)
                 (E) (E) (A1) (E) (E) (A2) (E) (E) (A1) (E) (E)
                 (E) (E) (A1) (A1) (A2) (E) (E) (E) (E) (A2) (E)
                 (E) (A1) (E) (E) (A1) (E) (E) (A1) (E) (E) (A1)
                 (E) (E) (A2) (E) (E) (E) (E) (A1) (A1) (E) (E)
                 (A1) (A2) (E) (E) (A1) (E) (E) (E) (E) (A2) (E)
                 (E) (E) (E) (A1) (A2) (A1) (E) (E) (E) (E) (A1)
                 (A1) (E) (E) (E) (E) (E) (E) (A1) (A2) (E) (E)
                 (A2) (E) (E) (A1) (A2) (E) (E) (E) (E) (A1) (E)
                 (E) (A1) (E) (E) (A1)
 Initial guess <Sx>= 0.0000 <Sy>= 0.0000 <Sz>= 0.5000 <S**2>= 0.7579 S= 0.5040
 ExpMin= 1.21D-01 ExpMax= 1.54D+05 ExpMxC= 1.49D+03 IAcc=3 IRadAn=         5 AccDes= 0.00D+00
 Harris functional with IExCor=  402 and IRadAn=       5 diagonalized for initial guess.
 HarFok:  IExCor=  402 AccDes= 0.00D+00 IRadAn=         5 IDoV= 1 UseB2=F ITyADJ=14
 ICtDFT=  3500011 ScaDFX=  1.000000  1.000000  1.000000  1.000000
 FoFCou: FMM=F IPFlag=           0 FMFlag=      100000 FMFlg1=           0
         NFxFlg=           0 DoJE=T BraDBF=F KetDBF=T FulRan=T
         wScrn=  0.000000 ICntrl=       500 IOpCl=  0 I1Cent=   200000004 NGrid=           0
         NMat0=    1 NMatS0=      1 NMatT0=    0 NMatD0=    1 NMtDS0=    0 NMtDT0=    0
 Petite list used in FoFCou.
 Keep R1 and R2 ints in memory in symmetry-blocked form, NReq=45145827.
 Requested convergence on RMS density matrix=1.00D-08 within 128 cycles.
 Requested convergence on MAX density matrix=1.00D-06.
 Requested convergence on             energy=1.00D-06.
 No special actions if energy rises.
 Integral accuracy reduced to 1.0D-05 until final iterations.
 Initial convergence to 1.0D-05 achieved.  Increase integral accuracy.
 SCF Done:  E(UB3LYP) =  -685.705729621     A.U. after   10 cycles
            NFock= 10  Conv=0.81D-08     -V/T= 2.0016
 <Sx>= 0.0000 <Sy>= 0.0000 <Sz>= 0.5000 <S**2>= 0.7576 S= 0.5038
 <L.S>=  0.00000000000    
 Annihilation of the first spin contaminant:
 S**2 before annihilation     0.7576,   after     0.7500
 Calling FoFJK, ICntrl=      2127 FMM=F ISym2X=1 I1Cent= 0 IOpClX= 1 NMat=1 NMatS=1 NMatT=0.
 ***** Axes restored to original set *****
 -------------------------------------------------------------------
 Center     Atomic                   Forces (Hartrees/Bohr)
 Number     Number              X              Y              Z
 -------------------------------------------------------------------
      1       17          -0.000000000   -0.000000000   -0.001996649
      2        8          -0.000000000   -0.001393603    0.000665550
      3        8          -0.001206896    0.000696802    0.000665550
      4        8           0.001206896    0.000696801    0.000665550
 -------------------------------------------------------------------
 Cartesian Forces:  Max     0.001996649 RMS     0.000963581

 GradGradGradGradGradGradGradGradGradGradGradGradGradGradGradGradGradGrad
 Berny optimization.
 Using GEDIIS/GDIIS optimizer.
 FormGI is forming the generalized inverse of G from B-inverse, IUseBI=4.
 Internal  Forces:  Max     0.001517072 RMS     0.001039465
 Search for a local minimum.
 Step number   3 out of a maximum of   20
 All quantities printed in internal units (Hartrees-Bohrs-Radians)
 Mixed Optimization -- RFO/linear search
 Update second derivatives using D2CorX and points    1    2    3
 DE= -1.86D-04 DEPred=-1.61D-04 R= 1.15D+00
 TightC=F SS=  1.41D+00  RLast= 3.57D-02 DXNew= 5.0454D-01 1.0722D-01
 Trust test= 1.15D+00 RLast= 3.57D-02 DXMaxT set to 3.00D-01
 The second derivative matrix:
                          R1        R2        R3        A1        A2
           R1           0.71936
           R2          -0.14246   0.71936
           R3          -0.14246  -0.14246   0.71936
           A1          -0.01061  -0.01061  -0.01061   0.19773
           A2          -0.00267  -0.00267  -0.00267  -0.05327   0.23494
           A3          -0.00267  -0.00267  -0.00267  -0.05327  -0.01506
           D1           0.01511   0.01511   0.01511  -0.02841   0.04966
                          A3        D1
           A3           0.23494
           D1           0.04966   0.17864
 ITU=  1  0  0
 Use linear search instead of GDIIS.
     Eigenvalues ---    0.15673   0.25000   0.31761   0.43656   0.86181
     Eigenvalues ---    0.86181
 RFO step:  Lambda=-1.00491606D-05 EMin= 1.56732499D-01
 Quartic linear search produced a step of  0.18820.
 Iteration  1 RMS(Cart)=  0.00221932 RMS(Int)=  0.00002720
 Iteration  2 RMS(Cart)=  0.00000326 RMS(Int)=  0.00002700
 Iteration  3 RMS(Cart)=  0.00000000 RMS(Int)=  0.00002700
 ClnCor:  largest displacement from symmetrization is 2.07D-05 for atom     4.
 Variable       Old X    -DE/DX   Delta X   Delta X   Delta X     New X
                                 (Linear)    (Quad)   (Total)
    R1        2.77133  -0.00152  -0.00100  -0.00259  -0.00358   2.76775
    R2        2.77133  -0.00152  -0.00100  -0.00259  -0.00358   2.76775
    R3        2.77133  -0.00152  -0.00100  -0.00259  -0.00358   2.76775
    A1        1.98549   0.00001   0.00171  -0.00054   0.00110   1.98659
    A2        1.98549   0.00033   0.00171  -0.00059   0.00110   1.98659
    A3        1.98549   0.00033   0.00171  -0.00059   0.00110   1.98659
    D1        2.31148   0.00067   0.00579  -0.00197   0.00384   2.31532
         Item               Value     Threshold  Converged?
 Maximum Force            0.001517     0.000450     NO 
 RMS     Force            0.001039     0.000300     NO 
 Maximum Displacement     0.003426     0.001800     NO 
 RMS     Displacement     0.002217     0.001200     NO 
 Predicted change in Energy=-9.790066D-06
 GradGradGradGradGradGradGradGradGradGradGradGradGradGradGradGradGradGrad

                          Input orientation:                          
 ---------------------------------------------------------------------
 Center     Atomic      Atomic             Coordinates (Angstroms)
 Number     Number       Type             X           Y           Z
 ---------------------------------------------------------------------
      1         17           0       -0.000000   -0.000000    0.218275
      2          8           0        0.000000    1.416946   -0.152411
      3          8           0        1.227111   -0.708473   -0.152411
      4          8           0       -1.227111   -0.708473   -0.152411
 ---------------------------------------------------------------------
                    Distance matrix (angstroms):
                    1          2          3          4
     1  Cl   0.000000
     2  O    1.464631   0.000000
     3  O    1.464631   2.454222   0.000000
     4  O    1.464631   2.454222   2.454222   0.000000
 Stoichiometry    ClO3(2)
 Framework group  C3V[C3(Cl),3SGV(O)]
 Deg. of freedom     2
 Full point group                 C3V     NOp   6
 Largest Abelian subgroup         CS      NOp   2
 Largest concise Abelian subgroup CS      NOp   2
                         Standard orientation:                         
 ---------------------------------------------------------------------
 Center     Atomic      Atomic             Coordinates (Angstroms)
 Number     Number       Type             X           Y           Z
 ---------------------------------------------------------------------
      1         17           0        0.000000    0.000000    0.216987
      2          8           0        0.000000    1.416946   -0.153699
      3          8           0        1.227111   -0.708473   -0.153699
      4          8           0       -1.227111   -0.708473   -0.153699
 ---------------------------------------------------------------------
 Rotational constants (GHZ):           9.9191526           9.9191526           5.2457481
 Basis read from rwf:  (5D, 7F)
 There are    86 symmetry adapted cartesian basis functions of A'  symmetry.
 There are    58 symmetry adapted cartesian basis functions of A"  symmetry.
 There are    73 symmetry adapted basis functions of A'  symmetry.
 There are    51 symmetry adapted basis functions of A"  symmetry.
   124 basis functions,   223 primitive gaussians,   144 cartesian basis functions
    21 alpha electrons       20 beta electrons
       nuclear repulsion energy       188.8109400020 Hartrees.
 NAtoms=    4 NActive=    4 NUniq=    2 SFac= 4.00D+00 NAtFMM=   60 NAOKFM=F Big=F
 Integral buffers will be    131072 words long.
 Raffenetti 2 integral format.
 Two-electron integral symmetry is turned on.
 One-electron integrals computed using PRISM.
 NBasis=   124 RedAO= T EigKep=  3.34D-03  NBF=    73    51
 NBsUse=   124 1.00D-06 EigRej= -1.00D+00 NBFU=    73    51
 Initial guess from the checkpoint file:  "/wrk/irikura/Gau-20183.chk"
 B after Tr=     0.000000    0.000000    0.000000
         Rot=    1.000000   -0.000000    0.000000    0.000000 Ang=   0.00 deg.
 Initial guess orbital symmetries:
 Alpha Orbitals:
       Occupied  (A1) (E) (E) (A1) (A1) (E) (E) (A1) (A1) (E) (E)
                 (A1) (A1) (E) (E) (E) (E) (E) (E) (A2) (A1)
       Virtual   (A1) (E) (E) (A1) (E) (E) (A1) (E) (E) (A1) (E)
                 (E) (A1) (E) (E) (A2) (E) (E) (A1) (E) (E) (E)
                 (E) (A1) (A1) (A2) (E) (E) (E) (E) (A2) (E) (E)
                 (A1) (E) (E) (A1) (E) (E) (A1) (E) (E) (A1) (E)
                 (E) (A2) (E) (E) (E) (E) (A1) (A1) (E) (E) (A1)
                 (A2) (E) (E) (A1) (E) (E) (E) (E) (A2) (A1) (E)
                 (E) (E) (E) (A2) (A1) (E) (E) (E) (E) (A1) (A1)
                 (E) (E) (E) (E) (E) (E) (A1) (A2) (E) (E) (A2)
                 (E) (E) (A1) (A2) (E) (E) (E) (E) (A1) (E) (E)
                 (A1) (E) (E) (A1)
 Beta  Orbitals:
       Occupied  (A1) (E) (E) (A1) (A1) (E) (E) (A1) (A1) (E) (E)
                 (A1) (A1) (E) (E) (E) (E) (E) (E) (A2)
       Virtual   (A1) (A1) (E) (E) (A1) (E) (E) (A1) (E) (E) (A1)
                 (E) (E) (A1) (E) (E) (A2) (E) (E) (A1) (E) (E)
                 (E) (E) (A1) (A1) (A2) (E) (E) (E) (E) (A2) (E)
                 (E) (A1) (E) (E) (A1) (E) (E) (A1) (E) (E) (A1)
                 (E) (E) (A2) (E) (E) (E) (E) (A1) (A1) (E) (E)
                 (A1) (A2) (E) (E) (A1) (E) (E) (E) (E) (A2) (A1)
                 (E) (E) (E) (E) (A2) (A1) (E) (E) (E) (E) (A1)
                 (A1) (E) (E) (E) (E) (E) (E) (A1) (A2) (E) (E)
                 (A2) (E) (E) (A1) (A2) (E) (E) (E) (E) (A1) (E)
                 (E) (A1) (E) (E) (A1)
 Initial guess <Sx>= 0.0000 <Sy>= 0.0000 <Sz>= 0.5000 <S**2>= 0.7576 S= 0.5038
 Keep R1 and R2 ints in memory in symmetry-blocked form, NReq=45145827.
 Requested convergence on RMS density matrix=1.00D-08 within 128 cycles.
 Requested convergence on MAX density matrix=1.00D-06.
 Requested convergence on             energy=1.00D-06.
 No special actions if energy rises.
 SCF Done:  E(UB3LYP) =  -685.705739164     A.U. after    8 cycles
            NFock=  8  Conv=0.54D-08     -V/T= 2.0016
 <Sx>= 0.0000 <Sy>= 0.0000 <Sz>= 0.5000 <S**2>= 0.7575 S= 0.5037
 <L.S>=  0.00000000000    
 Annihilation of the first spin contaminant:
 S**2 before annihilation     0.7575,   after     0.7500
 Calling FoFJK, ICntrl=      2127 FMM=F ISym2X=1 I1Cent= 0 IOpClX= 1 NMat=1 NMatS=1 NMatT=0.
 ***** Axes restored to original set *****
 -------------------------------------------------------------------
 Center     Atomic                   Forces (Hartrees/Bohr)
 Number     Number              X              Y              Z
 -------------------------------------------------------------------
      1       17           0.000000000   -0.000000000    0.000046299
      2        8           0.000000000    0.000042172   -0.000015433
      3        8           0.000036522   -0.000021086   -0.000015433
      4        8          -0.000036522   -0.000021086   -0.000015433
 -------------------------------------------------------------------
 Cartesian Forces:  Max     0.000046299 RMS     0.000026130

 GradGradGradGradGradGradGradGradGradGradGradGradGradGradGradGradGradGrad
 Berny optimization.
 Using GEDIIS/GDIIS optimizer.
 FormGI is forming the generalized inverse of G from B-inverse, IUseBI=4.
 Internal  Forces:  Max     0.000044705 RMS     0.000029611
 Search for a local minimum.
 Step number   4 out of a maximum of   20
 All quantities printed in internal units (Hartrees-Bohrs-Radians)
 Mixed Optimization -- En-DIIS/RFO-DIIS
 Update second derivatives using D2CorX and points    1    2    3    4
 DE= -9.54D-06 DEPred=-9.79D-06 R= 9.75D-01
 TightC=F SS=  1.41D+00  RLast= 7.53D-03 DXNew= 5.0454D-01 2.2602D-02
 Trust test= 9.75D-01 RLast= 7.53D-03 DXMaxT set to 3.00D-01
 The second derivative matrix:
                          R1        R2        R3        A1        A2
           R1           0.72303
           R2          -0.13878   0.72303
           R3          -0.13878  -0.13878   0.72303
           A1           0.00018   0.00018   0.00018   0.19693
           A2           0.00346   0.00346   0.00346  -0.05197   0.23448
           A3           0.00346   0.00346   0.00346  -0.05197  -0.01552
           D1           0.00630   0.00630   0.00630  -0.02421   0.04853
                          A3        D1
           A3           0.23448
           D1           0.04853   0.17283
 ITU=  1  1  0  0
 Use linear search instead of GDIIS.
     Eigenvalues ---    0.15686   0.25000   0.31286   0.44661   0.86181
     Eigenvalues ---    0.86181
 RFO step:  Lambda= 0.00000000D+00 EMin= 1.56857945D-01
 Quartic linear search produced a step of -0.02611.
 Iteration  1 RMS(Cart)=  0.00006056 RMS(Int)=  0.00000005
 Iteration  2 RMS(Cart)=  0.00000000 RMS(Int)=  0.00000005
 ClnCor:  largest displacement from symmetrization is 3.47D-07 for atom     4.
 Variable       Old X    -DE/DX   Delta X   Delta X   Delta X     New X
                                 (Linear)    (Quad)   (Total)
    R1        2.76775   0.00004   0.00009   0.00001   0.00010   2.76785
    R2        2.76775   0.00004   0.00009   0.00001   0.00010   2.76785
    R3        2.76775   0.00004   0.00009   0.00001   0.00010   2.76785
    A1        1.98659  -0.00000  -0.00003   0.00001  -0.00002   1.98657
    A2        1.98659  -0.00000  -0.00003   0.00001  -0.00002   1.98657
    A3        1.98659  -0.00000  -0.00003   0.00001  -0.00002   1.98657
    D1        2.31532  -0.00001  -0.00010   0.00004  -0.00006   2.31526
         Item               Value     Threshold  Converged?
 Maximum Force            0.000045     0.000450     YES
 RMS     Force            0.000030     0.000300     YES
 Maximum Displacement     0.000083     0.001800     YES
 RMS     Displacement     0.000061     0.001200     YES
 Predicted change in Energy=-7.186354D-09
 Optimization completed.
    -- Stationary point found.
                           ----------------------------
                           !   Optimized Parameters   !
                           ! (Angstroms and Degrees)  !
 --------------------------                            --------------------------
 ! Name  Definition              Value          Derivative Info.                !
 --------------------------------------------------------------------------------
 ! R1    R(1,2)                  1.4646         -DE/DX =    0.0                 !
 ! R2    R(1,3)                  1.4646         -DE/DX =    0.0                 !
 ! R3    R(1,4)                  1.4646         -DE/DX =    0.0                 !
 ! A1    A(2,1,3)              113.8233         -DE/DX =    0.0                 !
 ! A2    A(2,1,4)              113.8233         -DE/DX =    0.0                 !
 ! A3    A(3,1,4)              113.8233         -DE/DX =    0.0                 !
 ! D1    D(2,1,4,3)            132.6578         -DE/DX =    0.0                 !
 --------------------------------------------------------------------------------
 GradGradGradGradGradGradGradGradGradGradGradGradGradGradGradGradGradGrad

                          Input orientation:                          
 ---------------------------------------------------------------------
 Center     Atomic      Atomic             Coordinates (Angstroms)
 Number     Number       Type             X           Y           Z
 ---------------------------------------------------------------------
      1         17           0       -0.000000   -0.000000    0.218275
      2          8           0        0.000000    1.416946   -0.152411
      3          8           0        1.227111   -0.708473   -0.152411
      4          8           0       -1.227111   -0.708473   -0.152411
 ---------------------------------------------------------------------
                    Distance matrix (angstroms):
                    1          2          3          4
     1  Cl   0.000000
     2  O    1.464631   0.000000
     3  O    1.464631   2.454222   0.000000
     4  O    1.464631   2.454222   2.454222   0.000000
 Stoichiometry    ClO3(2)
 Framework group  C3V[C3(Cl),3SGV(O)]
 Deg. of freedom     2
 Full point group                 C3V     NOp   6
 Largest Abelian subgroup         CS      NOp   2
 Largest concise Abelian subgroup CS      NOp   2
                         Standard orientation:                         
 ---------------------------------------------------------------------
 Center     Atomic      Atomic             Coordinates (Angstroms)
 Number     Number       Type             X           Y           Z
 ---------------------------------------------------------------------
      1         17           0        0.000000    0.000000    0.216987
      2          8           0        0.000000    1.416946   -0.153699
      3          8           0        1.227111   -0.708473   -0.153699
      4          8           0       -1.227111   -0.708473   -0.153699
 ---------------------------------------------------------------------
 Rotational constants (GHZ):           9.9191526           9.9191526           5.2457481

 **********************************************************************

            Population analysis using the SCF Density.

 **********************************************************************

 Orbital symmetries:
 Alpha Orbitals:
       Occupied  (A1) (E) (E) (A1) (A1) (E) (E) (A1) (A1) (E) (E)
                 (A1) (A1) (E) (E) (E) (E) (E) (E) (A2) (A1)
       Virtual   (A1) (E) (E) (A1) (E) (E) (A1) (E) (E) (A1) (E)
                 (E) (A1) (E) (E) (A2) (E) (E) (A1) (E) (E) (E)
                 (E) (A1) (A1) (A2) (E) (E) (E) (E) (A2) (E) (E)
                 (A1) (E) (E) (A1) (E) (E) (A1) (E) (E) (A1) (E)
                 (E) (A2) (E) (E) (E) (E) (A1) (A1) (E) (E) (A1)
                 (A2) (E) (E) (A1) (E) (E) (E) (E) (A2) (A1) (E)
                 (E) (E) (E) (A2) (A1) (E) (E) (E) (E) (A1) (A1)
                 (E) (E) (E) (E) (E) (E) (A1) (A2) (E) (E) (A2)
                 (E) (E) (A1) (A2) (E) (E) (E) (E) (A1) (E) (E)
                 (A1) (E) (E) (A1)
 Beta  Orbitals:
       Occupied  (A1) (E) (E) (A1) (A1) (E) (E) (A1) (A1) (E) (E)
                 (A1) (A1) (E) (E) (E) (E) (E) (E) (A2)
       Virtual   (A1) (A1) (E) (E) (A1) (E) (E) (A1) (E) (E) (A1)
                 (E) (E) (A1) (E) (E) (A2) (E) (E) (A1) (E) (E)
                 (E) (E) (A1) (A1) (A2) (E) (E) (E) (E) (A2) (E)
                 (E) (A1) (E) (E) (A1) (E) (E) (A1) (E) (E) (A1)
                 (E) (E) (A2) (E) (E) (E) (E) (A1) (A1) (E) (E)
                 (A1) (A2) (E) (E) (A1) (E) (E) (E) (E) (A2) (A1)
                 (E) (E) (E) (E) (A2) (A1) (E) (E) (E) (E) (A1)
                 (A1) (E) (E) (E) (E) (E) (E) (A1) (A2) (E) (E)
                 (A2) (E) (E) (A1) (A2) (E) (E) (E) (E) (A1) (E)
                 (E) (A1) (E) (E) (A1)
 The electronic state is 2-A1.
 Alpha  occ. eigenvalues -- -101.85625 -19.22736 -19.22736 -19.22735  -9.75996
 Alpha  occ. eigenvalues --   -7.52020  -7.52020  -7.51877  -1.30588  -1.11715
 Alpha  occ. eigenvalues --   -1.11715  -0.75204  -0.62450  -0.59340  -0.59340
 Alpha  occ. eigenvalues --   -0.45119  -0.45119  -0.41493  -0.41493  -0.36458
 Alpha  occ. eigenvalues --   -0.34348
 Alpha virt. eigenvalues --   -0.02946   0.01001   0.01001   0.18964   0.24188
 Alpha virt. eigenvalues --    0.24188   0.25396   0.30771   0.30771   0.31028
 Alpha virt. eigenvalues --    0.32356   0.32356   0.39267   0.41292   0.41292
 Alpha virt. eigenvalues --    0.43452   0.46732   0.46732   0.51320   0.66448
 Alpha virt. eigenvalues --    0.66448   0.81136   0.81136   1.01124   1.31586
 Alpha virt. eigenvalues --    1.35706   1.37190   1.37190   1.41206   1.41206
 Alpha virt. eigenvalues --    1.50523   1.55980   1.55980   1.64201   1.76223
 Alpha virt. eigenvalues --    1.76223   1.82227   1.85489   1.85489   2.00308
 Alpha virt. eigenvalues --    2.05633   2.05633   2.12238   2.14406   2.14406
 Alpha virt. eigenvalues --    2.18552   2.31382   2.31382   2.38727   2.38727
 Alpha virt. eigenvalues --    2.50209   2.58792   2.61760   2.61760   2.67447
 Alpha virt. eigenvalues --    2.77785   2.81892   2.81892   3.42080   3.49982
 Alpha virt. eigenvalues --    3.49982   3.61182   3.61182   3.86501   3.90509
 Alpha virt. eigenvalues --    3.90674   3.90674   3.91086   3.91086   3.91244
 Alpha virt. eigenvalues --    3.92172   3.93385   3.93385   4.12552   4.12552
 Alpha virt. eigenvalues --    4.34046   4.46228   4.50370   4.50370   4.61224
 Alpha virt. eigenvalues --    4.61224   4.73425   4.73425   4.73579   4.98452
 Alpha virt. eigenvalues --    5.94081   5.94081   5.95631   5.95964   5.95964
 Alpha virt. eigenvalues --    5.97114   6.23284   6.24050   6.24050   6.30382
 Alpha virt. eigenvalues --    6.30382   6.31929   6.45268   6.45268   6.51525
 Alpha virt. eigenvalues --    7.78668   7.78668  38.84334
  Beta  occ. eigenvalues -- -101.85424 -19.21964 -19.21964 -19.21963  -9.75770
  Beta  occ. eigenvalues --   -7.51934  -7.51934  -7.51232  -1.29431  -1.10030
  Beta  occ. eigenvalues --   -1.10030  -0.72223  -0.60347  -0.57906  -0.57906
  Beta  occ. eigenvalues --   -0.43369  -0.43369  -0.39066  -0.39066  -0.35742
  Beta virt. eigenvalues --   -0.22764  -0.02408   0.02698   0.02698   0.19381
  Beta virt. eigenvalues --    0.24397   0.24397   0.26225   0.31251   0.31251
  Beta virt. eigenvalues --    0.31528   0.32807   0.32807   0.40258   0.41802
  Beta virt. eigenvalues --    0.41802   0.43582   0.47560   0.47560   0.53385
  Beta virt. eigenvalues --    0.66915   0.66915   0.81510   0.81510   1.02499
  Beta virt. eigenvalues --    1.33095   1.36628   1.37827   1.37827   1.42143
  Beta virt. eigenvalues --    1.42143   1.50750   1.57852   1.57852   1.64729
  Beta virt. eigenvalues --    1.76884   1.76884   1.83513   1.86591   1.86591
  Beta virt. eigenvalues --    2.02239   2.06223   2.06223   2.14430   2.16402
  Beta virt. eigenvalues --    2.16402   2.19033   2.32093   2.32093   2.39686
  Beta virt. eigenvalues --    2.39686   2.50643   2.60164   2.62431   2.62431
  Beta virt. eigenvalues --    2.69041   2.77848   2.83046   2.83046   3.42943
  Beta virt. eigenvalues --    3.50926   3.50926   3.61560   3.61560   3.87183
  Beta virt. eigenvalues --    3.91423   3.91628   3.91628   3.92102   3.92102
  Beta virt. eigenvalues --    3.92257   3.93554   3.94489   3.94489   4.13754
[...]
     1  Cl   1.352712
     2  O   -0.450880
     3  O   -0.450898
     4  O   -0.450898
 Sum of APT charges =   0.00004
 APT charges with hydrogens summed into heavy atoms:
               1
     1  Cl   1.352712
     2  O   -0.450880
     3  O   -0.450898
     4  O   -0.450898
 Electronic spatial extent (au):  <R**2>=            242.8018
 Charge=              0.0000 electrons
 Dipole moment (field-independent basis, Debye):
    X=             -0.0000    Y=             -0.0000    Z=              1.0741  Tot=              1.0741
 Quadrupole moment (field-independent basis, Debye-Ang):
   XX=            -31.1767   YY=            -31.1767   ZZ=            -26.2099
   XY=              0.0000   XZ=              0.0000   YZ=              0.0000
 Traceless Quadrupole moment (field-independent basis, Debye-Ang):
   XX=             -1.6556   YY=             -1.6556   ZZ=              3.3112
   XY=              0.0000   XZ=              0.0000   YZ=              0.0000
 Octapole moment (field-independent basis, Debye-Ang**2):
  XXX=              0.0000  YYY=             -2.2921  ZZZ=              0.6134  XYY=              0.0000
  XXY=              2.2921  XXZ=              0.3992  XZZ=              0.0000  YZZ=              0.0000
  YYZ=              0.3992  XYZ=             -0.0000
 Hexadecapole moment (field-independent basis, Debye-Ang**3):
 XXXX=           -128.1632 YYYY=           -128.1632 ZZZZ=            -27.5419 XXXY=             -0.0000
 XXXZ=             -0.0000 YYYX=              0.0000 YYYZ=             -0.4791 ZZZX=             -0.0000
 ZZZY=             -0.0000 XXYY=            -42.7211 XXZZ=            -25.2932 YYZZ=            -25.2932
 XXYZ=              0.4791 YYXZ=             -0.0000 ZZXY=              0.0000
 N-N= 1.888109400020D+02 E-N=-2.002326547785D+03  KE= 6.846111433281D+02
 Symmetry A'   KE= 5.585034566402D+02
 Symmetry A"   KE= 1.261076866878D+02
 Symmetry A'   SP= 1.000000000000D+00
 Symmetry A"   SP=-1.602675528774D-14
  Exact polarizability:  34.109   0.000  34.108   0.000  -0.000  16.176
 Approx polarizability:  65.363  -0.000  65.363   0.000   0.000  24.500
                          Isotropic Fermi Contact Couplings
        Atom                 a.u.       MegaHertz       Gauss      10(-4) cm-1
     1  Cl(35)             0.66000     289.38676     103.26039      96.52903
     2  O(17)              0.05677     -34.41090     -12.27866     -11.47824
     3  O(17)              0.05677     -34.41090     -12.27866     -11.47824
     4  O(17)              0.05677     -34.41090     -12.27866     -11.47824
 --------------------------------------------------------
       Center         ----  Spin Dipole Couplings  ----
                      3XX-RR        3YY-RR        3ZZ-RR
 --------------------------------------------------------
     1   Atom       -0.875770     -0.875770      1.751540
     2   Atom       -0.633784     -0.428665      1.062449
     3   Atom       -0.479945     -0.582504      1.062449
     4   Atom       -0.479945     -0.582504      1.062449
 --------------------------------------------------------
                        XY            XZ            YZ
 --------------------------------------------------------
     1   Atom       -0.000000     -0.000000      0.000000
     2   Atom        0.000000      0.000000     -0.604140
     3   Atom       -0.088819     -0.523200      0.302070
     4   Atom        0.088819      0.523200      0.302070
 --------------------------------------------------------


 ---------------------------------------------------------------------------------
              Anisotropic Spin Dipole Couplings in Principal Axis System
 ---------------------------------------------------------------------------------

       Atom             a.u.   MegaHertz   Gauss  10(-4) cm-1        Axes

              Baa    -0.8758   -45.836   -16.355   -15.289  0.5884  0.8086  0.0000
     1 Cl(35) Bbb    -0.8758   -45.836   -16.355   -15.289  0.8086 -0.5884  0.0000
              Bcc     1.7515    91.672    32.711    30.578 -0.0000  0.0000  1.0000
 
              Baa    -0.6427    46.506    16.595    15.513 -0.0000  0.9426  0.3340
     2 O(17)  Bbb    -0.6338    45.860    16.364    15.297  1.0000  0.0000  0.0000
              Bcc     1.2765   -92.366   -32.959   -30.810 -0.0000 -0.3340  0.9426
 
              Baa    -0.6427    46.506    16.595    15.513  0.8163 -0.4713  0.3340
     3 O(17)  Bbb    -0.6338    45.860    16.364    15.297  0.5000  0.8660 -0.0000
              Bcc     1.2765   -92.366   -32.959   -30.810 -0.2892  0.1670  0.9426
 
              Baa    -0.6427    46.506    16.595    15.513  0.8163  0.4713 -0.3340
     4 O(17)  Bbb    -0.6338    45.860    16.364    15.297 -0.5000  0.8660 -0.0000
              Bcc     1.2765   -92.366   -32.959   -30.810  0.2892  0.1670  0.9426
 

 ---------------------------------------------------------------------------------

 Calling FoFJK, ICntrl=    100127 FMM=F ISym2X=1 I1Cent= 0 IOpClX= 1 NMat=1 NMatS=1 NMatT=0.
 Full mass-weighted force constant matrix:
 Low frequencies ---   -8.2903   -8.2898   -7.4167   -0.0043    0.0298    0.0528
 Low frequencies ---  466.9258  466.9261  554.1829
 Diagonal vibrational polarizability:
        4.7876084       4.7872232       2.2848514
 Harmonic frequencies (cm**-1), IR intensities (KM/Mole), Raman scattering
 activities (A**4/AMU), depolarization ratios for plane and unpolarized
 incident light, reduced masses (AMU), force constants (mDyne/A),
 and normal coordinates:
                      1                      2                      3
                      E                      E                     A1
 Frequencies --    466.9258               466.9261               554.1829
 Red. masses --     17.1832                17.1831                21.2958
 Frc consts  --      2.2072                 2.2072                 3.8535
 IR Inten    --     14.5263                14.5258                24.2591
  Atom  AN      X      Y      Z        X      Y      Z        X      Y      Z
     1  17    -0.25   0.00   0.00     0.00   0.25   0.00    -0.00   0.00   0.53
     2   8     0.71   0.00   0.00    -0.00   0.34   0.10     0.00  -0.30  -0.39
     3   8    -0.08   0.45  -0.08    -0.45  -0.44  -0.05    -0.26   0.15  -0.39
     4   8    -0.08  -0.45   0.08     0.45  -0.44  -0.05     0.26   0.15  -0.39
                      4                      5                      6
                     A1                      E                      E
 Frequencies --    903.5405              1043.7867              1043.7898
 Red. masses --     17.1059                20.7079                20.7079
 Frc consts  --      8.2280                13.2926                13.2927
 IR Inten    --      4.8282               121.2335               121.2216
  Atom  AN      X      Y      Z        X      Y      Z        X      Y      Z
     1  17     0.00   0.00   0.24     0.50  -0.00   0.00     0.00   0.50  -0.00
     2   8    -0.00   0.53  -0.18    -0.05   0.00  -0.00    -0.00  -0.68   0.19
     3   8     0.46  -0.27  -0.18    -0.52   0.27   0.16     0.27  -0.20  -0.10
     4   8    -0.46  -0.27  -0.18    -0.52  -0.27  -0.16    -0.27  -0.20  -0.10

 -------------------
 - Thermochemistry -
 -------------------
 Temperature   298.150 Kelvin.  Pressure   1.00000 Atm.
 Atom     1 has atomic number 17 and mass  34.96885
 Atom     2 has atomic number  8 and mass  15.99491
 Atom     3 has atomic number  8 and mass  15.99491
 Atom     4 has atomic number  8 and mass  15.99491
 Molecular mass:    82.95360 amu.
 Principal axes and moments of inertia in atomic units:
                           1         2         3
     Eigenvalues --   181.94510 181.94510 344.03886
           X           -0.48829   0.87268   0.00000
           Y            0.87268   0.48829   0.00000
           Z            0.00000  -0.00000   1.00000
 This molecule is an oblate symmetric top.
 Rotational symmetry number  3.
 Rotational temperatures (Kelvin)      0.47604     0.47604     0.25176
 Rotational constants (GHZ):           9.91915     9.91915     5.24575
 Zero-point vibrational energy      26791.3 (Joules/Mol)
                                    6.40327 (Kcal/Mol)
 Warning -- explicit consideration of   3 degrees of freedom as
           vibrations may cause significant error
 Vibrational temperatures:    671.80   671.80   797.35  1299.99  1501.78
          (Kelvin)           1501.78
 
 Zero-point correction=                           0.010204 (Hartree/Particle)
 Thermal correction to Energy=                    0.013839
 Thermal correction to Enthalpy=                  0.014783
 Thermal correction to Gibbs Free Energy=        -0.015922
 Sum of electronic and zero-point Energies=           -685.695535
 Sum of electronic and thermal Energies=              -685.691900
 Sum of electronic and thermal Enthalpies=            -685.690956
 Sum of electronic and thermal Free Energies=         -685.721661
 
                     E (Thermal)             CV                S
                      KCal/Mol        Cal/Mol-Kelvin    Cal/Mol-Kelvin
 Total                    8.684             10.898             64.625
 Electronic               0.000              0.000              1.377
 Translational            0.889              2.981             39.161
 Rotational               0.889              2.981             21.764
 Vibrational              6.906              4.936              2.322
 Vibration     1          0.824              1.323              0.746
 Vibration     2          0.824              1.323              0.746
 Vibration     3          0.910              1.131              0.536
                       Q            Log10(Q)             Ln(Q)
 Total Bot       0.210746D+08          7.323759         16.863577
 Total V=0       0.104085D+13         12.017388         27.671058
 Vib (Bot)       0.278646D-04         -4.554947        -10.488152
 Vib (Bot)    1  0.362178D+00         -0.441078         -1.015620
 Vib (Bot)    2  0.362177D+00         -0.441079         -1.015621
 Vib (Bot)    3  0.282040D+00         -0.549690         -1.265708
 Vib (V=0)       0.137620D+01          0.138683          0.319328
 Vib (V=0)    1  0.111739D+01          0.048205          0.110997
 Vib (V=0)    2  0.111739D+01          0.048205          0.110997
 Vib (V=0)    3  0.107406D+01          0.031029          0.071447
 Electronic      0.200000D+01          0.301030          0.693147
 Translational   0.296966D+08          7.472707         17.206543
 Rotational      0.127341D+05          4.104968          9.452039
 ***** Axes restored to original set *****
 -------------------------------------------------------------------
 Center     Atomic                   Forces (Hartrees/Bohr)
 Number     Number              X              Y              Z
 -------------------------------------------------------------------
      1       17          -0.000000000    0.000000000    0.000046257
      2        8           0.000000000    0.000042150   -0.000015419
      3        8           0.000036503   -0.000021075   -0.000015419
      4        8          -0.000036503   -0.000021075   -0.000015419
 -------------------------------------------------------------------
 Cartesian Forces:  Max     0.000046257 RMS     0.000026113
 FormGI is forming the generalized inverse of G from B-inverse, IUseBI=4.

 GradGradGradGradGradGradGradGradGradGradGradGradGradGradGradGradGradGrad
 Berny optimization.
 Internal  Forces:  Max     0.000044680 RMS     0.000029594
 Search for a local minimum.
 Step number   1 out of a maximum of    2
 All quantities printed in internal units (Hartrees-Bohrs-Radians)
 Second derivative matrix not updated -- analytic derivatives used.
 The second derivative matrix:
                          R1        R2        R3        A1        A2
           R1           0.41537
           R2           0.01694   0.41537
           R3           0.01694   0.01694   0.41537
           A1           0.00762   0.00762  -0.01503   0.14182
           A2           0.01128  -0.01493   0.01370  -0.09644   0.24562
           A3          -0.01493   0.01128   0.01370  -0.09644  -0.03931
           D1           0.00764   0.00765   0.00525   0.01653   0.06445
                          A3        D1
           A3           0.24562
           D1           0.06445   0.15440
 ITU=  0
     Eigenvalues ---    0.16483   0.27917   0.32838   0.40419   0.40638
     Eigenvalues ---    0.45062
 Angle between quadratic step and forces=  13.20 degrees.
 Linear search not attempted -- first point.
 Iteration  1 RMS(Cart)=  0.00006035 RMS(Int)=  0.00000000
 Iteration  2 RMS(Cart)=  0.00000000 RMS(Int)=  0.00000000
 ClnCor:  largest displacement from symmetrization is 1.68D-09 for atom     3.
 Variable       Old X    -DE/DX   Delta X   Delta X   Delta X     New X
                                 (Linear)    (Quad)   (Total)
    R1        2.76775   0.00004   0.00000   0.00010   0.00010   2.76785
    R2        2.76775   0.00004   0.00000   0.00010   0.00010   2.76785
    R3        2.76775   0.00004   0.00000   0.00010   0.00010   2.76785
    A1        1.98659  -0.00000   0.00000  -0.00002  -0.00002   1.98657
    A2        1.98659  -0.00000   0.00000  -0.00002  -0.00002   1.98657
    A3        1.98659  -0.00000   0.00000  -0.00002  -0.00002   1.98657
    D1        2.31532  -0.00001   0.00000  -0.00006  -0.00006   2.31525
         Item               Value     Threshold  Converged?
 Maximum Force            0.000045     0.000450     YES
 RMS     Force            0.000030     0.000300     YES
 Maximum Displacement     0.000082     0.001800     YES
 RMS     Displacement     0.000060     0.001200     YES
 Predicted change in Energy=-7.124294D-09
 Optimization completed.
    -- Stationary point found.
                           ----------------------------
                           !   Optimized Parameters   !
                           ! (Angstroms and Degrees)  !
 --------------------------                            --------------------------
 ! Name  Definition              Value          Derivative Info.                !
 --------------------------------------------------------------------------------
 ! R1    R(1,2)                  1.4646         -DE/DX =    0.0                 !
 ! R2    R(1,3)                  1.4646         -DE/DX =    0.0                 !
 ! R3    R(1,4)                  1.4646         -DE/DX =    0.0                 !
 ! A1    A(2,1,3)              113.8233         -DE/DX =    0.0                 !
 ! A2    A(2,1,4)              113.8233         -DE/DX =    0.0                 !
 ! A3    A(3,1,4)              113.8233         -DE/DX =    0.0                 !
 ! D1    D(2,1,4,3)            132.6578         -DE/DX =    0.0                 !
 --------------------------------------------------------------------------------
 GradGradGradGradGradGradGradGradGradGradGradGradGradGradGradGradGradGrad


 ----------------------------------------------------------------------

 Electric dipole moment (input orientation):
 (Debye = 10**-18 statcoulomb cm , SI units = C m)
                  (au)            (Debye)         (10**-30 SI)
   Tot        0.422603D+00      0.107415D+01      0.358297D+01
   x          0.000000D+00      0.000000D+00      0.000000D+00
   y          0.000000D+00      0.000000D+00      0.000000D+00
   z          0.422603D+00      0.107415D+01      0.358297D+01

 Dipole polarizability, Alpha (input orientation).
 (esu units = cm**3 , SI units = C**2 m**2 J**-1)
 Alpha(0;0):
               (au)            (10**-24 esu)      (10**-40 SI)
   iso        0.281309D+02      0.416857D+01      0.463816D+01
   aniso      0.179323D+02      0.265729D+01      0.295663D+01
   xx         0.341086D+02      0.505437D+01      0.562374D+01
   yx         0.000000D+00      0.000000D+00      0.000000D+00
   yy         0.341081D+02      0.505430D+01      0.562367D+01
   zx         0.000000D+00      0.000000D+00      0.000000D+00
   zy        -0.110788D-03     -0.164171D-04     -0.182665D-04
   zz         0.161761D+02      0.239705D+01      0.266707D+01

 ----------------------------------------------------------------------

 Dipole orientation:
    17         -0.00000000         -0.00000037          0.41248036
     8          0.00000052          2.67763947         -0.28801493
     8          2.31890386         -1.33882073         -0.28801493
     8         -2.31890438         -1.33881984         -0.28801493

 Electric dipole moment (dipole orientation):
 (Debye = 10**-18 statcoulomb cm , SI units = C m)
                  (au)            (Debye)         (10**-30 SI)
   Tot        0.422603D+00      0.107415D+01      0.358297D+01
   x          0.000000D+00      0.000000D+00      0.000000D+00
   y          0.000000D+00      0.000000D+00      0.000000D+00
   z          0.422603D+00      0.107415D+01      0.358297D+01

 Dipole polarizability, Alpha (dipole orientation).
 (esu units = cm**3 , SI units = C**2 m**2 J**-1)
 Alpha(0;0):
               (au)            (10**-24 esu)      (10**-40 SI)
   iso        0.281309D+02      0.416857D+01      0.463816D+01
   aniso      0.179323D+02      0.265729D+01      0.295663D+01
   xx         0.341086D+02      0.505437D+01      0.562374D+01
   yx         0.000000D+00      0.000000D+00      0.000000D+00
   yy         0.341081D+02      0.505430D+01      0.562367D+01
   zx         0.000000D+00      0.000000D+00      0.000000D+00
   zy        -0.110788D-03     -0.164171D-04     -0.182665D-04
   zz         0.161761D+02      0.239705D+01      0.266707D+01

 ----------------------------------------------------------------------
 1\1\GINC-GAMBA\Freq\UB3LYP\Gen\Cl1O3(2)\IRIKURA\16-Jun-2022\0\\#N Geom
 =AllCheck Guess=TCheck SCRF=Check GenChk UB3LYP/ChkBas Freq\\chlorine 
 trioxide, B3LYP/pcseg-2\\0,2\Cl,0.,-0.0000001951,0.2182752042\O,0.0000
 002729,1.416945785,-0.1524109392\O,1.2271110781,-0.7084734215,-0.15241
 09392\O,-1.227111351,-0.7084729488,-0.1524109392\\Version=ES64L-G16Rev
 B.01\State=2-A1\HF=-685.7057392\S2=0.75751\S2-1=0.\S2A=0.750042\RMSD=1
 .717e-09\RMSF=2.611e-05\ZeroPoint=0.0102043\Thermal=0.0138388\Dipole=0
 .,0.,0.4226027\DipoleDeriv=1.6412134,0.,0.,0.,1.6411216,0.0000048,0.,0
 .0000309,0.7758002,-0.4008139,0.,0.,0.,-0.6932275,-0.0209814,0.,0.1809
 839,-0.2585974,-0.6201619,0.1266425,-0.01817,0.1266403,-0.4739322,0.01
 04895,0.156747,-0.0904997,-0.2585994,-0.620162,-0.1266425,0.01817,-0.1
 266403,-0.4739321,0.0104895,-0.156747,-0.0904997,-0.2585994\Polar=34.1
 085755,0.,34.1080966,0.,-0.0001108,16.1760684\Quadrupole=-1.2308848,-1
 .2308848,2.4617696,0.,0.,0.\PG=C03V [C3(Cl1),3SGV(O1)]\NImag=0\\0.6414
 9936,0.,0.64150841,0.,-0.00000505,0.31576465,-0.07305007,-0.00000005,0
 .00000002,0.06237486,-0.00000005,-0.35462652,0.08108009,0.00000006,0.3
 9356016,0.00000002,0.11191482,-0.10525628,-0.00000002,-0.08888969,0.05
 457996,-0.28422848,0.12192322,0.07021567,0.00533800,0.01001440,-0.0021
 3761,0.31076378,0.12192450,-0.14344261,-0.04053880,0.03294947,-0.01946
 722,-0.01151236,-0.14340747,0.14517124,0.09691964,-0.05595617,-0.10525
 523,-0.01103880,0.00390496,0.02533816,-0.07698072,0.04444486,0.0545799
 6,-0.28422857,-0.12192316,-0.07021568,0.00533799,-0.01001441,0.0021376
 1,-0.03186982,-0.01146752,-0.00890119,0.31076389,-0.12192444,-0.143442
 51,-0.04053877,-0.03294948,-0.01946720,-0.01151236,0.01146754,0.017740
 60,0.00760741,0.14340741,0.14517113,-0.09691966,-0.05595613,-0.1052552
 3,0.01103880,0.00390496,0.02533816,0.00890120,0.00760740,0.02533816,0.
 07698074,0.04444483,0.05457996\\0.,0.,-0.00004626,0.,-0.00004215,0.000
 01542,-0.00003650,0.00002107,0.00001542,0.00003650,0.00002107,0.000015
 42\\\@


 YOU WILL NEVER "FIND" TIME FOR ANYTHING.
 IF YOU WANT TIME, YOU MUST MAKE IT.

                        -- CHARLES BIXTON
 Job cpu time:       0 days  0 hours  3 minutes 23.4 seconds.
 Elapsed time:       0 days  0 hours  0 minutes 17.1 seconds.
 File lengths (MBytes):  RWF=     16 Int=      0 D2E=      0 Chk=      3 Scr=      1
 Normal termination of Gaussian 16 at Thu Jun 16 13:38:47 2022.
