 Entering Gaussian System, Link 0=g16
 AtFile(1): pcseg2.gbs
            -H     0
            S   4   1.00
                  0.754732D+02           0.427821D-02
                  0.113575D+02           0.328672D-01
                  0.260081D+01           0.159578D+00
                  0.735503D+00           0.500000D+00
            S   1   1.00
                  0.231761D+00           1.0000000
            S   1   1.00
                  0.741675D-01           1.0000000
            P   1   1.00
                  0.160000D+01           1.0000000
            P   1   1.00
                  0.450000D+00           1.0000000
            D   1   1.00
                  0.125000D+01           1.0000000
            ****
            -C     0
            S   7   1.00
                  0.731999D+04           0.695369D-03
                  0.109818D+04           0.537138D-02
                  0.250014D+03           0.274734D-01
                  0.707586D+02           0.105078D+00
                  0.228595D+02           0.291262D+00
                  0.803936D+01           0.500000D+00
                  0.289309D+01           0.362224D+00
            S   2   1.00
                  0.521640D+01          -0.957844D-01
                  0.556124D+00           0.500000D+00
            S   1   1.00
                  0.228813D+00           1.0000000
            S   1   1.00
                  0.936338D-01           1.0000000
            P   4   1.00
                  0.339855D+02           0.818395D-02
                  0.772957D+01           0.586921D-01
                  0.224954D+01           0.222514D+00
                  0.767681D+00           0.500000D+00
            P   1   1.00
                  0.263283D+00           1.0000000
            P   1   1.00
                  0.848744D-01           1.0000000
            D   1   1.00
                  0.140000D+01           1.0000000
            D   1   1.00
                  0.450000D+00           1.0000000
            F   1   1.00
                  0.950000D+00           1.0000000
            ****
            -O     0
            S   7   1.00
                  0.135887D+05           0.665492D-03
                  0.203847D+04           0.514222D-02
                  0.464041D+03           0.263472D-01
                  0.131339D+03           0.101500D+00
                  0.425340D+02           0.285877D+00
                  0.150429D+02           0.500000D+00
                  0.546616D+01           0.368211D+00
            S   2   1.00
                  0.100915D+02          -0.100084D+00
                  0.110429D+01           0.500000D+00
            S   1   1.00
                  0.448082D+00           1.0000000
            S   1   1.00
                  0.175325D+00           1.0000000
            P   4   1.00
                  0.608220D+02           0.908253D-02
                  0.140332D+02           0.645878D-01
                  0.418244D+01           0.241502D+00
                  0.142490D+01           0.500000D+00
            P   1   1.00
                  0.478741D+00           1.0000000
            P   1   1.00
                  0.146257D+00           1.0000000
            D   1   1.00
                  0.220000D+01           1.0000000
            D   1   1.00
                  0.650000D+00           1.0000000
            F   1   1.00
                  0.110000D+01           1.0000000
            ****
            -N     0
            S   7   1.00
                  0.101643D+05           0.682757D-03
                  0.152481D+04           0.527488D-02
                  0.347119D+03           0.270037D-01
                  0.982389D+02           0.103673D+00
                  0.317799D+02           0.289575D+00
                  0.112240D+02           0.500000D+00
                  0.406611D+01           0.364621D+00
            S   2   1.00
                  0.747898D+01          -0.975681D-01
                  0.805040D+00           0.500000D+00
            S   1   1.00
                  0.324626D+00           1.0000000
            S   1   1.00
                  0.128132D+00           1.0000000
            P   4   1.00
                  0.482704D+02           0.829547D-02
                  0.110815D+02           0.596223D-01
                  0.326643D+01           0.227889D+00
                  0.111680D+01           0.500000D+00
            P   1   1.00
                  0.382049D+00           1.0000000
            P   1   1.00
                  0.121222D+00           1.0000000
            D   1   1.00
                  0.180000D+01           1.0000000
            D   1   1.00
                  0.550000D+00           1.0000000
            F   1   1.00
                  0.102000D+01           1.0000000
            ****
            -F     0
            S   7   1.00
                  0.174507D+05           0.655972D-03
                  0.261768D+04           0.506944D-02
                  0.595857D+03           0.259899D-01
                  0.168651D+03           0.100353D+00
                  0.546654D+02           0.284095D+00
                  0.193717D+02           0.500000D+00
                  0.706202D+01           0.370721D+00
            S   2   1.00
                  0.131197D+02          -0.101997D+00
                  0.145046D+01           0.500000D+00
            S   1   1.00
                  0.588255D+00           1.0000000
            S   1   1.00
                  0.227960D+00           1.0000000
            P   4   1.00
                  0.779407D+02           0.931135D-02
                  0.180425D+02           0.663964D-01
                  0.542342D+01           0.246386D+00
                  0.184876D+01           0.500000D+00
            P   1   1.00
                  0.617455D+00           1.0000000
            P   1   1.00
                  0.185496D+00           1.0000000
            D   1   1.00
                  0.280000D+01           1.0000000
            D   1   1.00
                  0.800000D+00           1.0000000
            F   1   1.00
                  0.120000D+01           1.0000000
            ****
            -Cl     0
            S   8   1.00
                  0.154272D+06           0.222473D-03
                  0.231232D+05           0.172590D-02
                  0.526257D+04           0.899286D-02
                  0.148995D+04           0.367724D-01
                  0.485417D+03           0.121446D+00
                  0.174634D+03           0.304148D+00
                  0.672393D+02           0.500000D+00
                  0.265780D+02           0.360252D+00
            S   3   1.00
                  0.131826D+03          -0.531330D-01
                  0.400703D+02          -0.233346D+00
                  0.789448D+01           0.500000D+00
            S   2   1.00
                  0.427711D+01           0.500000D+00
                  0.196233D+01           0.370517D+00
            S   1   1.00
                  0.520793D+00           1.0000000
            S   1   1.00
                  0.181633D+00           1.0000000
            P   7   1.00
                  0.124440D+04           0.988206D-03
                  0.295109D+03           0.829674D-02
                  0.947224D+02           0.430906D-01
                  0.352588D+02           0.148443D+00
                  0.144211D+02           0.344744D+00
                  0.610371D+01           0.500000D+00
                  0.258886D+01           0.348278D+00
            P   2   1.00
                  0.109447D+02          -0.196768D-01
                  0.104413D+01           0.500000D+00
            P   1   1.00
                  0.376184D+00           1.0000000
            P   1   1.00
                  0.120613D+00           1.0000000
            D   1   1.00
                  0.231000D+01           1.0000000
            D   1   1.00
                  0.520000D+00           1.0000000
            F   1   1.00
                  0.720000D+00           1.0000000
            ****
            -S     0
            S   8   1.00
                  0.134700D+06           0.226231D-03
                  0.201904D+05           0.175488D-02
                  0.459528D+04           0.914190D-02
                  0.130109D+04           0.373551D-01
                  0.423902D+03           0.123121D+00
                  0.152485D+03           0.306801D+00
                  0.586925D+02           0.500000D+00
                  0.231461D+02           0.354358D+00
            S   3   1.00
                  0.116327D+03          -0.491772D-01
                  0.352841D+02          -0.215962D+00
                  0.677831D+01           0.500000D+00
            S   2   1.00
                  0.360404D+01           0.500000D+00
                  0.164871D+01           0.366278D+00
            S   1   1.00
                  0.421821D+00           1.0000000
            S   1   1.00
                  0.147554D+00           1.0000000
            P   7   1.00
                  0.104863D+04           0.105273D-02
                  0.248717D+03           0.879338D-02
                  0.797887D+02           0.453358D-01
                  0.296023D+02           0.154476D+00
                  0.120627D+02           0.352366D+00
                  0.507628D+01           0.500000D+00
                  0.213375D+01           0.346429D+00
            P   2   1.00
                  0.928958D+01          -0.185932D-01
                  0.837819D+00           0.500000D+00
            P   1   1.00
                  0.301495D+00           1.0000000
            P   1   1.00
                  0.974740D-01           1.0000000
            D   1   1.00
                  0.210000D+01           1.0000000
            D   1   1.00
                  0.480000D+00           1.0000000
            F   1   1.00
                  0.660000D+00           1.0000000
            ****
            -Br     0
            S    10   1.00
                  0.233625D+07           0.532336D-04
                  0.349961D+06           0.413715D-03
                  0.796444D+05           0.217123D-02
                  0.225555D+05           0.910109D-02
                  0.735546D+04           0.323789D-01
                  0.265352D+04           0.988755D-01
                  0.103517D+04           0.248138D+00
                  0.422205D+03           0.474328D+00
                  0.180035D+03           0.500000D+00
                  0.793308D+02           0.187769D+00
            S    4   1.00
                  0.620834D+03          -0.226511D-01
                  0.190829D+03          -0.109497D+00
                  0.312505D+02           0.500000D+00
                  0.135270D+02           0.492812D+00
            S    2   1.00
                  0.216097D+02          -0.165418D+00
                  0.372566D+01           0.500000D+00
            S    1   1.00
                  0.169770D+01           1.0000000
            S    1   1.00
                  0.489332D+00           1.0000000
            S    1   1.00
                  0.175712D+00           1.0000000
            P    8   1.00
                  0.960829D+04           0.478974D-03
                  0.227618D+04           0.417853D-02
                  0.736723D+03           0.229315D-01
                  0.281579D+03           0.892653D-01
                  0.118395D+03           0.255288D+00
                  0.527481D+02           0.479074D+00
                  0.245098D+02           0.500000D+00
                  0.112009D+02           0.200944D+00
            P    4   1.00
                  0.587849D+02          -0.189674D-01
                  0.918962D+01           0.264104D+00
                  0.413895D+01           0.500000D+00
                  0.184225D+01           0.319316D+00
            P    1   1.00
                  0.713862D+00           1.0000000
            P    1   1.00
                  0.274232D+00           1.0000000
            P    1   1.00
                  0.944411D-01           1.0000000
            D    7   1.00
                  0.398470D+03           0.204066D-02
                  0.118967D+03           0.175171D-01
                  0.450197D+02           0.829708D-01
                  0.190320D+02           0.236284D+00
                  0.855686D+01           0.428468D+00
                  0.382950D+01           0.500000D+00
                  0.166291D+01           0.349360D+00
            D    1   1.00
                  0.672953D+00           1.0000000
            D    1   1.00
                  0.252000D+00           1.0000000
            F    1   1.00
                  0.530000D+00           1.0000000
            ****
            -Si     0
            S    8   1.00
                  0.996133D+05           0.235546D-03
                  0.149311D+05           0.182707D-02
                  0.339820D+04           0.951425D-02
                  0.962140D+03           0.388172D-01
                  0.313430D+03           0.127328D+00
                  0.112683D+03           0.313522D+00
                  0.433372D+02           0.500000D+00
                  0.170029D+02           0.340347D+00
            S    3   1.00
                  0.884208D+02          -0.404451D-01
                  0.266756D+02          -0.178059D+00
                  0.479640D+01           0.500000D+00
            S    2   1.00
                  0.239385D+01           0.500000D+00
                  0.108333D+01           0.338016D+00
            S    1   1.00
                  0.252420D+00           1.0000000
            S    1   1.00
                  0.891210D-01           1.0000000
            P    7   1.00
                  0.709901D+03           0.123028D-02
                  0.168426D+03           0.101366D-01
                  0.539946D+02           0.511840D-01
                  0.198646D+02           0.169967D+00
                  0.801369D+01           0.370717D+00
                  0.331870D+01           0.500000D+00
                  0.136112D+01           0.344128D+00
            P    2   1.00
                  0.622158D+01          -0.166609D-01
                  0.503049D+00           0.500000D+00
            P    1   1.00
                  0.179848D+00           1.0000000
            P    1   1.00
                  0.591912D-01           1.0000000
            D    1   1.00
                  0.168000D+01           1.0000000
            D    1   1.00
                  0.380000D+00           1.0000000
            F    1   1.00
                  0.540000D+00           1.0000000
            ****
            -P     0
            S    8   1.00
                  0.116416D+06           0.230715D-03
                  0.174500D+05           0.178960D-02
                  0.397149D+04           0.932116D-02
                  0.112447D+04           0.380591D-01
                  0.366347D+03           0.125148D+00
                  0.131757D+03           0.310022D+00
                  0.506988D+02           0.500000D+00
                  0.199436D+02           0.347528D+00
            S    3   1.00
                  0.101878D+03          -0.446755D-01
                  0.308249D+02          -0.196376D+00
                  0.573688D+01           0.500000D+00
            S    2   1.00
                  0.296868D+01           0.500000D+00
                  0.135315D+01           0.355098D+00
            S    1   1.00
                  0.332196D+00           1.0000000
            S    1   1.00
                  0.116229D+00           1.0000000
            P    7   1.00
                  0.873928D+03           0.112375D-02
                  0.207298D+03           0.933330D-02
                  0.664628D+02           0.477213D-01
                  0.245665D+02           0.160733D+00
                  0.996820D+01           0.359760D+00
                  0.416536D+01           0.500000D+00
                  0.173022D+01           0.346593D+00
            P    2   1.00
                  0.772530D+01          -0.175718D-01
                  0.657252D+00           0.500000D+00
            P    1   1.00
                  0.239903D+00           1.0000000
            P    1   1.00
                  0.800988D-01           1.0000000
            D    1   1.00
                  0.189000D+01           1.0000000
            D    1   1.00
                  0.430000D+00           1.0000000
            F    1   1.00
                  0.600000D+00           1.0000000
            ****
            
 Initial command:
 /usr/local/apps/g16_b01_avx/g16/l1.exe "/wrk/irikura/Gau-7074.inp" -scrdir="/wrk/irikura/"
 Entering Link 1 = /usr/local/apps/g16_b01_avx/g16/l1.exe PID=      7076.
  
 Copyright (c) 1988-2017, Gaussian, Inc.  All Rights Reserved.
  
 This is part of the Gaussian(R) 16 program.  It is based on
 the Gaussian(R) 09 system (copyright 2009, Gaussian, Inc.),
 the Gaussian(R) 03 system (copyright 2003, Gaussian, Inc.),
 the Gaussian(R) 98 system (copyright 1998, Gaussian, Inc.),
 the Gaussian(R) 94 system (copyright 1995, Gaussian, Inc.),
 the Gaussian 92(TM) system (copyright 1992, Gaussian, Inc.),
 the Gaussian 90(TM) system (copyright 1990, Gaussian, Inc.),
 the Gaussian 88(TM) system (copyright 1988, Gaussian, Inc.),
 the Gaussian 86(TM) system (copyright 1986, Carnegie Mellon
 University), and the Gaussian 82(TM) system (copyright 1983,
 Carnegie Mellon University). Gaussian is a federally registered
 trademark of Gaussian, Inc.
  
 This software contains proprietary and confidential information,
 including trade secrets, belonging to Gaussian, Inc.
  
 This software is provided under written license and may be
 used, copied, transmitted, or stored only in accord with that
 written license.
  
 The following legend is applicable only to US Government
 contracts under FAR:
  
                    RESTRICTED RIGHTS LEGEND
  
 Use, reproduction and disclosure by the US Government is
 subject to restrictions as set forth in subparagraphs (a)
 and (c) of the Commercial Computer Software - Restricted
 Rights clause in FAR 52.227-19.
  
 Gaussian, Inc.
 340 Quinnipiac St., Bldg. 40, Wallingford CT 06492
  
  
 ---------------------------------------------------------------
 Warning -- This program may not be used in any manner that
 competes with the business of Gaussian, Inc. or will provide
 assistance to any competitor of Gaussian, Inc.  The licensee
 of this program is prohibited from giving any competitor of
 Gaussian, Inc. access to this program.  By using this program,
 the user acknowledges that Gaussian, Inc. is engaged in the
 business of creating and licensing software in the field of
 computational chemistry and represents and warrants to the
 licensee that it is not a competitor of Gaussian, Inc. and that
 it will not use this program in any manner prohibited above.
 ---------------------------------------------------------------
  

 Cite this work as:
 Gaussian 16, Revision B.01,
 M. J. Frisch, G. W. Trucks, H. B. Schlegel, G. E. Scuseria, 
 M. A. Robb, J. R. Cheeseman, G. Scalmani, V. Barone, 
 G. A. Petersson, H. Nakatsuji, X. Li, M. Caricato, A. V. Marenich, 
 J. Bloino, B. G. Janesko, R. Gomperts, B. Mennucci, H. P. Hratchian, 
 J. V. Ortiz, A. F. Izmaylov, J. L. Sonnenberg, D. Williams-Young, 
 F. Ding, F. Lipparini, F. Egidi, J. Goings, B. Peng, A. Petrone, 
 T. Henderson, D. Ranasinghe, V. G. Zakrzewski, J. Gao, N. Rega, 
 G. Zheng, W. Liang, M. Hada, M. Ehara, K. Toyota, R. Fukuda, 
 J. Hasegawa, M. Ishida, T. Nakajima, Y. Honda, O. Kitao, H. Nakai, 
 T. Vreven, K. Throssell, J. A. Montgomery, Jr., J. E. Peralta, 
 F. Ogliaro, M. J. Bearpark, J. J. Heyd, E. N. Brothers, K. N. Kudin, 
 V. N. Staroverov, T. A. Keith, R. Kobayashi, J. Normand, 
 K. Raghavachari, A. P. Rendell, J. C. Burant, S. S. Iyengar, 
 J. Tomasi, M. Cossi, J. M. Millam, M. Klene, C. Adamo, R. Cammi, 
 J. W. Ochterski, R. L. Martin, K. Morokuma, O. Farkas, 
 J. B. Foresman, and D. J. Fox, Gaussian, Inc., Wallingford CT, 2016.
 
 ******************************************
 Gaussian 16:  ES64L-G16RevB.01 20-Dec-2017
                15-Jun-2022 
 ******************************************
 %mem=500mw
 %nprocs=4
 Will use up to    4 processors via shared memory.
 --------------------
 # b3lyp/gen opt freq
 --------------------
 1/18=20,19=15,26=3,38=1/1,3;
 2/9=110,12=2,17=6,18=5,40=1/2;
 3/5=7,11=2,25=1,30=1,71=1,74=-5/1,2,3;
 4//1;
 5/5=2,38=5/2;
 6/7=2,8=2,9=2,10=2,28=1/1;
 7//1,2,3,16;
 1/18=20,19=15,26=3/3(2);
 2/9=110/2;
 99//99;
 2/9=110/2;
 3/5=7,6=1,11=2,25=1,30=1,71=1,74=-5,82=7/1,2,3;
 4/5=5,16=3,69=1/1;
 5/5=2,38=5/2;
 7//1,2,3,16;
 1/18=20,19=15,26=3/3(-5);
 2/9=110/2;
 6/7=2,8=2,9=2,10=2,19=2,28=1/1;
 99/9=1/99;
 ------------------
 ClO, B3LYP/pcseg-2
 ------------------
 Symbolic Z-matrix:
 Charge =  0 Multiplicity = 2
 Cl
 O                    1    r
       Variables:
  r                     1.5                      
 

 GradGradGradGradGradGradGradGradGradGradGradGradGradGradGradGradGradGrad
 Berny optimization.
 Initialization pass.
                           ----------------------------
                           !    Initial Parameters    !
                           ! (Angstroms and Degrees)  !
 --------------------------                            --------------------------
 ! Name  Definition              Value          Derivative Info.                !
 --------------------------------------------------------------------------------
 ! R1    R(1,2)                  1.5            estimate D2E/DX2                !
 --------------------------------------------------------------------------------
 Trust Radius=3.00D-01 FncErr=1.00D-07 GrdErr=1.00D-06 EigMax=2.50D+02 EigMin=1.00D-04
 Number of steps in this run=     20 maximum allowed number of steps=    100.
 GradGradGradGradGradGradGradGradGradGradGradGradGradGradGradGradGradGrad

                          Input orientation:                          
 ---------------------------------------------------------------------
 Center     Atomic      Atomic             Coordinates (Angstroms)
 Number     Number       Type             X           Y           Z
 ---------------------------------------------------------------------
      1         17           0        0.000000    0.000000    0.000000
      2          8           0        0.000000    0.000000    1.500000
 ---------------------------------------------------------------------
 Stoichiometry    ClO(2)
 Framework group  C*V[C*(OCl)]
 Deg. of freedom     1
 Full point group                 C*V     NOp   4
 Largest Abelian subgroup         C2V     NOp   4
 Largest concise Abelian subgroup C1      NOp   1
                         Standard orientation:                         
 ---------------------------------------------------------------------
 Center     Atomic      Atomic             Coordinates (Angstroms)
 Number     Number       Type             X           Y           Z
 ---------------------------------------------------------------------
      1         17           0        0.000000    0.000000    0.480000
      2          8           0        0.000000    0.000000   -1.020000
 ---------------------------------------------------------------------
 Rotational constants (GHZ):           0.0000000          20.4659965          20.4659965
 General basis read from cards:  (5D, 7F)
 There are    34 symmetry adapted cartesian basis functions of A1  symmetry.
 There are     6 symmetry adapted cartesian basis functions of A2  symmetry.
 There are    17 symmetry adapted cartesian basis functions of B1  symmetry.
 There are    17 symmetry adapted cartesian basis functions of B2  symmetry.
 There are    28 symmetry adapted basis functions of A1  symmetry.
 There are     6 symmetry adapted basis functions of A2  symmetry.
 There are    15 symmetry adapted basis functions of B1  symmetry.
 There are    15 symmetry adapted basis functions of B2  symmetry.
    64 basis functions,   121 primitive gaussians,    74 cartesian basis functions
    13 alpha electrons       12 beta electrons
       nuclear repulsion energy        47.9787337901 Hartrees.
 NAtoms=    2 NActive=    2 NUniq=    2 SFac= 1.00D+00 NAtFMM=   60 NAOKFM=F Big=F
 Integral buffers will be    131072 words long.
 Raffenetti 2 integral format.
 Two-electron integral symmetry is turned on.
 One-electron integrals computed using PRISM.
 NBasis=    64 RedAO= T EigKep=  7.04D-03  NBF=    28     6    15    15
 NBsUse=    64 1.00D-06 EigRej= -1.00D+00 NBFU=    28     6    15    15
 ExpMin= 1.21D-01 ExpMax= 1.54D+05 ExpMxC= 1.49D+03 IAcc=3 IRadAn=         5 AccDes= 0.00D+00
 Harris functional with IExCor=  402 and IRadAn=       5 diagonalized for initial guess.
 HarFok:  IExCor=  402 AccDes= 0.00D+00 IRadAn=         5 IDoV= 1 UseB2=F ITyADJ=14
 ICtDFT=  3500011 ScaDFX=  1.000000  1.000000  1.000000  1.000000
 FoFCou: FMM=F IPFlag=           0 FMFlag=      100000 FMFlg1=           0
         NFxFlg=           0 DoJE=T BraDBF=F KetDBF=T FulRan=T
         wScrn=  0.000000 ICntrl=       500 IOpCl=  0 I1Cent=   200000004 NGrid=           0
         NMat0=    1 NMatS0=      1 NMatT0=    0 NMatD0=    1 NMtDS0=    0 NMtDT0=    0
 Petite list used in FoFCou.
 Initial guess orbital symmetries:
 Alpha Orbitals:
       Occupied  (SG) (SG) (SG) (SG) (PI) (PI) (SG) (SG) (SG) (PI)
                 (PI) (PI) (PI)
       Virtual   (SG) (SG) (PI) (PI) (SG) (PI) (PI) (SG) (DLTA)
                 (DLTA) (PI) (PI) (SG) (SG) (DLTA) (DLTA) (PI)
                 (PI) (SG) (PI) (PI) (PHI) (PHI) (DLTA) (DLTA)
                 (PI) (PI) (SG) (SG) (PI) (PI) (SG) (SG) (DLTA)
                 (DLTA) (PI) (PI) (PHI) (PHI) (DLTA) (DLTA) (SG)
                 (PI) (PI) (SG) (DLTA) (DLTA) (PI) (PI) (SG) (SG)
 Beta  Orbitals:
       Occupied  (SG) (SG) (SG) (SG) (PI) (PI) (SG) (SG) (SG) (PI)
                 (PI) (PI)
       Virtual   (PI) (SG) (SG) (PI) (PI) (SG) (PI) (PI) (SG) (DLTA)
                 (DLTA) (PI) (PI) (SG) (SG) (DLTA) (DLTA) (PI)
                 (PI) (SG) (PI) (PI) (PHI) (PHI) (DLTA) (DLTA)
                 (PI) (PI) (SG) (SG) (PI) (PI) (SG) (SG) (DLTA)
                 (DLTA) (PI) (PI) (PHI) (PHI) (DLTA) (DLTA) (SG)
                 (PI) (PI) (SG) (DLTA) (DLTA) (PI) (PI) (SG) (SG)
 Initial guess <Sx>= 0.0000 <Sy>= 0.0000 <Sz>= 0.5000 <S**2>= 0.7500 S= 0.5000
 Keep R1 and R2 ints in memory in symmetry-blocked form, NReq=5761560.
 Requested convergence on RMS density matrix=1.00D-08 within 128 cycles.
 Requested convergence on MAX density matrix=1.00D-06.
 Requested convergence on             energy=1.00D-06.
 No special actions if energy rises.
 Integral accuracy reduced to 1.0D-05 until final iterations.
 Initial convergence to 1.0D-05 achieved.  Increase integral accuracy.
 SCF Done:  E(UB3LYP) =  -535.370367978     A.U. after   14 cycles
            NFock= 14  Conv=0.27D-08     -V/T= 2.0008
 <Sx>= 0.0000 <Sy>= 0.0000 <Sz>= 0.5000 <S**2>= 0.7545 S= 0.5023
 <L.S>=  0.00000000000    
 Annihilation of the first spin contaminant:
 S**2 before annihilation     0.7545,   after     0.7500

 **********************************************************************

            Population analysis using the SCF Density.

 **********************************************************************

 Orbital symmetries:
 Alpha Orbitals:
       Occupied  (SG) (SG) (SG) (SG) (PI) (PI) (SG) (SG) (?A) (SG)
                 (?A) (?A) (?A)
       Virtual   (SG) (SG) (PI) (PI) (SG) (PI) (PI) (SG) (DLTA)
                 (DLTA) (PI) (PI) (SG) (SG) (DLTA) (DLTA) (PI)
                 (PI) (SG) (?B) (?B) (?B) (?C) (?C) (?B) (?B) (?B)
                 (?C) (SG) (PI) (PI) (SG) (SG) (DLTA) (DLTA) (PI)
                 (PI) (PHI) (PHI) (?D) (?D) (?D) (PI) (PI) (SG)
                 (?E) (?E) (PI) (PI) (?E) (SG)
 Beta  Orbitals:
       Occupied  (SG) (SG) (SG) (SG) (PI) (PI) (SG) (SG) (SG) (?A)
                 (?A) (?A)
       Virtual   (?A) (SG) (SG) (PI) (PI) (SG) (PI) (PI) (SG) (DLTA)
                 (DLTA) (PI) (PI) (SG) (SG) (DLTA) (DLTA) (PI)
                 (PI) (SG) (PHI) (PHI) (?B) (?B) (?A) (?A) (?A)
                 (?B) (?A) (SG) (PI) (PI) (SG) (SG) (DLTA) (DLTA)
                 (PI) (PI) (PHI) (PHI) (DLTA) (DLTA) (SG) (PI)
                 (PI) (SG) (DLTA) (DLTA) (PI) (PI) (SG) (SG)
 Unable to determine electronic state:  an orbital has unidentified symmetry.
 Alpha  occ. eigenvalues -- -101.60970 -19.21276  -9.54973  -7.31191  -7.30830
 Alpha  occ. eigenvalues --   -7.29891  -1.13686  -0.78802  -0.50406  -0.50138
 Alpha  occ. eigenvalues --   -0.46858  -0.32370  -0.28534
 Alpha virt. eigenvalues --   -0.02673   0.26831   0.26895   0.27994   0.32562
 Alpha virt. eigenvalues --    0.34475   0.36251   0.37791   0.48562   0.48569
 Alpha virt. eigenvalues --    0.53317   0.55152   0.68665   0.94132   1.39057
 Alpha virt. eigenvalues --    1.39061   1.56742   1.59368   1.84439   2.04232
 Alpha virt. eigenvalues --    2.04240   2.08350   2.10304   2.10595   2.10719
 Alpha virt. eigenvalues --    2.11662   2.12767   2.13473   2.45645   2.56240
 Alpha virt. eigenvalues --    2.58910   2.68806   3.34541   3.40750   3.40752
 Alpha virt. eigenvalues --    3.58751   3.60430   3.92820   3.92824   4.06669
 Alpha virt. eigenvalues --    4.06692   4.37029   4.56315   4.59297   5.01035
 Alpha virt. eigenvalues --    5.94252   5.94265   6.26321   6.30360   6.61914
 Alpha virt. eigenvalues --   34.72422
  Beta  occ. eigenvalues -- -101.60708 -19.19360  -9.54727  -7.31086  -7.29949
  Beta  occ. eigenvalues --   -7.29746  -1.10631  -0.75444  -0.48269  -0.45930
  Beta  occ. eigenvalues --   -0.43445  -0.27194
  Beta virt. eigenvalues --   -0.17298  -0.01523   0.27252   0.27844   0.28109
  Beta virt. eigenvalues --    0.33063   0.36701   0.37925   0.38336   0.50503
  Beta virt. eigenvalues --    0.50568   0.55252   0.55560   0.69826   0.95210
  Beta virt. eigenvalues --    1.42108   1.42315   1.59712   1.59895   1.85742
  Beta virt. eigenvalues --    2.06177   2.06184   2.11995   2.12059   2.12380
  Beta virt. eigenvalues --    2.12430   2.13320   2.13702   2.14822   2.46440
  Beta virt. eigenvalues --    2.59413   2.59751   2.70748   3.36412   3.41644
  Beta virt. eigenvalues --    3.41672   3.59960   3.60503   3.96645   3.96696
  Beta virt. eigenvalues --    4.09138   4.09301   4.38094   4.59741   4.59793
  Beta virt. eigenvalues --    5.03122   6.00672   6.01277   6.31346   6.32631
  Beta virt. eigenvalues --    6.64147  34.72876
          Condensed to atoms (all electrons):
               1          2
     1  Cl  16.715940   0.006774
     2  O    0.006774   8.270512
          Atomic-Atomic Spin Densities.
               1          2
     1  Cl   0.488327  -0.142245
     2  O   -0.142245   0.796162
 Mulliken charges and spin densities:
               1          2
     1  Cl   0.277286   0.346083
     2  O   -0.277286   0.653917
 Sum of Mulliken charges =  -0.00000   1.00000
 Mulliken charges and spin densities with hydrogens summed into heavy atoms:
               1          2
     1  Cl   0.277286   0.346083
     2  O   -0.277286   0.653917
 Electronic spatial extent (au):  <R**2>=             82.9008
 Charge=             -0.0000 electrons
 Dipole moment (field-independent basis, Debye):
    X=              0.0000    Y=              0.0000    Z=              1.5287  Tot=              1.5287
 Quadrupole moment (field-independent basis, Debye-Ang):
   XX=            -16.6982   YY=            -18.1197   ZZ=            -17.8953
   XY=              0.0000   XZ=              0.0000   YZ=              0.0000
 Traceless Quadrupole moment (field-independent basis, Debye-Ang):
   XX=              0.8728   YY=             -0.5486   ZZ=             -0.3242
   XY=              0.0000   XZ=              0.0000   YZ=              0.0000
 Octapole moment (field-independent basis, Debye-Ang**2):
  XXX=              0.0000  YYY=              0.0000  ZZZ=              2.7583  XYY=              0.0000
  XXY=              0.0000  XXZ=             -0.4992  XZZ=              0.0000  YZZ=              0.0000
  YYZ=             -0.4209  XYZ=              0.0000
 Hexadecapole moment (field-independent basis, Debye-Ang**3):
 XXXX=            -16.2865 YYYY=            -18.8111 ZZZZ=            -64.8619 XXXY=              0.0000
 XXXZ=              0.0000 YYYX=              0.0000 YYYZ=              0.0000 ZZZX=              0.0000
 ZZZY=              0.0000 XXYY=             -5.8496 XXZZ=            -13.6748 YYZZ=            -15.4454
 XXYZ=              0.0000 YYXZ=              0.0000 ZZXY=              0.0000
 N-N= 4.797873379008D+01 E-N=-1.368456411364D+03  KE= 5.349604337624D+02
 Symmetry A1   KE= 4.349409561698D+02
 Symmetry A2   KE= 3.308853229836D-35
 Symmetry B1   KE= 4.867380989231D+01
 Symmetry B2   KE= 5.134566770037D+01
 Symmetry A1   SP=-2.207111040155D-14
 Symmetry A2   SP= 8.356169171249D-36
 Symmetry B1   SP= 1.000000000000D+00
 Symmetry B2   SP= 1.049971029988D-15
                          Isotropic Fermi Contact Couplings
        Atom                 a.u.       MegaHertz       Gauss      10(-4) cm-1
     1  Cl(35)             0.04005      17.55848       6.26530       5.85688
     2  O(17)              0.15329     -92.92184     -33.15682     -30.99539
 --------------------------------------------------------
       Center         ----  Spin Dipole Couplings  ----
                      3XX-RR        3YY-RR        3ZZ-RR
 --------------------------------------------------------
     1   Atom        2.493265     -1.172427     -1.320838
     2   Atom        2.955098     -1.484888     -1.470210
 --------------------------------------------------------
                        XY            XZ            YZ
 --------------------------------------------------------
     1   Atom        0.000000      0.000000      0.000000
     2   Atom        0.000000      0.000000      0.000000
 --------------------------------------------------------


 ---------------------------------------------------------------------------------
              Anisotropic Spin Dipole Couplings in Principal Axis System
 ---------------------------------------------------------------------------------

       Atom             a.u.   MegaHertz   Gauss  10(-4) cm-1        Axes

              Baa    -1.3208   -69.130   -24.667   -23.059  0.0000  0.0000  1.0000
     1 Cl(35) Bbb    -1.1724   -61.362   -21.896   -20.468 -0.0000  1.0000  0.0000
              Bcc     2.4933   130.492    46.563    43.527  1.0000  0.0000  0.0000
 
              Baa    -1.4849   107.445    38.339    35.840 -0.0000  1.0000  0.0000
     2 O(17)  Bbb    -1.4702   106.383    37.960    35.486  0.0000  0.0000  1.0000
              Bcc     2.9551  -213.829   -76.299   -71.326  1.0000  0.0000  0.0000
 

 ---------------------------------------------------------------------------------

 Calling FoFJK, ICntrl=      2127 FMM=F ISym2X=1 I1Cent= 0 IOpClX= 1 NMat=1 NMatS=1 NMatT=0.
 ***** Axes restored to original set *****
 -------------------------------------------------------------------
 Center     Atomic                   Forces (Hartrees/Bohr)
 Number     Number              X              Y              Z
 -------------------------------------------------------------------
      1       17          -0.000000000   -0.000000000   -0.063852300
      2        8          -0.000000000   -0.000000000    0.063852300
 -------------------------------------------------------------------
 Cartesian Forces:  Max     0.063852300 RMS     0.036865143

 GradGradGradGradGradGradGradGradGradGradGradGradGradGradGradGradGradGrad
 Berny optimization.
 FormGI is forming the generalized inverse of G from B-inverse, IUseBI=4.
 Internal  Forces:  Max     0.063852300 RMS     0.063852300
 Search for a local minimum.
 Step number   1 out of a maximum of   20
 All quantities printed in internal units (Hartrees-Bohrs-Radians)
 Mixed Optimization -- RFO/linear search
 Second derivative matrix not updated -- first step.
 The second derivative matrix:
                          R1
           R1           0.76677
 ITU=  0
     Eigenvalues ---    0.76677
 RFO step:  Lambda=-5.28092030D-03 EMin= 7.66765611D-01
 Linear search not attempted -- first point.
 Iteration  1 RMS(Cart)=  0.05848144 RMS(Int)=  0.00000000
 Iteration  2 RMS(Cart)=  0.00000000 RMS(Int)=  0.00000000
 ClnCor:  largest displacement from symmetrization is 0.00D+00 for atom     0.
 Variable       Old X    -DE/DX   Delta X   Delta X   Delta X     New X
                                 (Linear)    (Quad)   (Total)
    R1        2.83459   0.06385   0.00000   0.08271   0.08271   2.91729
         Item               Value     Threshold  Converged?
 Maximum Force            0.063852     0.000450     NO 
 RMS     Force            0.063852     0.000300     NO 
 Maximum Displacement     0.041353     0.001800     NO 
 RMS     Displacement     0.058481     0.001200     NO 
 Predicted change in Energy=-2.658521D-03
 GradGradGradGradGradGradGradGradGradGradGradGradGradGradGradGradGradGrad

                          Input orientation:                          
 ---------------------------------------------------------------------
 Center     Atomic      Atomic             Coordinates (Angstroms)
 Number     Number       Type             X           Y           Z
 ---------------------------------------------------------------------
      1         17           0        0.000000    0.000000   -0.021883
      2          8           0        0.000000    0.000000    1.521883
 ---------------------------------------------------------------------
 Stoichiometry    ClO(2)
 Framework group  C*V[C*(OCl)]
 Deg. of freedom     1
 Full point group                 C*V     NOp   4
 Largest Abelian subgroup         C2V     NOp   4
 Largest concise Abelian subgroup C1      NOp   1
                         Standard orientation:                         
 ---------------------------------------------------------------------
 Center     Atomic      Atomic             Coordinates (Angstroms)
 Number     Number       Type             X           Y           Z
 ---------------------------------------------------------------------
      1         17           0        0.000000    0.000000    0.494005
      2          8           0        0.000000    0.000000   -1.049761
 ---------------------------------------------------------------------
 Rotational constants (GHZ):           0.0000000          19.3220241          19.3220241
 Basis read from rwf:  (5D, 7F)
 There are    34 symmetry adapted cartesian basis functions of A1  symmetry.
 There are     6 symmetry adapted cartesian basis functions of A2  symmetry.
 There are    17 symmetry adapted cartesian basis functions of B1  symmetry.
 There are    17 symmetry adapted cartesian basis functions of B2  symmetry.
 There are    28 symmetry adapted basis functions of A1  symmetry.
 There are     6 symmetry adapted basis functions of A2  symmetry.
 There are    15 symmetry adapted basis functions of B1  symmetry.
 There are    15 symmetry adapted basis functions of B2  symmetry.
    64 basis functions,   121 primitive gaussians,    74 cartesian basis functions
    13 alpha electrons       12 beta electrons
       nuclear repulsion energy        46.6185374950 Hartrees.
 NAtoms=    2 NActive=    2 NUniq=    2 SFac= 1.00D+00 NAtFMM=   60 NAOKFM=F Big=F
 Integral buffers will be    131072 words long.
 Raffenetti 2 integral format.
 Two-electron integral symmetry is turned on.
 One-electron integrals computed using PRISM.
 NBasis=    64 RedAO= T EigKep=  8.79D-03  NBF=    28     6    15    15
 NBsUse=    64 1.00D-06 EigRej= -1.00D+00 NBFU=    28     6    15    15
 Initial guess from the checkpoint file:  "/wrk/irikura/Gau-7076.chk"
 B after Tr=     0.000000    0.000000   -0.000000
         Rot=    1.000000    0.000000    0.000000    0.000000 Ang=   0.00 deg.
 Initial guess orbital symmetries:
 Alpha Orbitals:
       Occupied  (SG) (SG) (SG) (SG) (PI) (PI) (SG) (SG) (?A) (SG)
                 (?A) (?A) (?A)
       Virtual   (SG) (SG) (PI) (PI) (SG) (PI) (PI) (SG) (DLTA)
                 (DLTA) (PI) (PI) (SG) (SG) (DLTA) (DLTA) (PI)
                 (PI) (SG) (?B) (?B) (?B) (?C) (?C) (?B) (?B) (?B)
                 (?C) (SG) (PI) (PI) (SG) (SG) (DLTA) (DLTA) (PI)
                 (PI) (PHI) (PHI) (?D) (?D) (?D) (PI) (PI) (SG)
                 (?E) (?E) (PI) (PI) (?E) (SG)
 Beta  Orbitals:
       Occupied  (SG) (SG) (SG) (SG) (PI) (PI) (SG) (SG) (SG) (?A)
                 (?A) (?A)
       Virtual   (?A) (SG) (SG) (PI) (PI) (SG) (PI) (PI) (SG) (DLTA)
                 (DLTA) (PI) (PI) (SG) (SG) (DLTA) (DLTA) (PI)
                 (PI) (SG) (PHI) (PHI) (?B) (?B) (?A) (?A) (?A)
                 (?B) (?A) (SG) (PI) (PI) (SG) (SG) (DLTA) (DLTA)
                 (PI) (PI) (PHI) (PHI) (DLTA) (DLTA) (SG) (PI)
                 (PI) (SG) (DLTA) (DLTA) (PI) (PI) (SG) (SG)
 Initial guess <Sx>= 0.0000 <Sy>= 0.0000 <Sz>= 0.5000 <S**2>= 0.7546 S= 0.5023
 ExpMin= 1.21D-01 ExpMax= 1.54D+05 ExpMxC= 1.49D+03 IAcc=3 IRadAn=         5 AccDes= 0.00D+00
 Harris functional with IExCor=  402 and IRadAn=       5 diagonalized for initial guess.
 HarFok:  IExCor=  402 AccDes= 0.00D+00 IRadAn=         5 IDoV= 1 UseB2=F ITyADJ=14
 ICtDFT=  3500011 ScaDFX=  1.000000  1.000000  1.000000  1.000000
 FoFCou: FMM=F IPFlag=           0 FMFlag=      100000 FMFlg1=           0
         NFxFlg=           0 DoJE=T BraDBF=F KetDBF=T FulRan=T
         wScrn=  0.000000 ICntrl=       500 IOpCl=  0 I1Cent=   200000004 NGrid=           0
         NMat0=    1 NMatS0=      1 NMatT0=    0 NMatD0=    1 NMtDS0=    0 NMtDT0=    0
 Petite list used in FoFCou.
 Keep R1 and R2 ints in memory in symmetry-blocked form, NReq=5761560.
 Requested convergence on RMS density matrix=1.00D-08 within 128 cycles.
 Requested convergence on MAX density matrix=1.00D-06.
 Requested convergence on             energy=1.00D-06.
 No special actions if energy rises.
 Integral accuracy reduced to 1.0D-05 until final iterations.
 Initial convergence to 1.0D-05 achieved.  Increase integral accuracy.
 SCF Done:  E(UB3LYP) =  -535.374101277     A.U. after   13 cycles
            NFock= 13  Conv=0.31D-08     -V/T= 2.0010
 <Sx>= 0.0000 <Sy>= 0.0000 <Sz>= 0.5000 <S**2>= 0.7546 S= 0.5023
 <L.S>=  0.00000000000    
 Annihilation of the first spin contaminant:
 S**2 before annihilation     0.7546,   after     0.7500
 Calling FoFJK, ICntrl=      2127 FMM=F ISym2X=1 I1Cent= 0 IOpClX= 1 NMat=1 NMatS=1 NMatT=0.
 ***** Axes restored to original set *****
 -------------------------------------------------------------------
 Center     Atomic                   Forces (Hartrees/Bohr)
 Number     Number              X              Y              Z
 -------------------------------------------------------------------
      1       17          -0.000000000   -0.000000000   -0.027901535
      2        8          -0.000000000   -0.000000000    0.027901535
 -------------------------------------------------------------------
 Cartesian Forces:  Max     0.027901535 RMS     0.016108959

 GradGradGradGradGradGradGradGradGradGradGradGradGradGradGradGradGradGrad
 Berny optimization.
 Using GEDIIS/GDIIS optimizer.
 Internal  Forces:  Max     0.027901535 RMS     0.027901535
 Search for a local minimum.
 Step number   2 out of a maximum of   20
 All quantities printed in internal units (Hartrees-Bohrs-Radians)
 Mixed Optimization -- RFO/linear search
 Update second derivatives using D2CorX and points    1    2
 DE= -3.73D-03 DEPred=-2.66D-03 R= 1.40D+00
 TightC=F SS=  1.41D+00  RLast= 8.27D-02 DXNew= 5.0454D-01 2.4812D-01
 Trust test= 1.40D+00 RLast= 8.27D-02 DXMaxT set to 3.00D-01
 The second derivative matrix:
                          R1
           R1           0.43469
 ITU=  1  0
 Use linear search instead of GDIIS.
     Eigenvalues ---    0.43469
 RFO step:  Lambda= 0.00000000D+00 EMin= 4.34685407D-01
 Quartic linear search produced a step of  1.01055.
 Iteration  1 RMS(Cart)=  0.05909844 RMS(Int)=  0.00000000
 Iteration  2 RMS(Cart)=  0.00000000 RMS(Int)=  0.00000000
 ClnCor:  largest displacement from symmetrization is 0.00D+00 for atom     0.
 Variable       Old X    -DE/DX   Delta X   Delta X   Delta X     New X
                                 (Linear)    (Quad)   (Total)
    R1        2.91729   0.02790   0.08358   0.00000   0.08358   3.00087
         Item               Value     Threshold  Converged?
 Maximum Force            0.027902     0.000450     NO 
 RMS     Force            0.027902     0.000300     NO 
 Maximum Displacement     0.041789     0.001800     NO 
 RMS     Displacement     0.059098     0.001200     NO 
 Predicted change in Energy=-8.137560D-04
 GradGradGradGradGradGradGradGradGradGradGradGradGradGradGradGradGradGrad

                          Input orientation:                          
 ---------------------------------------------------------------------
 Center     Atomic      Atomic             Coordinates (Angstroms)
 Number     Number       Type             X           Y           Z
 ---------------------------------------------------------------------
      1         17           0        0.000000    0.000000   -0.043997
      2          8           0        0.000000    0.000000    1.543997
 ---------------------------------------------------------------------
 Stoichiometry    ClO(2)
 Framework group  C*V[C*(OCl)]
 Deg. of freedom     1
 Full point group                 C*V     NOp   4
 Largest Abelian subgroup         C2V     NOp   4
 Largest concise Abelian subgroup C1      NOp   1
                         Standard orientation:                         
 ---------------------------------------------------------------------
 Center     Atomic      Atomic             Coordinates (Angstroms)
 Number     Number       Type             X           Y           Z
 ---------------------------------------------------------------------
      1         17           0        0.000000    0.000000    0.508158
      2          8           0        0.000000    0.000000   -1.079835
 ---------------------------------------------------------------------
 Rotational constants (GHZ):           0.0000000          18.2607300          18.2607300
 Basis read from rwf:  (5D, 7F)
 There are    34 symmetry adapted cartesian basis functions of A1  symmetry.
 There are     6 symmetry adapted cartesian basis functions of A2  symmetry.
 There are    17 symmetry adapted cartesian basis functions of B1  symmetry.
 There are    17 symmetry adapted cartesian basis functions of B2  symmetry.
 There are    28 symmetry adapted basis functions of A1  symmetry.
 There are     6 symmetry adapted basis functions of A2  symmetry.
 There are    15 symmetry adapted basis functions of B1  symmetry.
 There are    15 symmetry adapted basis functions of B2  symmetry.
    64 basis functions,   121 primitive gaussians,    74 cartesian basis functions
    13 alpha electrons       12 beta electrons
       nuclear repulsion energy        45.3201565822 Hartrees.
 NAtoms=    2 NActive=    2 NUniq=    2 SFac= 1.00D+00 NAtFMM=   60 NAOKFM=F Big=F
 Integral buffers will be    131072 words long.
 Raffenetti 2 integral format.
 Two-electron integral symmetry is turned on.
 One-electron integrals computed using PRISM.
 NBasis=    64 RedAO= T EigKep=  1.05D-02  NBF=    28     6    15    15
 NBsUse=    64 1.00D-06 EigRej= -1.00D+00 NBFU=    28     6    15    15
 Initial guess from the checkpoint file:  "/wrk/irikura/Gau-7076.chk"
 B after Tr=     0.000000    0.000000    0.000000
         Rot=    1.000000    0.000000    0.000000    0.000000 Ang=   0.00 deg.
 Initial guess orbital symmetries:
 Alpha Orbitals:
       Occupied  (SG) (SG) (SG) (SG) (PI) (PI) (SG) (SG) (SG) (?A)
                 (?A) (?A) (?A)
       Virtual   (SG) (SG) (PI) (PI) (SG) (PI) (PI) (SG) (?B) (?B)
                 (PI) (PI) (?B) (SG) (DLTA) (DLTA) (PI) (PI) (SG)
                 (?C) (?C) (?C) (?D) (?D) (?C) (?C) (?D) (?C) (SG)
                 (PI) (PI) (SG) (SG) (DLTA) (DLTA) (PI) (PI) (PHI)
                 (PHI) (?E) (?E) (?E) (PI) (PI) (SG) (?F) (?F)
                 (PI) (PI) (?F) (SG)
 Beta  Orbitals:
       Occupied  (SG) (SG) (SG) (SG) (PI) (PI) (SG) (SG) (SG) (?A)
                 (?A) (?A)
       Virtual   (?A) (SG) (SG) (PI) (PI) (SG) (PI) (PI) (SG) (DLTA)
                 (DLTA) (PI) (PI) (SG) (SG) (DLTA) (DLTA) (PI)
                 (PI) (SG) (PHI) (PHI) (?B) (?B) (?A) (?B) (?A)
                 (?A) (?A) (SG) (PI) (PI) (SG) (SG) (DLTA) (DLTA)
                 (PI) (PI) (PHI) (PHI) (DLTA) (DLTA) (SG) (PI)
                 (PI) (SG) (DLTA) (DLTA) (PI) (PI) (SG) (SG)
 Initial guess <Sx>= 0.0000 <Sy>= 0.0000 <Sz>= 0.5000 <S**2>= 0.7547 S= 0.5023
 ExpMin= 1.21D-01 ExpMax= 1.54D+05 ExpMxC= 1.49D+03 IAcc=3 IRadAn=         5 AccDes= 0.00D+00
 Harris functional with IExCor=  402 and IRadAn=       5 diagonalized for initial guess.
 HarFok:  IExCor=  402 AccDes= 0.00D+00 IRadAn=         5 IDoV= 1 UseB2=F ITyADJ=14
 ICtDFT=  3500011 ScaDFX=  1.000000  1.000000  1.000000  1.000000
 FoFCou: FMM=F IPFlag=           0 FMFlag=      100000 FMFlg1=           0
         NFxFlg=           0 DoJE=T BraDBF=F KetDBF=T FulRan=T
         wScrn=  0.000000 ICntrl=       500 IOpCl=  0 I1Cent=   200000004 NGrid=           0
         NMat0=    1 NMatS0=      1 NMatT0=    0 NMatD0=    1 NMtDS0=    0 NMtDT0=    0
 Petite list used in FoFCou.
 Keep R1 and R2 ints in memory in symmetry-blocked form, NReq=5761560.
 Requested convergence on RMS density matrix=1.00D-08 within 128 cycles.
 Requested convergence on MAX density matrix=1.00D-06.
 Requested convergence on             energy=1.00D-06.
 No special actions if energy rises.
 Integral accuracy reduced to 1.0D-05 until final iterations.
 Initial convergence to 1.0D-05 achieved.  Increase integral accuracy.
 SCF Done:  E(UB3LYP) =  -535.375198838     A.U. after   13 cycles
            NFock= 13  Conv=0.45D-08     -V/T= 2.0011
 <Sx>= 0.0000 <Sy>= 0.0000 <Sz>= 0.5000 <S**2>= 0.7547 S= 0.5024
 <L.S>=  0.00000000000    
 Annihilation of the first spin contaminant:
 S**2 before annihilation     0.7547,   after     0.7500
 Calling FoFJK, ICntrl=      2127 FMM=F ISym2X=1 I1Cent= 0 IOpClX= 1 NMat=1 NMatS=1 NMatT=0.
 ***** Axes restored to original set *****
 -------------------------------------------------------------------
 Center     Atomic                   Forces (Hartrees/Bohr)
 Number     Number              X              Y              Z
 -------------------------------------------------------------------
      1       17          -0.000000000   -0.000000000    0.000466365
      2        8          -0.000000000   -0.000000000   -0.000466365
 -------------------------------------------------------------------
 Cartesian Forces:  Max     0.000466365 RMS     0.000269256

 GradGradGradGradGradGradGradGradGradGradGradGradGradGradGradGradGradGrad
 Berny optimization.
 Using GEDIIS/GDIIS optimizer.
 Internal  Forces:  Max     0.000466365 RMS     0.000466365
 Search for a local minimum.
 Step number   3 out of a maximum of   20
 All quantities printed in internal units (Hartrees-Bohrs-Radians)
 Mixed Optimization -- En-DIIS/RFO-DIIS
 Update second derivatives using D2CorX and points    2    3
 DE= -1.10D-03 DEPred=-8.14D-04 R= 1.35D+00
 TightC=F SS=  1.41D+00  RLast= 8.36D-02 DXNew= 5.0454D-01 2.5073D-01
 Trust test= 1.35D+00 RLast= 8.36D-02 DXMaxT set to 3.00D-01
 The second derivative matrix:
                          R1
           R1           0.33942
 ITU=  1  1
 Use linear search instead of GDIIS.
     Eigenvalues ---    0.33942
 RFO step:  Lambda= 0.00000000D+00 EMin= 3.39419052D-01
 Quartic linear search produced a step of -0.01866.
 Iteration  1 RMS(Cart)=  0.00110291 RMS(Int)=  0.00000000
 Iteration  2 RMS(Cart)=  0.00000000 RMS(Int)=  0.00000000
 ClnCor:  largest displacement from symmetrization is 0.00D+00 for atom     0.
 Variable       Old X    -DE/DX   Delta X   Delta X   Delta X     New X
                                 (Linear)    (Quad)   (Total)
    R1        3.00087  -0.00047  -0.00156   0.00000  -0.00156   2.99931
         Item               Value     Threshold  Converged?
 Maximum Force            0.000466     0.000450     NO 
 RMS     Force            0.000466     0.000300     NO 
 Maximum Displacement     0.000780     0.001800     YES
 RMS     Displacement     0.001103     0.001200     YES
 Predicted change in Energy=-3.145407D-07
 GradGradGradGradGradGradGradGradGradGradGradGradGradGradGradGradGradGrad

                          Input orientation:                          
 ---------------------------------------------------------------------
 Center     Atomic      Atomic             Coordinates (Angstroms)
 Number     Number       Type             X           Y           Z
 ---------------------------------------------------------------------
      1         17           0        0.000000    0.000000   -0.043584
      2          8           0        0.000000    0.000000    1.543584
 ---------------------------------------------------------------------
 Stoichiometry    ClO(2)
 Framework group  C*V[C*(OCl)]
 Deg. of freedom     1
 Full point group                 C*V     NOp   4
 Largest Abelian subgroup         C2V     NOp   4
 Largest concise Abelian subgroup C1      NOp   1
                         Standard orientation:                         
 ---------------------------------------------------------------------
 Center     Atomic      Atomic             Coordinates (Angstroms)
 Number     Number       Type             X           Y           Z
 ---------------------------------------------------------------------
      1         17           0        0.000000    0.000000    0.507894
      2          8           0        0.000000    0.000000   -1.079274
 ---------------------------------------------------------------------
 Rotational constants (GHZ):           0.0000000          18.2797274          18.2797274
 Basis read from rwf:  (5D, 7F)
 There are    34 symmetry adapted cartesian basis functions of A1  symmetry.
 There are     6 symmetry adapted cartesian basis functions of A2  symmetry.
 There are    17 symmetry adapted cartesian basis functions of B1  symmetry.
 There are    17 symmetry adapted cartesian basis functions of B2  symmetry.
 There are    28 symmetry adapted basis functions of A1  symmetry.
 There are     6 symmetry adapted basis functions of A2  symmetry.
 There are    15 symmetry adapted basis functions of B1  symmetry.
 There are    15 symmetry adapted basis functions of B2  symmetry.
    64 basis functions,   121 primitive gaussians,    74 cartesian basis functions
    13 alpha electrons       12 beta electrons
       nuclear repulsion energy        45.3437247193 Hartrees.
 NAtoms=    2 NActive=    2 NUniq=    2 SFac= 1.00D+00 NAtFMM=   60 NAOKFM=F Big=F
 Integral buffers will be    131072 words long.
 Raffenetti 2 integral format.
 Two-electron integral symmetry is turned on.
 One-electron integrals computed using PRISM.
 NBasis=    64 RedAO= T EigKep=  1.05D-02  NBF=    28     6    15    15
 NBsUse=    64 1.00D-06 EigRej= -1.00D+00 NBFU=    28     6    15    15
 Initial guess from the checkpoint file:  "/wrk/irikura/Gau-7076.chk"
 B after Tr=     0.000000    0.000000   -0.000000
         Rot=    1.000000    0.000000    0.000000    0.000000 Ang=   0.00 deg.
 Initial guess orbital symmetries:
 Alpha Orbitals:
       Occupied  (SG) (SG) (SG) (SG) (PI) (PI) (SG) (SG) (SG) (?A)
                 (?A) (?A) (?A)
       Virtual   (SG) (SG) (PI) (PI) (SG) (PI) (PI) (SG) (?B) (?B)
                 (PI) (PI) (?B) (SG) (?C) (?C) (PI) (PI) (?C) (?D)
                 (?D) (?D) (?E) (?E) (?D) (?D) (?E) (?D) (SG) (PI)
                 (PI) (SG) (SG) (DLTA) (DLTA) (PI) (PI) (PHI) (PHI)
                 (?F) (?F) (?F) (PI) (PI) (SG) (?G) (?G) (PI) (PI)
                 (?G) (SG)
 Beta  Orbitals:
       Occupied  (SG) (SG) (SG) (SG) (PI) (PI) (SG) (SG) (SG) (?A)
                 (?A) (?A)
       Virtual   (?A) (SG) (SG) (PI) (PI) (SG) (PI) (PI) (SG) (DLTA)
                 (DLTA) (PI) (PI) (SG) (SG) (DLTA) (DLTA) (PI)
                 (PI) (SG) (PHI) (PHI) (?B) (?B) (?A) (?B) (?A)
                 (?A) (?A) (SG) (PI) (PI) (SG) (SG) (DLTA) (DLTA)
                 (PI) (PI) (PHI) (PHI) (DLTA) (DLTA) (SG) (PI)
                 (PI) (SG) (DLTA) (DLTA) (PI) (PI) (SG) (SG)
 Initial guess <Sx>= 0.0000 <Sy>= 0.0000 <Sz>= 0.5000 <S**2>= 0.7547 S= 0.5024
 Keep R1 and R2 ints in memory in symmetry-blocked form, NReq=5761560.
 Requested convergence on RMS density matrix=1.00D-08 within 128 cycles.
 Requested convergence on MAX density matrix=1.00D-06.
 Requested convergence on             energy=1.00D-06.
 No special actions if energy rises.
 SCF Done:  E(UB3LYP) =  -535.375199201     A.U. after    8 cycles
            NFock=  8  Conv=0.43D-08     -V/T= 2.0011
 <Sx>= 0.0000 <Sy>= 0.0000 <Sz>= 0.5000 <S**2>= 0.7547 S= 0.5024
 <L.S>=  0.00000000000    
 Annihilation of the first spin contaminant:
 S**2 before annihilation     0.7547,   after     0.7500
 Calling FoFJK, ICntrl=      2127 FMM=F ISym2X=1 I1Cent= 0 IOpClX= 1 NMat=1 NMatS=1 NMatT=0.
 ***** Axes restored to original set *****
 -------------------------------------------------------------------
 Center     Atomic                   Forces (Hartrees/Bohr)
 Number     Number              X              Y              Z
 -------------------------------------------------------------------
      1       17          -0.000000000   -0.000000000   -0.000001307
      2        8          -0.000000000   -0.000000000    0.000001307
 -------------------------------------------------------------------
 Cartesian Forces:  Max     0.000001307 RMS     0.000000755

 GradGradGradGradGradGradGradGradGradGradGradGradGradGradGradGradGradGrad
 Berny optimization.
 Using GEDIIS/GDIIS optimizer.
 Internal  Forces:  Max     0.000001307 RMS     0.000001307
 Search for a local minimum.
 Step number   4 out of a maximum of   20
 All quantities printed in internal units (Hartrees-Bohrs-Radians)
 Mixed Optimization -- En-DIIS/RFO-DIIS
 Swapping is turned off.
 Update second derivatives using D2CorX and points    3    4
 DE= -3.63D-07 DEPred=-3.15D-07 R= 1.15D+00
 Trust test= 1.15D+00 RLast= 1.56D-03 DXMaxT set to 3.00D-01
 The second derivative matrix:
                          R1
           R1           0.29984
 ITU=  0  1
     Eigenvalues ---    0.29984
 En-DIIS/RFO-DIIS/Sim-DIIS IScMMF=       -3 using points:     4    3
 RFO step:  Lambda=-5.70049563D-12.
 DidBck=F Rises=F RFO-DIIS coefs:    0.99720    0.00280
 Iteration  1 RMS(Cart)=  0.00000308 RMS(Int)=  0.00000000
 Iteration  2 RMS(Cart)=  0.00000000 RMS(Int)=  0.00000000
 ClnCor:  largest displacement from symmetrization is 0.00D+00 for atom     0.
 Variable       Old X    -DE/DX   Delta X   Delta X   Delta X     New X
                                 (Linear)    (Quad)   (Total)
    R1        2.99931   0.00000   0.00000   0.00000   0.00000   2.99932
         Item               Value     Threshold  Converged?
 Maximum Force            0.000001     0.000450     YES
 RMS     Force            0.000001     0.000300     YES
 Maximum Displacement     0.000002     0.001800     YES
 RMS     Displacement     0.000003     0.001200     YES
 Predicted change in Energy=-2.850237D-12
 Optimization completed.
    -- Stationary point found.
                           ----------------------------
                           !   Optimized Parameters   !
                           ! (Angstroms and Degrees)  !
 --------------------------                            --------------------------
 ! Name  Definition              Value          Derivative Info.                !
 --------------------------------------------------------------------------------
 ! R1    R(1,2)                  1.5872         -DE/DX =    0.0                 !
 --------------------------------------------------------------------------------
 GradGradGradGradGradGradGradGradGradGradGradGradGradGradGradGradGradGrad

                          Input orientation:                          
 ---------------------------------------------------------------------
 Center     Atomic      Atomic             Coordinates (Angstroms)
 Number     Number       Type             X           Y           Z
 ---------------------------------------------------------------------
      1         17           0        0.000000    0.000000   -0.043584
      2          8           0        0.000000    0.000000    1.543584
 ---------------------------------------------------------------------
 Stoichiometry    ClO(2)
 Framework group  C*V[C*(OCl)]
 Deg. of freedom     1
 Full point group                 C*V     NOp   4
 Largest Abelian subgroup         C2V     NOp   4
 Largest concise Abelian subgroup C1      NOp   1
                         Standard orientation:                         
 ---------------------------------------------------------------------
 Center     Atomic      Atomic             Coordinates (Angstroms)
 Number     Number       Type             X           Y           Z
 ---------------------------------------------------------------------
      1         17           0        0.000000    0.000000    0.507894
      2          8           0        0.000000    0.000000   -1.079274
 ---------------------------------------------------------------------
 Rotational constants (GHZ):           0.0000000          18.2797274          18.2797274

 **********************************************************************

            Population analysis using the SCF Density.

 **********************************************************************

 Orbital symmetries:
 Alpha Orbitals:
       Occupied  (SG) (SG) (SG) (SG) (PI) (PI) (SG) (SG) (SG) (?A)
                 (?A) (?A) (?A)
       Virtual   (SG) (SG) (PI) (PI) (SG) (PI) (PI) (SG) (?B) (?B)
                 (PI) (PI) (?B) (SG) (?C) (?C) (PI) (PI) (?C) (?D)
                 (?D) (?D) (?E) (?E) (?D) (?D) (?E) (?D) (SG) (PI)
                 (PI) (SG) (SG) (DLTA) (DLTA) (PI) (PI) (PHI) (PHI)
                 (?F) (?F) (?F) (PI) (PI) (SG) (?G) (?G) (PI) (PI)
                 (?G) (SG)
 Beta  Orbitals:
       Occupied  (SG) (SG) (SG) (SG) (PI) (PI) (SG) (SG) (SG) (?A)
                 (?A) (?A)
       Virtual   (?A) (SG) (SG) (PI) (PI) (SG) (PI) (PI) (SG) (DLTA)
                 (DLTA) (PI) (PI) (SG) (SG) (DLTA) (DLTA) (PI)
                 (PI) (SG) (PHI) (PHI) (?B) (?B) (?A) (?B) (?A)
                 (?A) (?A) (SG) (PI) (PI) (SG) (SG) (DLTA) (DLTA)
                 (PI) (PI) (PHI) (PHI) (DLTA) (DLTA) (SG) (PI)
                 (PI) (SG) (DLTA) (DLTA) (PI) (PI) (SG) (SG)
 Unable to determine electronic state:  an orbital has unidentified symmetry.
 Alpha  occ. eigenvalues -- -101.60704 -19.22887  -9.54629  -7.30890  -7.30398
 Alpha  occ. eigenvalues --   -7.29583  -1.09970  -0.80191  -0.49604  -0.48872
 Alpha  occ. eigenvalues --   -0.45187  -0.33687  -0.29889
 Alpha virt. eigenvalues --   -0.05903   0.26271   0.27421   0.28452   0.32250
 Alpha virt. eigenvalues --    0.33657   0.35476   0.37134   0.49303   0.49306
 Alpha virt. eigenvalues --    0.52850   0.54438   0.64725   0.91480   1.39627
 Alpha virt. eigenvalues --    1.39633   1.50863   1.53545   1.84706   2.04889
 Alpha virt. eigenvalues --    2.04904   2.06265   2.08370   2.08617   2.09857
 Alpha virt. eigenvalues --    2.11396   2.11548   2.13008   2.37025   2.50139
 Alpha virt. eigenvalues --    2.52891   2.68049   3.29534   3.41126   3.41129
 Alpha virt. eigenvalues --    3.52000   3.53566   3.92655   3.92660   4.01608
 Alpha virt. eigenvalues --    4.01740   4.17775   4.45536   4.48609   5.13435
 Alpha virt. eigenvalues --    5.92588   5.92592   6.19254   6.23635   6.62332
 Alpha virt. eigenvalues --   33.07440
  Beta  occ. eigenvalues -- -101.60482 -19.20808  -9.54421  -7.30822  -7.29635
  Beta  occ. eigenvalues --   -7.29461  -1.06446  -0.76991  -0.47807  -0.44226
  Beta  occ. eigenvalues --   -0.41671  -0.28505
  Beta virt. eigenvalues --   -0.18201  -0.04626   0.26676   0.28334   0.28563
  Beta virt. eigenvalues --    0.32763   0.35939   0.37271   0.37665   0.50976
  Beta virt. eigenvalues --    0.51023   0.54469   0.54637   0.65784   0.92405
  Beta virt. eigenvalues --    1.43014   1.43269   1.53916   1.54162   1.86249
  Beta virt. eigenvalues --    2.06557   2.06561   2.09792   2.09839   2.10879
  Beta virt. eigenvalues --    2.11689   2.12669   2.13045   2.13222   2.37901
  Beta virt. eigenvalues --    2.53457   2.53996   2.69910   3.31658   3.41908
  Beta virt. eigenvalues --    3.41930   3.53190   3.53637   3.96841   3.96910
  Beta virt. eigenvalues --    4.04441   4.04643   4.18980   4.49120   4.49136
  Beta virt. eigenvalues --    5.15482   5.99518   6.00244   6.24771   6.26304
  Beta virt. eigenvalues --    6.64789  33.07812
          Condensed to atoms (all electrons):
               1          2
     1  Cl  16.725965   0.037220
     2  O    0.037220   8.199595
          Atomic-Atomic Spin Densities.
               1          2
     1  Cl   0.394324  -0.114880
     2  O   -0.114880   0.835436
 Mulliken charges and spin densities:
               1          2
     1  Cl   0.236815   0.279444
     2  O   -0.236815   0.720556
 Sum of Mulliken charges =  -0.00000   1.00000
 Mulliken charges and spin densities with hydrogens summed into heavy atoms:
               1          2
     1  Cl   0.236815   0.279444
     2  O   -0.236815   0.720556
 Electronic spatial extent (au):  <R**2>=             88.1972
 Charge=             -0.0000 electrons
 Dipole moment (field-independent basis, Debye):
    X=              0.0000    Y=              0.0000    Z=              1.4577  Tot=              1.4577
 Quadrupole moment (field-independent basis, Debye-Ang):
   XX=            -16.8983   YY=            -18.2505   ZZ=            -17.6568
   XY=              0.0000   XZ=              0.0000   YZ=              0.0000
 Traceless Quadrupole moment (field-independent basis, Debye-Ang):
   XX=              0.7036   YY=             -0.6487   ZZ=             -0.0549
   XY=              0.0000   XZ=              0.0000   YZ=              0.0000
 Octapole moment (field-independent basis, Debye-Ang**2):
  XXX=              0.0000  YYY=              0.0000  ZZZ=              2.6029  XYY=              0.0000
  XXY=              0.0000  XXZ=             -0.5796  XZZ=              0.0000  YZZ=              0.0000
  YYZ=             -0.2749  XYZ=              0.0000
 Hexadecapole moment (field-independent basis, Debye-Ang**3):
 XXXX=            -16.7233 YYYY=            -19.0067 ZZZZ=            -69.8581 XXXY=              0.0000
 XXXZ=              0.0000 YYYX=              0.0000 YYYZ=              0.0000 ZZZX=              0.0000
 ZZZY=              0.0000 XXYY=             -5.9550 XXZZ=            -14.6317 YYZZ=            -16.4798
 XXYZ=              0.0000 YYXZ=              0.0000 ZZXY=              0.0000
 N-N= 4.534372471926D+01 E-N=-1.363122934016D+03  KE= 5.347740162551D+02
 Symmetry A1   KE= 4.347545069432D+02
 Symmetry A2   KE= 3.239646003923D-35
 Symmetry B1   KE= 4.867952774297D+01
 Symmetry B2   KE= 5.133998156895D+01
 Symmetry A1   SP=-9.903150077328D-15
 Symmetry A2   SP= 7.614185550553D-36
 Symmetry B1   SP= 1.000000000000D+00
 Symmetry B2   SP= 1.440340224477D-14
                          Isotropic Fermi Contact Couplings
        Atom                 a.u.       MegaHertz       Gauss      10(-4) cm-1
     1  Cl(35)             0.03875      16.98889       6.06206       5.66688
     2  O(17)              0.15752     -95.48834     -34.07261     -31.85148
 --------------------------------------------------------
       Center         ----  Spin Dipole Couplings  ----
                      3XX-RR        3YY-RR        3ZZ-RR
 --------------------------------------------------------
     1   Atom        2.204213     -0.993658     -1.210555
     2   Atom        3.170645     -1.612098     -1.558547
 --------------------------------------------------------
                        XY            XZ            YZ
 --------------------------------------------------------
     1   Atom        0.000000      0.000000      0.000000
     2   Atom        0.000000      0.000000      0.000000
 --------------------------------------------------------


 ---------------------------------------------------------------------------------
              Anisotropic Spin Dipole Couplings in Principal Axis System
 ---------------------------------------------------------------------------------

       Atom             a.u.   MegaHertz   Gauss  10(-4) cm-1        Axes

              Baa    -1.2106   -63.358   -22.608   -21.134  0.0000  0.0000  1.0000
     1 Cl(35) Bbb    -0.9937   -52.006   -18.557   -17.347 -0.0000  1.0000  0.0000
              Bcc     2.2042   115.363    41.165    38.481  1.0000  0.0000  0.0000
 
              Baa    -1.6121   116.650    41.624    38.910 -0.0000  1.0000  0.0000
     2 O(17)  Bbb    -1.5585   112.775    40.241    37.618  0.0000  0.0000  1.0000
              Bcc     3.1706  -229.426   -81.865   -76.528  1.0000  0.0000  0.0000
 

 ---------------------------------------------------------------------------------

 B after Tr=     0.000000    0.000000    0.029650
         Rot=    1.000000    0.000000    0.000000    0.000000 Ang=   0.00 deg.
 Final structure in terms of initial Z-matrix:
 Cl
 O,1,r
      Variables:
 r=1.58716782
 1\1\GINC-GAMBA\FOpt\UB3LYP\Gen\Cl1O1(2)\IRIKURA\15-Jun-2022\0\\# b3lyp
 /gen opt freq\\ClO, B3LYP/pcseg-2\\0,2\Cl,0.,0.,-0.0435839097\O,0.,0.,
 1.5435839097\\Version=ES64L-G16RevB.01\HF=-535.3751992\S2=0.754726\S2-
 1=0.\S2A=0.750015\RMSD=4.314e-09\RMSF=7.548e-07\Dipole=0.,0.,-0.573490
 3\Quadrupole=0.5230979,-0.4822792,-0.0408188,0.,0.,0.\PG=C*V [C*(O1Cl1
 )]\\@


      THE ONE-EYED VIEW OF OUR UNIVERSE SAYS YOU MUST NOT LOOK
      FAR AFIELD FOR PROBLEMS.  SUCH PROBLEMS MAY NEVER ARRIVE. 
      INSTEAD, TEND TO THE WOLF WITHIN YOUR FENCES.
      THE PACKS RANGING OUTSIDE MAY NOT EVEN EXIST.

                              -- THE AZHAR BOOK SHAMRA I:4
                                 CHILDREN OF DUNE, BY FRANK HERBERT
 Job cpu time:       0 days  0 hours  0 minutes 39.0 seconds.
 Elapsed time:       0 days  0 hours  0 minutes  9.8 seconds.
 File lengths (MBytes):  RWF=     10 Int=      0 D2E=      0 Chk=      2 Scr=      1
 Normal termination of Gaussian 16 at Wed Jun 15 11:01:54 2022.
 Link1:  Proceeding to internal job step number  2.
 ------------------------------------------------------------------
 #N Geom=AllCheck Guess=TCheck SCRF=Check GenChk UB3LYP/ChkBas Freq
 ------------------------------------------------------------------
 1/10=4,29=7,30=1,38=1,40=1/1,3;
 2/12=2,40=1/2;
 3/5=7,6=2,11=2,14=-4,25=1,30=1,67=1,70=2,71=2,74=-5,82=7,116=2,140=1/1,2,3;
 4/5=101/1;
 5/5=2,38=6,98=1/2;
 8/6=4,10=90,11=11/1;
 11/6=1,8=1,9=11,15=111,16=1/1,2,10;
 10/6=1/2;
 6/7=2,8=2,9=2,10=2,28=1/1;
 7/8=1,10=1,25=1/1,2,3,16;
 1/10=4,30=1/3;
 99//99;
 Structure from the checkpoint file:  "/wrk/irikura/Gau-7076.chk"
 ------------------
 ClO, B3LYP/pcseg-2
 ------------------
 Charge =  0 Multiplicity = 2
 Redundant internal coordinates found in file.  (old form).
 Cl,0,0.,0.,-0.0435839097
 O,0,0.,0.,1.5435839097
 Recover connectivity data from disk.

 GradGradGradGradGradGradGradGradGradGradGradGradGradGradGradGradGradGrad
 Berny optimization.
 Initialization pass.
                           ----------------------------
                           !    Initial Parameters    !
                           ! (Angstroms and Degrees)  !
 --------------------------                            --------------------------
 ! Name  Definition              Value          Derivative Info.                !
 --------------------------------------------------------------------------------
 ! R1    R(1,2)                  1.5872         calculate D2E/DX2 analytically  !
 --------------------------------------------------------------------------------
 Trust Radius=3.00D-01 FncErr=1.00D-07 GrdErr=1.00D-07 EigMax=2.50D+02 EigMin=1.00D-04
 Number of steps in this run=      2 maximum allowed number of steps=      2.
 GradGradGradGradGradGradGradGradGradGradGradGradGradGradGradGradGradGrad

                          Input orientation:                          
 ---------------------------------------------------------------------
 Center     Atomic      Atomic             Coordinates (Angstroms)
 Number     Number       Type             X           Y           Z
 ---------------------------------------------------------------------
      1         17           0        0.000000    0.000000   -0.043584
      2          8           0        0.000000    0.000000    1.543584
 ---------------------------------------------------------------------
 Stoichiometry    ClO(2)
 Framework group  C*V[C*(OCl)]
 Deg. of freedom     1
 Full point group                 C*V     NOp   4
 Largest Abelian subgroup         C2V     NOp   4
 Largest concise Abelian subgroup C1      NOp   1
                         Standard orientation:                         
 ---------------------------------------------------------------------
 Center     Atomic      Atomic             Coordinates (Angstroms)
 Number     Number       Type             X           Y           Z
 ---------------------------------------------------------------------
      1         17           0        0.000000    0.000000    0.507894
      2          8           0        0.000000    0.000000   -1.079274
 ---------------------------------------------------------------------
 Rotational constants (GHZ):           0.0000000          18.2797274          18.2797274
 Basis read from chk: "/wrk/irikura/Gau-7076.chk" (5D, 7F)
 There are    34 symmetry adapted cartesian basis functions of A1  symmetry.
 There are     6 symmetry adapted cartesian basis functions of A2  symmetry.
 There are    17 symmetry adapted cartesian basis functions of B1  symmetry.
 There are    17 symmetry adapted cartesian basis functions of B2  symmetry.
 There are    28 symmetry adapted basis functions of A1  symmetry.
 There are     6 symmetry adapted basis functions of A2  symmetry.
 There are    15 symmetry adapted basis functions of B1  symmetry.
 There are    15 symmetry adapted basis functions of B2  symmetry.
    64 basis functions,   121 primitive gaussians,    74 cartesian basis functions
    13 alpha electrons       12 beta electrons
       nuclear repulsion energy        45.3437247193 Hartrees.
 NAtoms=    2 NActive=    2 NUniq=    2 SFac= 1.00D+00 NAtFMM=   60 NAOKFM=F Big=F
 Integral buffers will be    131072 words long.
 Raffenetti 2 integral format.
 Two-electron integral symmetry is turned on.
 One-electron integrals computed using PRISM.
 NBasis=    64 RedAO= T EigKep=  1.05D-02  NBF=    28     6    15    15
 NBsUse=    64 1.00D-06 EigRej= -1.00D+00 NBFU=    28     6    15    15
 Initial guess from the checkpoint file:  "/wrk/irikura/Gau-7076.chk"
 B after Tr=     0.000000    0.000000    0.000000
         Rot=    1.000000    0.000000    0.000000    0.000000 Ang=   0.00 deg.
 Initial guess orbital symmetries:
 Alpha Orbitals:
       Occupied  (SG) (SG) (SG) (SG) (PI) (PI) (SG) (SG) (SG) (?A)
                 (?A) (?A) (?A)
       Virtual   (SG) (SG) (PI) (PI) (SG) (PI) (PI) (SG) (?B) (?B)
                 (PI) (PI) (?B) (SG) (?C) (?C) (PI) (PI) (?C) (?D)
                 (?D) (?D) (?E) (?E) (?D) (?D) (?E) (?D) (SG) (PI)
                 (PI) (SG) (SG) (DLTA) (DLTA) (PI) (PI) (PHI) (PHI)
                 (?F) (?F) (?F) (PI) (PI) (SG) (?G) (?G) (PI) (PI)
                 (?G) (SG)
 Beta  Orbitals:
       Occupied  (SG) (SG) (SG) (SG) (PI) (PI) (SG) (SG) (SG) (?A)
                 (?A) (?A)
       Virtual   (?A) (SG) (SG) (PI) (PI) (SG) (PI) (PI) (SG) (DLTA)
                 (DLTA) (PI) (PI) (SG) (SG) (DLTA) (DLTA) (PI)
                 (PI) (SG) (PHI) (PHI) (?B) (?B) (?A) (?B) (?A)
                 (?A) (?A) (SG) (PI) (PI) (SG) (SG) (DLTA) (DLTA)
                 (PI) (PI) (PHI) (PHI) (DLTA) (DLTA) (SG) (PI)
                 (PI) (SG) (DLTA) (DLTA) (PI) (PI) (SG) (SG)
 Initial guess <Sx>= 0.0000 <Sy>= 0.0000 <Sz>= 0.5000 <S**2>= 0.7547 S= 0.5024
 Keep R1 and R2 ints in memory in symmetry-blocked form, NReq=5761560.
 Requested convergence on RMS density matrix=1.00D-08 within 128 cycles.
 Requested convergence on MAX density matrix=1.00D-06.
 Requested convergence on             energy=1.00D-06.
 No special actions if energy rises.
 SCF Done:  E(UB3LYP) =  -535.375199201     A.U. after    1 cycles
            NFock=  1  Conv=0.17D-08     -V/T= 2.0011
 <Sx>= 0.0000 <Sy>= 0.0000 <Sz>= 0.5000 <S**2>= 0.7547 S= 0.5024
 <L.S>=  0.00000000000    
 Annihilation of the first spin contaminant:
 S**2 before annihilation     0.7547,   after     0.7500
 DoSCS=F DFT=T ScalE2(SS,OS)=  1.000000  1.000000
 Range of M.O.s used for correlation:     1    64
 NBasis=    64 NAE=    13 NBE=    12 NFC=     0 NFV=     0
 NROrb=     64 NOA=    13 NOB=    12 NVA=    51 NVB=    52
 Symmetrizing basis deriv contribution to polar:
 IMax=3 JMax=2 DiffMx= 0.00D+00
 G2DrvN: will do     3 centers at a time, making    1 passes.
 Calling FoFCou, ICntrl=  3107 FMM=F I1Cent=   0 AccDes= 0.00D+00.
 End of G2Drv F.D. properties file   721 does not exist.
 End of G2Drv F.D. properties file   722 does not exist.
 End of G2Drv F.D. properties file   788 does not exist.
          IDoAtm=11
          Differentiating once with respect to electric field.
                with respect to dipole field.
          Differentiating once with respect to nuclear coordinates.
 Keep R1 and R2 ints in memory in symmetry-blocked form, NReq=5749791.
          There are     9 degrees of freedom in the 1st order CPHF.  IDoFFX=6 NUNeed=     3.
      6 vectors produced by pass  0 Test12= 1.43D-14 1.11D-08 XBig12= 6.48D+01 5.94D+00.
 AX will form     6 AO Fock derivatives at one time.
      6 vectors produced by pass  1 Test12= 1.43D-14 1.11D-08 XBig12= 3.30D+01 1.64D+00.
      6 vectors produced by pass  2 Test12= 1.43D-14 1.11D-08 XBig12= 4.44D+00 1.04D+00.
      6 vectors produced by pass  3 Test12= 1.43D-14 1.11D-08 XBig12= 6.18D-01 2.58D-01.
      6 vectors produced by pass  4 Test12= 1.43D-14 1.11D-08 XBig12= 1.93D-02 2.94D-02.
      6 vectors produced by pass  5 Test12= 1.43D-14 1.11D-08 XBig12= 2.58D-04 4.10D-03.
      6 vectors produced by pass  6 Test12= 1.43D-14 1.11D-08 XBig12= 4.33D-06 7.10D-04.
      5 vectors produced by pass  7 Test12= 1.43D-14 1.11D-08 XBig12= 5.78D-08 8.32D-05.
      4 vectors produced by pass  8 Test12= 1.43D-14 1.11D-08 XBig12= 2.09D-10 4.20D-06.
      1 vectors produced by pass  9 Test12= 1.43D-14 1.11D-08 XBig12= 1.86D-12 4.82D-07.
      1 vectors produced by pass 10 Test12= 1.43D-14 1.11D-08 XBig12= 1.98D-14 4.83D-08.
 InvSVY:  IOpt=1 It=  1 EMax= 6.66D-16
 Solved reduced A of dimension    53 with     6 vectors.
 Isotropic polarizability for W=    0.000000       14.49 Bohr**3.
 End of Minotr F.D. properties file   721 does not exist.
 End of Minotr F.D. properties file   722 does not exist.
 End of Minotr F.D. properties file   788 does not exist.

 **********************************************************************

            Population analysis using the SCF Density.

 **********************************************************************

 Orbital symmetries:
 Alpha Orbitals:
       Occupied  (SG) (SG) (SG) (SG) (PI) (PI) (SG) (SG) (SG) (?A)
                 (?A) (?A) (?A)
       Virtual   (SG) (SG) (PI) (PI) (SG) (PI) (PI) (SG) (?B) (?B)
                 (PI) (PI) (?B) (SG) (?C) (?C) (PI) (PI) (?C) (?D)
                 (?D) (?D) (?E) (?E) (?D) (?D) (?E) (?D) (SG) (PI)
                 (PI) (SG) (SG) (DLTA) (DLTA) (PI) (PI) (PHI) (PHI)
                 (?F) (?F) (?F) (PI) (PI) (SG) (?G) (?G) (PI) (PI)
                 (?G) (SG)
 Beta  Orbitals:
       Occupied  (SG) (SG) (SG) (SG) (PI) (PI) (SG) (SG) (SG) (?A)
                 (?A) (?A)
       Virtual   (?A) (SG) (SG) (PI) (PI) (SG) (PI) (PI) (SG) (DLTA)
                 (DLTA) (PI) (PI) (SG) (SG) (DLTA) (DLTA) (PI)
                 (PI) (SG) (PHI) (PHI) (?B) (?B) (?A) (?B) (?A)
                 (?A) (?A) (SG) (PI) (PI) (SG) (SG) (DLTA) (DLTA)
                 (PI) (PI) (PHI) (PHI) (DLTA) (DLTA) (SG) (PI)
                 (PI) (SG) (DLTA) (DLTA) (PI) (PI) (SG) (SG)
 Unable to determine electronic state:  an orbital has unidentified symmetry.
 Alpha  occ. eigenvalues -- -101.60704 -19.22887  -9.54629  -7.30890  -7.30398
 Alpha  occ. eigenvalues --   -7.29583  -1.09970  -0.80191  -0.49604  -0.48872
 Alpha  occ. eigenvalues --   -0.45187  -0.33687  -0.29889
 Alpha virt. eigenvalues --   -0.05903   0.26271   0.27421   0.28452   0.32250
 Alpha virt. eigenvalues --    0.33657   0.35476   0.37134   0.49303   0.49306
 Alpha virt. eigenvalues --    0.52850   0.54438   0.64725   0.91480   1.39627
 Alpha virt. eigenvalues --    1.39633   1.50863   1.53545   1.84706   2.04889
 Alpha virt. eigenvalues --    2.04904   2.06265   2.08370   2.08617   2.09857
 Alpha virt. eigenvalues --    2.11396   2.11548   2.13008   2.37025   2.50139
 Alpha virt. eigenvalues --    2.52891   2.68049   3.29534   3.41126   3.41129
 Alpha virt. eigenvalues --    3.52000   3.53566   3.92655   3.92660   4.01608
 Alpha virt. eigenvalues --    4.01740   4.17775   4.45536   4.48609   5.13435
 Alpha virt. eigenvalues --    5.92588   5.92592   6.19254   6.23635   6.62332
 Alpha virt. eigenvalues --   33.07440
  Beta  occ. eigenvalues -- -101.60482 -19.20808  -9.54421  -7.30822  -7.29635
  Beta  occ. eigenvalues --   -7.29461  -1.06446  -0.76991  -0.47807  -0.44226
  Beta  occ. eigenvalues --   -0.41671  -0.28505
  Beta virt. eigenvalues --   -0.18201  -0.04626   0.26676   0.28334   0.28563
  Beta virt. eigenvalues --    0.32763   0.35939   0.37271   0.37665   0.50976
  Beta virt. eigenvalues --    0.51023   0.54469   0.54637   0.65784   0.92405
  Beta virt. eigenvalues --    1.43014   1.43269   1.53916   1.54162   1.86249
  Beta virt. eigenvalues --    2.06557   2.06561   2.09792   2.09839   2.10879
  Beta virt. eigenvalues --    2.11689   2.12669   2.13045   2.13222   2.37901
  Beta virt. eigenvalues --    2.53457   2.53996   2.69910   3.31658   3.41908
  Beta virt. eigenvalues --    3.41930   3.53190   3.53637   3.96841   3.96910
  Beta virt. eigenvalues --    4.04441   4.04643   4.18980   4.49120   4.49136
  Beta virt. eigenvalues --    5.15482   5.99518   6.00244   6.24771   6.26304
  Beta virt. eigenvalues --    6.64789  33.07812
          Condensed to atoms (all electrons):
               1          2
     1  Cl  16.725965   0.037220
     2  O    0.037220   8.199595
          Atomic-Atomic Spin Densities.
               1          2
     1  Cl   0.394324  -0.114880
     2  O   -0.114880   0.835436
 Mulliken charges and spin densities:
               1          2
     1  Cl   0.236815   0.279444
     2  O   -0.236815   0.720556
 Sum of Mulliken charges =   0.00000   1.00000
 Mulliken charges and spin densities with hydrogens summed into heavy atoms:
               1          2
     1  Cl   0.236815   0.279444
     2  O   -0.236815   0.720556
 APT charges:
               1
     1  Cl   0.046956
     2  O   -0.046956
 Sum of APT charges =   0.00000
 APT charges with hydrogens summed into heavy atoms:
               1
     1  Cl   0.046956
     2  O   -0.046956
 Electronic spatial extent (au):  <R**2>=             88.1972
 Charge=             -0.0000 electrons
 Dipole moment (field-independent basis, Debye):
    X=              0.0000    Y=              0.0000    Z=              1.4577  Tot=              1.4577
 Quadrupole moment (field-independent basis, Debye-Ang):
   XX=            -16.8983   YY=            -18.2505   ZZ=            -17.6568
   XY=              0.0000   XZ=              0.0000   YZ=              0.0000
 Traceless Quadrupole moment (field-independent basis, Debye-Ang):
   XX=              0.7036   YY=             -0.6487   ZZ=             -0.0549
   XY=              0.0000   XZ=              0.0000   YZ=              0.0000
 Octapole moment (field-independent basis, Debye-Ang**2):
  XXX=              0.0000  YYY=              0.0000  ZZZ=              2.6029  XYY=              0.0000
  XXY=              0.0000  XXZ=             -0.5796  XZZ=              0.0000  YZZ=              0.0000
  YYZ=             -0.2749  XYZ=              0.0000
 Hexadecapole moment (field-independent basis, Debye-Ang**3):
 XXXX=            -16.7233 YYYY=            -19.0067 ZZZZ=            -69.8581 XXXY=              0.0000
 XXXZ=              0.0000 YYYX=              0.0000 YYYZ=              0.0000 ZZZX=              0.0000
 ZZZY=              0.0000 XXYY=             -5.9550 XXZZ=            -14.6317 YYZZ=            -16.4798
 XXYZ=              0.0000 YYXZ=              0.0000 ZZXY=              0.0000
 N-N= 4.534372471926D+01 E-N=-1.363122934693D+03  KE= 5.347740164668D+02
 Symmetry A1   KE= 4.347545070379D+02
 Symmetry A2   KE= 3.239645814352D-35
 Symmetry B1   KE= 4.867952783068D+01
 Symmetry B2   KE= 5.133998159817D+01
 Symmetry A1   SP= 1.270895010324D-15
 Symmetry A2   SP= 7.614185546586D-36
 Symmetry B1   SP= 1.000000000000D+00
 Symmetry B2   SP=-1.648858052048D-15
  Exact polarizability:   9.078   0.000   9.067   0.000   0.000  25.319
 Approx polarizability:  13.252  -0.000  12.248  -0.000  -0.000  46.586
                          Isotropic Fermi Contact Couplings
        Atom                 a.u.       MegaHertz       Gauss      10(-4) cm-1
     1  Cl(35)             0.03875      16.98890       6.06206       5.66689
     2  O(17)              0.15752     -95.48834     -34.07261     -31.85148
 --------------------------------------------------------
       Center         ----  Spin Dipole Couplings  ----
                      3XX-RR        3YY-RR        3ZZ-RR
 --------------------------------------------------------
     1   Atom        2.204213     -0.993658     -1.210554
     2   Atom        3.170645     -1.612097     -1.558548
 --------------------------------------------------------
                        XY            XZ            YZ
 --------------------------------------------------------
     1   Atom        0.000000      0.000000      0.000000
     2   Atom        0.000000      0.000000      0.000000
 --------------------------------------------------------


 ---------------------------------------------------------------------------------
              Anisotropic Spin Dipole Couplings in Principal Axis System
 ---------------------------------------------------------------------------------

       Atom             a.u.   MegaHertz   Gauss  10(-4) cm-1        Axes

              Baa    -1.2106   -63.358   -22.608   -21.134  0.0000  0.0000  1.0000
     1 Cl(35) Bbb    -0.9937   -52.006   -18.557   -17.347 -0.0000  1.0000  0.0000
              Bcc     2.2042   115.363    41.164    38.481  1.0000  0.0000  0.0000
 
              Baa    -1.6121   116.650    41.624    38.910 -0.0000  1.0000  0.0000
     2 O(17)  Bbb    -1.5585   112.775    40.241    37.618  0.0000  0.0000  1.0000
              Bcc     3.1706  -229.426   -81.865   -76.528  1.0000  0.0000  0.0000
 

 ---------------------------------------------------------------------------------

 Calling FoFJK, ICntrl=    100127 FMM=F ISym2X=1 I1Cent= 0 IOpClX= 1 NMat=1 NMatS=1 NMatT=0.
 Full mass-weighted force constant matrix:
 Low frequencies ---   -9.5166   -8.9877    0.0032    0.0041    0.0051  850.6275
 Diagonal vibrational polarizability:
        0.0000000       0.0000000       0.1927610
 Harmonic frequencies (cm**-1), IR intensities (KM/Mole), Raman scattering
 activities (A**4/AMU), depolarization ratios for plane and unpolarized
 incident light, reduced masses (AMU), force constants (mDyne/A),
 and normal coordinates:
                      1
                     SG
 Frequencies --    850.6275
 Red. masses --     19.2778
 Frc consts  --      8.2184
 IR Inten    --      5.1828
  Atom  AN      X      Y      Z
     1  17    -0.00  -0.00  -0.42
     2   8    -0.00  -0.00   0.91

 -------------------
 - Thermochemistry -
 -------------------
 Temperature   298.150 Kelvin.  Pressure   1.00000 Atm.
 Atom     1 has atomic number 17 and mass  34.96885
 Atom     2 has atomic number  8 and mass  15.99491
 Molecular mass:    50.96377 amu.
 Principal axes and moments of inertia in atomic units:
                           1         2         3
     Eigenvalues --     0.00000  98.72911  98.72911
           X            0.00000  -0.00000   1.00000
           Y            0.00000   1.00000   0.00000
           Z            1.00000   0.00000   0.00000
 This molecule is a prolate symmetric top.
 Rotational symmetry number  1.
 Rotational temperature (Kelvin)      0.87729
 Rotational constant (GHZ):          18.279727
 Zero-point vibrational energy       5087.9 (Joules/Mol)
                                    1.21603 (Kcal/Mol)
 Vibrational temperatures:   1223.86
          (Kelvin)
 
 Zero-point correction=                           0.001938 (Hartree/Particle)
 Thermal correction to Energy=                    0.004363
 Thermal correction to Enthalpy=                  0.005308
 Thermal correction to Gibbs Free Energy=        -0.019792
 Sum of electronic and zero-point Energies=           -535.373261
 Sum of electronic and thermal Energies=              -535.370836
 Sum of electronic and thermal Enthalpies=            -535.369892
 Sum of electronic and thermal Free Energies=         -535.394991
 
                     E (Thermal)             CV                S
                      KCal/Mol        Cal/Mol-Kelvin    Cal/Mol-Kelvin
 Total                    2.738              5.539             52.826
 Electronic               0.000              0.000              1.377
 Translational            0.889              2.981             37.709
 Rotational               0.592              1.987             13.570
 Vibrational              1.257              0.571              0.170
                       Q            Log10(Q)             Ln(Q)
 Total Bot       0.126921D+10          9.103532         20.961658
 Total V=0       0.988304D+10          9.994891         23.014086
 Vib (Bot)       0.130576D+00         -0.884136         -2.035799
 Vib (V=0)       0.101677D+01          0.007222          0.016630
 Electronic      0.200000D+01          0.301030          0.693147
 Translational   0.143003D+08          7.155346         16.475793
 Rotational      0.339854D+03          2.531292          5.828516
 ***** Axes restored to original set *****
 -------------------------------------------------------------------
 Center     Atomic                   Forces (Hartrees/Bohr)
 Number     Number              X              Y              Z
 -------------------------------------------------------------------
      1       17          -0.000000000   -0.000000000   -0.000001321
      2        8          -0.000000000   -0.000000000    0.000001321
 -------------------------------------------------------------------
 Cartesian Forces:  Max     0.000001321 RMS     0.000000762
 FormGI is forming the generalized inverse of G from B-inverse, IUseBI=4.

 GradGradGradGradGradGradGradGradGradGradGradGradGradGradGradGradGradGrad
 Berny optimization.
 Internal  Forces:  Max     0.000001321 RMS     0.000001321
 Search for a local minimum.
 Step number   1 out of a maximum of    2
 All quantities printed in internal units (Hartrees-Bohrs-Radians)
 Second derivative matrix not updated -- analytic derivatives used.
 The second derivative matrix:
                          R1
           R1           0.30052
 ITU=  0
     Eigenvalues ---    0.30052
 Angle between quadratic step and forces=   0.00 degrees.
 Linear search not attempted -- first point.
 Iteration  1 RMS(Cart)=  0.00000311 RMS(Int)=  0.00000000
 Iteration  2 RMS(Cart)=  0.00000000 RMS(Int)=  0.00000000
 ClnCor:  largest displacement from symmetrization is 0.00D+00 for atom     0.
 Variable       Old X    -DE/DX   Delta X   Delta X   Delta X     New X
                                 (Linear)    (Quad)   (Total)
    R1        2.99931   0.00000   0.00000   0.00000   0.00000   2.99932
         Item               Value     Threshold  Converged?
 Maximum Force            0.000001     0.000450     YES
 RMS     Force            0.000001     0.000300     YES
 Maximum Displacement     0.000002     0.001800     YES
 RMS     Displacement     0.000003     0.001200     YES
 Predicted change in Energy=-2.901222D-12
 Optimization completed.
    -- Stationary point found.
                           ----------------------------
                           !   Optimized Parameters   !
                           ! (Angstroms and Degrees)  !
 --------------------------                            --------------------------
 ! Name  Definition              Value          Derivative Info.                !
 --------------------------------------------------------------------------------
 ! R1    R(1,2)                  1.5872         -DE/DX =    0.0                 !
 --------------------------------------------------------------------------------
 GradGradGradGradGradGradGradGradGradGradGradGradGradGradGradGradGradGrad


 ----------------------------------------------------------------------

 Electric dipole moment (input orientation):
 (Debye = 10**-18 statcoulomb cm , SI units = C m)
                  (au)            (Debye)         (10**-30 SI)
   Tot        0.573490D+00      0.145767D+01      0.486225D+01
   x          0.000000D+00      0.000000D+00      0.000000D+00
   y          0.000000D+00      0.000000D+00      0.000000D+00
   z         -0.573490D+00     -0.145767D+01     -0.486225D+01

 Dipole polarizability, Alpha (input orientation).
 (esu units = cm**3 , SI units = C**2 m**2 J**-1)
 Alpha(0;0):
               (au)            (10**-24 esu)      (10**-40 SI)
   iso        0.144879D+02      0.214688D+01      0.238873D+01
   aniso      0.162465D+02      0.240748D+01      0.267868D+01
   xx         0.907824D+01      0.134526D+01      0.149680D+01
   yx         0.000000D+00      0.000000D+00      0.000000D+00
   yy         0.906653D+01      0.134352D+01      0.149487D+01
   zx         0.000000D+00      0.000000D+00      0.000000D+00
   zy         0.000000D+00      0.000000D+00      0.000000D+00
   zz         0.253189D+02      0.375187D+01      0.417452D+01

 ----------------------------------------------------------------------

 Dipole orientation:
    17          0.00000000          0.00000000          0.08236165
     8          0.00000000          0.00000000         -2.91695084

 Electric dipole moment (dipole orientation):
 (Debye = 10**-18 statcoulomb cm , SI units = C m)
                  (au)            (Debye)         (10**-30 SI)
   Tot        0.573490D+00      0.145767D+01      0.486225D+01
   x          0.000000D+00      0.000000D+00      0.000000D+00
   y          0.000000D+00      0.000000D+00      0.000000D+00
   z          0.573490D+00      0.145767D+01      0.486225D+01

 Dipole polarizability, Alpha (dipole orientation).
 (esu units = cm**3 , SI units = C**2 m**2 J**-1)
 Alpha(0;0):
               (au)            (10**-24 esu)      (10**-40 SI)
   iso        0.144879D+02      0.214688D+01      0.238873D+01
   aniso      0.162465D+02      0.240748D+01      0.267868D+01
   xx         0.907824D+01      0.134526D+01      0.149680D+01
   yx         0.000000D+00      0.000000D+00      0.000000D+00
   yy         0.906653D+01      0.134352D+01      0.149487D+01
   zx         0.000000D+00      0.000000D+00      0.000000D+00
   zy         0.000000D+00      0.000000D+00      0.000000D+00
   zz         0.253189D+02      0.375187D+01      0.417452D+01

 ----------------------------------------------------------------------
 1\1\GINC-GAMBA\Freq\UB3LYP\Gen\Cl1O1(2)\IRIKURA\15-Jun-2022\0\\#N Geom
 =AllCheck Guess=TCheck SCRF=Check GenChk UB3LYP/ChkBas Freq\\ClO, B3LY
 P/pcseg-2\\0,2\Cl,0.,0.,-0.0435839097\O,0.,0.,1.5435839097\\Version=ES
 64L-G16RevB.01\HF=-535.3751992\S2=0.754726\S2-1=0.\S2A=0.750015\RMSD=1
 .677e-09\RMSF=7.624e-07\ZeroPoint=0.0019379\Thermal=0.0043633\Dipole=0
 .,0.,-0.5734898\DipoleDeriv=0.1912096,0.,0.,0.,0.191208,0.,0.,0.,-0.24
 15504,-0.1912096,0.,0.,0.,-0.191208,0.,0.,0.,0.2415504\Polar=9.0782426
 ,0.,9.0665334,0.,0.,25.3188728\Quadrupole=0.5230978,-0.4822793,-0.0408
 185,0.,0.,0.\PG=C*V [C*(O1Cl1)]\NImag=0\\-0.00003355,0.,-0.00003761,0.
 ,0.,0.30051912,0.00003355,0.,0.,-0.00003355,0.,0.00003761,0.,0.,-0.000
 03761,0.,0.,-0.30051912,0.,0.,0.30051912\\0.,0.,0.00000132,0.,0.,-0.00
 000132\\\@


 ... UNTIL SCIENCE IS MIXED WITH EMOTION AND APPEALS TO THE HEART AND
 IMAGINATION , IT IS LIKE DEAD INORGANIC MATTER; AND WHEN IT IS SO MIXED
 AND SO TRANSFORMED IT IS LITERATURE.

                                  -- JOHN BURROUGHS
 Job cpu time:       0 days  0 hours  0 minutes 25.9 seconds.
 Elapsed time:       0 days  0 hours  0 minutes  6.5 seconds.
 File lengths (MBytes):  RWF=     10 Int=      0 D2E=      0 Chk=      2 Scr=      1
 Normal termination of Gaussian 16 at Wed Jun 15 11:02:00 2022.
