 Entering Gaussian System, Link 0=g16
 AtFile(1): pcseg2.gbs
            -H     0
            S   4   1.00
                  0.754732D+02           0.427821D-02
                  0.113575D+02           0.328672D-01
                  0.260081D+01           0.159578D+00
                  0.735503D+00           0.500000D+00
            S   1   1.00
                  0.231761D+00           1.0000000
            S   1   1.00
                  0.741675D-01           1.0000000
            P   1   1.00
                  0.160000D+01           1.0000000
            P   1   1.00
                  0.450000D+00           1.0000000
            D   1   1.00
                  0.125000D+01           1.0000000
            ****
            -C     0
            S   7   1.00
                  0.731999D+04           0.695369D-03
                  0.109818D+04           0.537138D-02
                  0.250014D+03           0.274734D-01
                  0.707586D+02           0.105078D+00
                  0.228595D+02           0.291262D+00
                  0.803936D+01           0.500000D+00
                  0.289309D+01           0.362224D+00
            S   2   1.00
                  0.521640D+01          -0.957844D-01
                  0.556124D+00           0.500000D+00
            S   1   1.00
                  0.228813D+00           1.0000000
            S   1   1.00
                  0.936338D-01           1.0000000
            P   4   1.00
                  0.339855D+02           0.818395D-02
                  0.772957D+01           0.586921D-01
                  0.224954D+01           0.222514D+00
                  0.767681D+00           0.500000D+00
            P   1   1.00
                  0.263283D+00           1.0000000
            P   1   1.00
                  0.848744D-01           1.0000000
            D   1   1.00
                  0.140000D+01           1.0000000
            D   1   1.00
                  0.450000D+00           1.0000000
            F   1   1.00
                  0.950000D+00           1.0000000
            ****
            -O     0
            S   7   1.00
                  0.135887D+05           0.665492D-03
                  0.203847D+04           0.514222D-02
                  0.464041D+03           0.263472D-01
                  0.131339D+03           0.101500D+00
                  0.425340D+02           0.285877D+00
                  0.150429D+02           0.500000D+00
                  0.546616D+01           0.368211D+00
            S   2   1.00
                  0.100915D+02          -0.100084D+00
                  0.110429D+01           0.500000D+00
            S   1   1.00
                  0.448082D+00           1.0000000
            S   1   1.00
                  0.175325D+00           1.0000000
            P   4   1.00
                  0.608220D+02           0.908253D-02
                  0.140332D+02           0.645878D-01
                  0.418244D+01           0.241502D+00
                  0.142490D+01           0.500000D+00
            P   1   1.00
                  0.478741D+00           1.0000000
            P   1   1.00
                  0.146257D+00           1.0000000
            D   1   1.00
                  0.220000D+01           1.0000000
            D   1   1.00
                  0.650000D+00           1.0000000
            F   1   1.00
                  0.110000D+01           1.0000000
            ****
            -N     0
            S   7   1.00
                  0.101643D+05           0.682757D-03
                  0.152481D+04           0.527488D-02
                  0.347119D+03           0.270037D-01
                  0.982389D+02           0.103673D+00
                  0.317799D+02           0.289575D+00
                  0.112240D+02           0.500000D+00
                  0.406611D+01           0.364621D+00
            S   2   1.00
                  0.747898D+01          -0.975681D-01
                  0.805040D+00           0.500000D+00
            S   1   1.00
                  0.324626D+00           1.0000000
            S   1   1.00
                  0.128132D+00           1.0000000
            P   4   1.00
                  0.482704D+02           0.829547D-02
                  0.110815D+02           0.596223D-01
                  0.326643D+01           0.227889D+00
                  0.111680D+01           0.500000D+00
            P   1   1.00
                  0.382049D+00           1.0000000
            P   1   1.00
                  0.121222D+00           1.0000000
            D   1   1.00
                  0.180000D+01           1.0000000
            D   1   1.00
                  0.550000D+00           1.0000000
            F   1   1.00
                  0.102000D+01           1.0000000
            ****
            -F     0
            S   7   1.00
                  0.174507D+05           0.655972D-03
                  0.261768D+04           0.506944D-02
                  0.595857D+03           0.259899D-01
                  0.168651D+03           0.100353D+00
                  0.546654D+02           0.284095D+00
                  0.193717D+02           0.500000D+00
                  0.706202D+01           0.370721D+00
            S   2   1.00
                  0.131197D+02          -0.101997D+00
                  0.145046D+01           0.500000D+00
            S   1   1.00
                  0.588255D+00           1.0000000
            S   1   1.00
                  0.227960D+00           1.0000000
            P   4   1.00
                  0.779407D+02           0.931135D-02
                  0.180425D+02           0.663964D-01
                  0.542342D+01           0.246386D+00
                  0.184876D+01           0.500000D+00
            P   1   1.00
                  0.617455D+00           1.0000000
            P   1   1.00
                  0.185496D+00           1.0000000
            D   1   1.00
                  0.280000D+01           1.0000000
            D   1   1.00
                  0.800000D+00           1.0000000
            F   1   1.00
                  0.120000D+01           1.0000000
            ****
            -Cl     0
            S   8   1.00
                  0.154272D+06           0.222473D-03
                  0.231232D+05           0.172590D-02
                  0.526257D+04           0.899286D-02
                  0.148995D+04           0.367724D-01
                  0.485417D+03           0.121446D+00
                  0.174634D+03           0.304148D+00
                  0.672393D+02           0.500000D+00
                  0.265780D+02           0.360252D+00
            S   3   1.00
                  0.131826D+03          -0.531330D-01
                  0.400703D+02          -0.233346D+00
                  0.789448D+01           0.500000D+00
            S   2   1.00
                  0.427711D+01           0.500000D+00
                  0.196233D+01           0.370517D+00
            S   1   1.00
                  0.520793D+00           1.0000000
            S   1   1.00
                  0.181633D+00           1.0000000
            P   7   1.00
                  0.124440D+04           0.988206D-03
                  0.295109D+03           0.829674D-02
                  0.947224D+02           0.430906D-01
                  0.352588D+02           0.148443D+00
                  0.144211D+02           0.344744D+00
                  0.610371D+01           0.500000D+00
                  0.258886D+01           0.348278D+00
            P   2   1.00
                  0.109447D+02          -0.196768D-01
                  0.104413D+01           0.500000D+00
            P   1   1.00
                  0.376184D+00           1.0000000
            P   1   1.00
                  0.120613D+00           1.0000000
            D   1   1.00
                  0.231000D+01           1.0000000
            D   1   1.00
                  0.520000D+00           1.0000000
            F   1   1.00
                  0.720000D+00           1.0000000
            ****
            -S     0
            S   8   1.00
                  0.134700D+06           0.226231D-03
                  0.201904D+05           0.175488D-02
                  0.459528D+04           0.914190D-02
                  0.130109D+04           0.373551D-01
                  0.423902D+03           0.123121D+00
                  0.152485D+03           0.306801D+00
                  0.586925D+02           0.500000D+00
                  0.231461D+02           0.354358D+00
            S   3   1.00
                  0.116327D+03          -0.491772D-01
                  0.352841D+02          -0.215962D+00
                  0.677831D+01           0.500000D+00
            S   2   1.00
                  0.360404D+01           0.500000D+00
                  0.164871D+01           0.366278D+00
            S   1   1.00
                  0.421821D+00           1.0000000
            S   1   1.00
                  0.147554D+00           1.0000000
            P   7   1.00
                  0.104863D+04           0.105273D-02
                  0.248717D+03           0.879338D-02
                  0.797887D+02           0.453358D-01
                  0.296023D+02           0.154476D+00
                  0.120627D+02           0.352366D+00
                  0.507628D+01           0.500000D+00
                  0.213375D+01           0.346429D+00
            P   2   1.00
                  0.928958D+01          -0.185932D-01
                  0.837819D+00           0.500000D+00
            P   1   1.00
                  0.301495D+00           1.0000000
            P   1   1.00
                  0.974740D-01           1.0000000
            D   1   1.00
                  0.210000D+01           1.0000000
            D   1   1.00
                  0.480000D+00           1.0000000
            F   1   1.00
                  0.660000D+00           1.0000000
            ****
            -Br     0
            S    10   1.00
                  0.233625D+07           0.532336D-04
                  0.349961D+06           0.413715D-03
                  0.796444D+05           0.217123D-02
                  0.225555D+05           0.910109D-02
                  0.735546D+04           0.323789D-01
                  0.265352D+04           0.988755D-01
                  0.103517D+04           0.248138D+00
                  0.422205D+03           0.474328D+00
                  0.180035D+03           0.500000D+00
                  0.793308D+02           0.187769D+00
            S    4   1.00
                  0.620834D+03          -0.226511D-01
                  0.190829D+03          -0.109497D+00
                  0.312505D+02           0.500000D+00
                  0.135270D+02           0.492812D+00
            S    2   1.00
                  0.216097D+02          -0.165418D+00
                  0.372566D+01           0.500000D+00
            S    1   1.00
                  0.169770D+01           1.0000000
            S    1   1.00
                  0.489332D+00           1.0000000
            S    1   1.00
                  0.175712D+00           1.0000000
            P    8   1.00
                  0.960829D+04           0.478974D-03
                  0.227618D+04           0.417853D-02
                  0.736723D+03           0.229315D-01
                  0.281579D+03           0.892653D-01
                  0.118395D+03           0.255288D+00
                  0.527481D+02           0.479074D+00
                  0.245098D+02           0.500000D+00
                  0.112009D+02           0.200944D+00
            P    4   1.00
                  0.587849D+02          -0.189674D-01
                  0.918962D+01           0.264104D+00
                  0.413895D+01           0.500000D+00
                  0.184225D+01           0.319316D+00
            P    1   1.00
                  0.713862D+00           1.0000000
            P    1   1.00
                  0.274232D+00           1.0000000
            P    1   1.00
                  0.944411D-01           1.0000000
            D    7   1.00
                  0.398470D+03           0.204066D-02
                  0.118967D+03           0.175171D-01
                  0.450197D+02           0.829708D-01
                  0.190320D+02           0.236284D+00
                  0.855686D+01           0.428468D+00
                  0.382950D+01           0.500000D+00
                  0.166291D+01           0.349360D+00
            D    1   1.00
                  0.672953D+00           1.0000000
            D    1   1.00
                  0.252000D+00           1.0000000
            F    1   1.00
                  0.530000D+00           1.0000000
            ****
            -Si     0
            S    8   1.00
                  0.996133D+05           0.235546D-03
                  0.149311D+05           0.182707D-02
                  0.339820D+04           0.951425D-02
                  0.962140D+03           0.388172D-01
                  0.313430D+03           0.127328D+00
                  0.112683D+03           0.313522D+00
                  0.433372D+02           0.500000D+00
                  0.170029D+02           0.340347D+00
            S    3   1.00
                  0.884208D+02          -0.404451D-01
                  0.266756D+02          -0.178059D+00
                  0.479640D+01           0.500000D+00
            S    2   1.00
                  0.239385D+01           0.500000D+00
                  0.108333D+01           0.338016D+00
            S    1   1.00
                  0.252420D+00           1.0000000
            S    1   1.00
                  0.891210D-01           1.0000000
            P    7   1.00
                  0.709901D+03           0.123028D-02
                  0.168426D+03           0.101366D-01
                  0.539946D+02           0.511840D-01
                  0.198646D+02           0.169967D+00
                  0.801369D+01           0.370717D+00
                  0.331870D+01           0.500000D+00
                  0.136112D+01           0.344128D+00
            P    2   1.00
                  0.622158D+01          -0.166609D-01
                  0.503049D+00           0.500000D+00
            P    1   1.00
                  0.179848D+00           1.0000000
            P    1   1.00
                  0.591912D-01           1.0000000
            D    1   1.00
                  0.168000D+01           1.0000000
            D    1   1.00
                  0.380000D+00           1.0000000
            F    1   1.00
                  0.540000D+00           1.0000000
            ****
            -P     0
            S    8   1.00
                  0.116416D+06           0.230715D-03
                  0.174500D+05           0.178960D-02
                  0.397149D+04           0.932116D-02
                  0.112447D+04           0.380591D-01
                  0.366347D+03           0.125148D+00
                  0.131757D+03           0.310022D+00
                  0.506988D+02           0.500000D+00
                  0.199436D+02           0.347528D+00
            S    3   1.00
                  0.101878D+03          -0.446755D-01
                  0.308249D+02          -0.196376D+00
                  0.573688D+01           0.500000D+00
            S    2   1.00
                  0.296868D+01           0.500000D+00
                  0.135315D+01           0.355098D+00
            S    1   1.00
                  0.332196D+00           1.0000000
            S    1   1.00
                  0.116229D+00           1.0000000
            P    7   1.00
                  0.873928D+03           0.112375D-02
                  0.207298D+03           0.933330D-02
                  0.664628D+02           0.477213D-01
                  0.245665D+02           0.160733D+00
                  0.996820D+01           0.359760D+00
                  0.416536D+01           0.500000D+00
                  0.173022D+01           0.346593D+00
            P    2   1.00
                  0.772530D+01          -0.175718D-01
                  0.657252D+00           0.500000D+00
            P    1   1.00
                  0.239903D+00           1.0000000
            P    1   1.00
                  0.800988D-01           1.0000000
            D    1   1.00
                  0.189000D+01           1.0000000
            D    1   1.00
                  0.430000D+00           1.0000000
            F    1   1.00
                  0.600000D+00           1.0000000
            ****
            
 Initial command:
 /usr/local/apps/g16_b01_avx/g16/l1.exe "/wrk/irikura/Gau-3788791.inp" -scrdir="/wrk/irikura/"
 Entering Link 1 = /usr/local/apps/g16_b01_avx/g16/l1.exe PID=   3788793.
  
 Copyright (c) 1988-2017, Gaussian, Inc.  All Rights Reserved.
  
 This is part of the Gaussian(R) 16 program.  It is based on
 the Gaussian(R) 09 system (copyright 2009, Gaussian, Inc.),
 the Gaussian(R) 03 system (copyright 2003, Gaussian, Inc.),
 the Gaussian(R) 98 system (copyright 1998, Gaussian, Inc.),
 the Gaussian(R) 94 system (copyright 1995, Gaussian, Inc.),
 the Gaussian 92(TM) system (copyright 1992, Gaussian, Inc.),
 the Gaussian 90(TM) system (copyright 1990, Gaussian, Inc.),
 the Gaussian 88(TM) system (copyright 1988, Gaussian, Inc.),
 the Gaussian 86(TM) system (copyright 1986, Carnegie Mellon
 University), and the Gaussian 82(TM) system (copyright 1983,
 Carnegie Mellon University). Gaussian is a federally registered
 trademark of Gaussian, Inc.
  
 This software contains proprietary and confidential information,
 including trade secrets, belonging to Gaussian, Inc.
  
 This software is provided under written license and may be
 used, copied, transmitted, or stored only in accord with that
 written license.
  
 The following legend is applicable only to US Government
 contracts under FAR:
  
                    RESTRICTED RIGHTS LEGEND
  
 Use, reproduction and disclosure by the US Government is
 subject to restrictions as set forth in subparagraphs (a)
 and (c) of the Commercial Computer Software - Restricted
 Rights clause in FAR 52.227-19.
  
 Gaussian, Inc.
 340 Quinnipiac St., Bldg. 40, Wallingford CT 06492
  
  
 ---------------------------------------------------------------
 Warning -- This program may not be used in any manner that
 competes with the business of Gaussian, Inc. or will provide
 assistance to any competitor of Gaussian, Inc.  The licensee
 of this program is prohibited from giving any competitor of
 Gaussian, Inc. access to this program.  By using this program,
 the user acknowledges that Gaussian, Inc. is engaged in the
 business of creating and licensing software in the field of
 computational chemistry and represents and warrants to the
 licensee that it is not a competitor of Gaussian, Inc. and that
 it will not use this program in any manner prohibited above.
 ---------------------------------------------------------------
  

 Cite this work as:
 Gaussian 16, Revision B.01,
 M. J. Frisch, G. W. Trucks, H. B. Schlegel, G. E. Scuseria, 
 M. A. Robb, J. R. Cheeseman, G. Scalmani, V. Barone, 
 G. A. Petersson, H. Nakatsuji, X. Li, M. Caricato, A. V. Marenich, 
 J. Bloino, B. G. Janesko, R. Gomperts, B. Mennucci, H. P. Hratchian, 
 J. V. Ortiz, A. F. Izmaylov, J. L. Sonnenberg, D. Williams-Young, 
 F. Ding, F. Lipparini, F. Egidi, J. Goings, B. Peng, A. Petrone, 
 T. Henderson, D. Ranasinghe, V. G. Zakrzewski, J. Gao, N. Rega, 
 G. Zheng, W. Liang, M. Hada, M. Ehara, K. Toyota, R. Fukuda, 
 J. Hasegawa, M. Ishida, T. Nakajima, Y. Honda, O. Kitao, H. Nakai, 
 T. Vreven, K. Throssell, J. A. Montgomery, Jr., J. E. Peralta, 
 F. Ogliaro, M. J. Bearpark, J. J. Heyd, E. N. Brothers, K. N. Kudin, 
 V. N. Staroverov, T. A. Keith, R. Kobayashi, J. Normand, 
 K. Raghavachari, A. P. Rendell, J. C. Burant, S. S. Iyengar, 
 J. Tomasi, M. Cossi, J. M. Millam, M. Klene, C. Adamo, R. Cammi, 
 J. W. Ochterski, R. L. Martin, K. Morokuma, O. Farkas, 
 J. B. Foresman, and D. J. Fox, Gaussian, Inc., Wallingford CT, 2016.
 
 ******************************************
 Gaussian 16:  ES64L-G16RevB.01 20-Dec-2017
                 2-Jan-2024 
 ******************************************
 %chk=cloo.chk
 %mem=500mw
 %nprocs=4
 Will use up to    4 processors via shared memory.
 -----------------------------------------------
 # b3lyp/gen opt freq CPHF(Grid=OneStep) scf=xqc
 -----------------------------------------------
 1/18=20,19=15,26=3,38=1/1,3;
 2/9=110,12=2,17=6,18=5,40=1/2;
 3/5=7,11=2,25=1,30=1,71=1,74=-5/1,2,3;
 4//1;
 5/5=2,8=3,13=1,38=5/2,8;
 6/7=2,8=2,9=2,10=2,28=1/1;
 7//1,2,3,16;
 1/18=20,19=15,26=3/3(2);
 2/9=110/2;
 99//99;
 2/9=110/2;
 3/5=7,6=1,11=2,25=1,30=1,71=1,74=-5,82=7/1,2,3;
 4/5=5,16=3,69=1/1;
 5/5=2,8=3,13=1,38=5/2,8;
 7//1,2,3,16;
 1/18=20,19=15,26=3/3(-5);
 2/9=110/2;
 6/7=2,8=2,9=2,10=2,19=2,28=1/1;
 99/9=1/99;
 ----------------------------
 chloroperoxyl, B3LYP/pcseg-2
 ----------------------------
 Symbolic Z-matrix:
 Charge =  0 Multiplicity = 2
 Cl                   -0.5481   -1.13599   0. 
 O                     0.00008   1.07284   0. 
 O                     1.16443   1.34113   0. 
 
 Add virtual bond connecting atoms O2         and Cl1        Dist= 4.30D+00.

 GradGradGradGradGradGradGradGradGradGradGradGradGradGradGradGradGradGrad
 Berny optimization.
 Initialization pass.
                           ----------------------------
                           !    Initial Parameters    !
                           ! (Angstroms and Degrees)  !
 --------------------------                            --------------------------
 ! Name  Definition              Value          Derivative Info.                !
 --------------------------------------------------------------------------------
 ! R1    R(1,2)                  2.2758         estimate D2E/DX2                !
 ! R2    R(2,3)                  1.1949         estimate D2E/DX2                !
 ! A1    A(1,2,3)              116.9137         estimate D2E/DX2                !
 --------------------------------------------------------------------------------
 Trust Radius=3.00D-01 FncErr=1.00D-07 GrdErr=1.00D-06 EigMax=2.50D+02 EigMin=1.00D-04
 Number of steps in this run=     20 maximum allowed number of steps=    100.
 GradGradGradGradGradGradGradGradGradGradGradGradGradGradGradGradGradGrad

                          Input orientation:                          
 ---------------------------------------------------------------------
 Center     Atomic      Atomic             Coordinates (Angstroms)
 Number     Number       Type             X           Y           Z
 ---------------------------------------------------------------------
      1         17           0       -0.548097   -1.135985    0.000000
      2          8           0        0.000081    1.072836    0.000000
      3          8           0        1.164427    1.341129    0.000000
 ---------------------------------------------------------------------
                    Distance matrix (angstroms):
                    1          2          3
     1  Cl   0.000000
     2  O    2.275827   0.000000
     3  O    3.011450   1.194857   0.000000
 Stoichiometry    ClO2(2)
 Framework group  CS[SG(ClO2)]
 Deg. of freedom     3
 Full point group                 CS      NOp   2
 Largest Abelian subgroup         CS      NOp   2
 Largest concise Abelian subgroup C1      NOp   1
                         Standard orientation:                         
 ---------------------------------------------------------------------
 Center     Atomic      Atomic             Coordinates (Angstroms)
 Number     Number       Type             X           Y           Z
 ---------------------------------------------------------------------
      1         17           0       -0.547912   -1.136050    0.000000
      2          8           0        0.000000    1.072837    0.000000
      3          8           0        1.164314    1.341270    0.000000
 ---------------------------------------------------------------------
 Rotational constants (GHZ):          75.7894356           4.2899282           4.0601126
 General basis read from cards:  (5D, 7F)
 There are    75 symmetry adapted cartesian basis functions of A'  symmetry.
 There are    34 symmetry adapted cartesian basis functions of A"  symmetry.
 There are    63 symmetry adapted basis functions of A'  symmetry.
 There are    31 symmetry adapted basis functions of A"  symmetry.
    94 basis functions,   172 primitive gaussians,   109 cartesian basis functions
    17 alpha electrons       16 beta electrons
       nuclear repulsion energy        83.8652546725 Hartrees.
 NAtoms=    3 NActive=    3 NUniq=    3 SFac= 1.00D+00 NAtFMM=   60 NAOKFM=F Big=F
 Integral buffers will be    131072 words long.
 Raffenetti 2 integral format.
 Two-electron integral symmetry is turned on.
 One-electron integrals computed using PRISM.
 NBasis=    94 RedAO= T EigKep=  8.04D-04  NBF=    63    31
 NBsUse=    94 1.00D-06 EigRej= -1.00D+00 NBFU=    63    31
 ExpMin= 1.21D-01 ExpMax= 1.54D+05 ExpMxC= 1.49D+03 IAcc=3 IRadAn=         5 AccDes= 0.00D+00
 Harris functional with IExCor=  402 and IRadAn=       5 diagonalized for initial guess.
 HarFok:  IExCor=  402 AccDes= 0.00D+00 IRadAn=         5 IDoV= 1 UseB2=F ITyADJ=14
 ICtDFT=  3500011 ScaDFX=  1.000000  1.000000  1.000000  1.000000
 FoFCou: FMM=F IPFlag=           0 FMFlag=      100000 FMFlg1=           0
         NFxFlg=           0 DoJE=T BraDBF=F KetDBF=T FulRan=T
         wScrn=  0.000000 ICntrl=       500 IOpCl=  0 I1Cent=   200000004 NGrid=           0
         NMat0=    1 NMatS0=      1 NMatT0=    0 NMatD0=    1 NMtDS0=    0 NMtDT0=    0
 Petite list used in FoFCou.
 Initial guess orbital symmetries:
 Alpha Orbitals:
       Occupied  (A') (A') (A') (A') (A') (A') (A") (A') (A') (A')
                 (A') (A') (A") (A") (A') (A') (A")
       Virtual   (A') (A') (A') (A") (A') (A') (A') (A') (A") (A')
                 (A") (A') (A') (A') (A") (A") (A') (A') (A') (A")
                 (A') (A") (A') (A') (A") (A') (A') (A') (A") (A')
                 (A") (A") (A') (A") (A') (A') (A") (A') (A") (A')
                 (A') (A") (A') (A') (A') (A') (A") (A") (A') (A')
                 (A') (A") (A') (A") (A') (A") (A') (A") (A') (A')
                 (A') (A") (A') (A") (A') (A") (A') (A") (A') (A")
                 (A') (A") (A') (A') (A') (A') (A')
 Beta  Orbitals:
       Occupied  (A') (A') (A') (A') (A') (A') (A") (A') (A') (A')
                 (A') (A') (A") (A") (A') (A')
       Virtual   (A") (A') (A') (A') (A") (A') (A') (A') (A') (A")
                 (A') (A") (A') (A') (A') (A") (A") (A') (A') (A')
                 (A") (A') (A") (A') (A') (A") (A') (A') (A') (A")
                 (A') (A") (A") (A') (A") (A') (A') (A") (A') (A")
                 (A') (A') (A") (A') (A') (A') (A') (A") (A") (A')
                 (A') (A') (A") (A') (A") (A') (A") (A') (A") (A')
                 (A') (A') (A") (A') (A") (A') (A") (A') (A") (A')
                 (A") (A') (A") (A') (A') (A') (A') (A')
 The electronic state of the initial guess is 2-A".
 Initial guess <Sx>= 0.0000 <Sy>= 0.0000 <Sz>= 0.5000 <S**2>= 0.7500 S= 0.5000
 Keep R1 and R2 ints in memory in symmetry-blocked form, NReq=15204226.
 Requested convergence on RMS density matrix=1.00D-08 within  32 cycles.
 Requested convergence on MAX density matrix=1.00D-06.
 Requested convergence on             energy=1.00D-06.
 No special actions if energy rises.
 Integral accuracy reduced to 1.0D-05 until final iterations.
 EnCoef did     5 forward-backward iterations
 EnCoef did     3 forward-backward iterations
 Rare condition: small coef for last iteration:  0.000D+00
 Failed to achieve initial convergence to 1.0D-08 in 10 cycles.
 Switch to full accuracy anyway.
 SCF Done:  E(UB3LYP) =  -610.557958930     A.U. after   25 cycles
            NFock= 25  Conv=0.69D-08     -V/T= 2.0015
 <Sx>= 0.0000 <Sy>= 0.0000 <Sz>= 0.5000 <S**2>= 0.7865 S= 0.5181
 <L.S>=  0.00000000000    
 Annihilation of the first spin contaminant:
 S**2 before annihilation     0.7865,   after     0.7502
 QCSCF skips out because SCF is already converged.

 **********************************************************************

            Population analysis using the SCF Density.

 **********************************************************************

 Orbital symmetries:
 Alpha Orbitals:
       Occupied  (A') (A') (A') (A') (A') (A") (A') (A') (A') (A')
                 (A") (A') (A') (A") (A') (A') (A")
       Virtual   (A') (A') (A') (A") (A') (A') (A') (A') (A") (A')
                 (A") (A') (A') (A') (A") (A") (A') (A') (A') (A")
                 (A') (A") (A') (A') (A") (A') (A') (A') (A") (A")
                 (A') (A') (A") (A') (A") (A') (A") (A') (A") (A')
                 (A') (A") (A') (A') (A') (A') (A") (A') (A") (A')
                 (A') (A") (A') (A") (A') (A") (A') (A") (A') (A')
                 (A') (A") (A') (A") (A') (A") (A') (A") (A') (A")
                 (A') (A") (A') (A') (A') (A') (A')
 Beta  Orbitals:
       Occupied  (A') (A') (A') (A') (A') (A') (A") (A') (A') (A')
                 (A') (A') (A") (A') (A') (A")
       Virtual   (A') (A") (A') (A') (A") (A') (A') (A') (A') (A")
                 (A') (A") (A') (A') (A') (A") (A") (A') (A') (A')
                 (A") (A') (A") (A') (A') (A") (A') (A') (A') (A")
                 (A') (A") (A') (A") (A') (A") (A') (A") (A') (A")
                 (A') (A') (A') (A") (A') (A') (A') (A") (A') (A")
                 (A') (A') (A") (A') (A") (A') (A") (A') (A") (A')
                 (A') (A') (A") (A') (A") (A') (A') (A") (A") (A')
                 (A") (A') (A") (A') (A') (A') (A') (A')
 The electronic state is 2-A".
 Alpha  occ. eigenvalues -- -101.52409 -19.37809 -19.33511  -9.46577  -7.23045
 Alpha  occ. eigenvalues --   -7.21804  -7.21767  -1.36951  -0.88202  -0.79710
 Alpha  occ. eigenvalues --   -0.62687  -0.60869  -0.58536  -0.36519  -0.34216
 Alpha  occ. eigenvalues --   -0.32439  -0.32108
 Alpha virt. eigenvalues --   -0.21663   0.11933   0.23943   0.24719   0.27704
 Alpha virt. eigenvalues --    0.30051   0.30987   0.31958   0.33831   0.35335
 Alpha virt. eigenvalues --    0.35873   0.46236   0.52050   0.56903   0.57176
 Alpha virt. eigenvalues --    0.58805   0.60732   0.74440   0.81176   1.17320
 Alpha virt. eigenvalues --    1.21480   1.24664   1.30057   1.56851   1.56969
 Alpha virt. eigenvalues --    1.68701   1.88075   1.91587   1.94344   2.01978
 Alpha virt. eigenvalues --    2.03337   2.10507   2.10560   2.11779   2.12411
 Alpha virt. eigenvalues --    2.12424   2.12752   2.18840   2.20194   2.21076
 Alpha virt. eigenvalues --    2.30706   2.46132   2.49550   2.54872   2.60833
 Alpha virt. eigenvalues --    2.94209   3.45078   3.45772   3.49942   3.50124
 Alpha virt. eigenvalues --    3.52068   3.53226   3.61690   3.68025   3.75025
 Alpha virt. eigenvalues --    3.83024   3.88396   4.02964   4.05763   4.37491
 Alpha virt. eigenvalues --    4.51517   4.68369   4.70286   5.76624   5.80639
 Alpha virt. eigenvalues --    5.82783   5.85081   5.95945   6.00417   6.11520
 Alpha virt. eigenvalues --    6.20284   6.32853   6.37050   6.45501   7.12834
 Alpha virt. eigenvalues --   13.08914  31.42952
  Beta  occ. eigenvalues -- -101.52266 -19.36546 -19.32112  -9.46441  -7.22626
  Beta  occ. eigenvalues --   -7.21686  -7.21682  -1.34639  -0.84859  -0.78403
  Beta  occ. eigenvalues --   -0.59250  -0.58721  -0.53979  -0.33382  -0.32146
  Beta  occ. eigenvalues --   -0.32088
  Beta virt. eigenvalues --   -0.21170  -0.18310   0.13054   0.24293   0.26177
  Beta virt. eigenvalues --    0.27878   0.30666   0.31270   0.32646   0.34513
  Beta virt. eigenvalues --    0.35552   0.37782   0.46484   0.53126   0.57172
  Beta virt. eigenvalues --    0.57423   0.59875   0.61502   0.75096   0.81809
  Beta virt. eigenvalues --    1.18994   1.22496   1.27414   1.30375   1.59036
  Beta virt. eigenvalues --    1.59409   1.69597   1.88407   1.92464   1.98613
  Beta virt. eigenvalues --    2.03409   2.07319   2.11215   2.11273   2.12489
  Beta virt. eigenvalues --    2.12544   2.12623   2.14209   2.19516   2.20582
  Beta virt. eigenvalues --    2.21387   2.31653   2.49980   2.50539   2.56071
  Beta virt. eigenvalues --    2.62086   2.95495   3.45916   3.46825   3.50019
  Beta virt. eigenvalues --    3.50201   3.52435   3.54210   3.63382   3.70116
  Beta virt. eigenvalues --    3.76040   3.85402   3.88815   4.05503   4.08098
  Beta virt. eigenvalues --    4.38942   4.53490   4.70226   4.72025   5.81107
  Beta virt. eigenvalues --    5.84579   5.85583   5.87050   6.00347   6.04220
  Beta virt. eigenvalues --    6.16358   6.20645   6.36592   6.36904   6.47326
  Beta virt. eigenvalues --    7.13883  13.09934  31.43178
          Condensed to atoms (all electrons):
               1          2          3
     1  Cl  17.122256   0.078355  -0.050168
     2  O    0.078355   7.734948   0.115906
     3  O   -0.050168   0.115906   7.854611
          Atomic-Atomic Spin Densities.
               1          2          3
     1  Cl   0.213058  -0.025628   0.003810
     2  O   -0.025628   0.543486  -0.157123
     3  O    0.003810  -0.157123   0.601339
 Mulliken charges and spin densities:
               1          2
     1  Cl  -0.150443   0.191240
     2  O    0.070791   0.360735
     3  O    0.079652   0.448025
 Sum of Mulliken charges =  -0.00000   1.00000
 Mulliken charges and spin densities with hydrogens summed into heavy atoms:
               1          2
     1  Cl  -0.150443   0.191240
     2  O    0.070791   0.360735
     3  O    0.079652   0.448025
 Electronic spatial extent (au):  <R**2>=            270.3716
 Charge=             -0.0000 electrons
 Dipole moment (field-independent basis, Debye):
    X=              0.7616    Y=              1.7741    Z=              0.0000  Tot=              1.9307
 Quadrupole moment (field-independent basis, Debye-Ang):
   XX=            -23.4770   YY=            -21.5749   ZZ=            -23.2639
   XY=              0.2610   XZ=              0.0000   YZ=              0.0000
 Traceless Quadrupole moment (field-independent basis, Debye-Ang):
   XX=             -0.7050   YY=              1.1970   ZZ=             -0.4920
   XY=              0.2610   XZ=              0.0000   YZ=              0.0000
 Octapole moment (field-independent basis, Debye-Ang**2):
  XXX=              4.6934  YYY=              7.4514  ZZZ=              0.0000  XYY=              0.6469
  XXY=              3.1462  XXZ=              0.0000  XZZ=              1.7600  YZZ=              3.6416
  YYZ=              0.0000  XYZ=              0.0000
 Hexadecapole moment (field-independent basis, Debye-Ang**3):
 XXXX=            -87.7987 YYYY=           -198.0128 ZZZZ=            -23.4529 XXXY=            -47.6990
 XXXZ=              0.0000 YYYX=            -43.6263 YYYZ=              0.0000 ZZZX=              0.0000
 ZZZY=              0.0000 XXYY=            -48.7613 XXZZ=            -18.6632 YYZZ=            -39.1276
 XXYZ=              0.0000 YYXZ=              0.0000 ZZXY=            -15.9715
 N-N= 8.386525467249D+01 E-N=-1.617856104389D+03  KE= 6.096221975348D+02
 Symmetry A'   KE= 5.557108430147D+02
 Symmetry A"   KE= 5.391135452006D+01
 Symmetry A'   SP=-2.070345119437D-14
 Symmetry A"   SP= 1.000000000000D+00
                          Isotropic Fermi Contact Couplings
        Atom                 a.u.       MegaHertz       Gauss      10(-4) cm-1
     1  Cl(35)             0.02348      10.29420       3.67323       3.43378
     2  O(17)              0.13740     -83.29184     -29.72060     -27.78317
     3  O(17)              0.11290     -68.44244     -24.42196     -22.82994
 --------------------------------------------------------
       Center         ----  Spin Dipole Couplings  ----
                      3XX-RR        3YY-RR        3ZZ-RR
 --------------------------------------------------------
     1   Atom       -0.551375      0.978214     -0.426839
     2   Atom       -1.076732     -1.588999      2.665731
     3   Atom       -1.176391     -1.865369      3.041760
 --------------------------------------------------------
                        XY            XZ            YZ
 --------------------------------------------------------
     1   Atom        0.352343      0.000000      0.000000
     2   Atom        0.198905      0.000000      0.000000
     3   Atom        0.174821      0.000000      0.000000
 --------------------------------------------------------


 ---------------------------------------------------------------------------------
              Anisotropic Spin Dipole Couplings in Principal Axis System
 ---------------------------------------------------------------------------------

       Atom             a.u.   MegaHertz   Gauss  10(-4) cm-1        Axes

              Baa    -0.6286   -32.901   -11.740   -10.975  0.9768 -0.2142 -0.0000
     1 Cl(35) Bbb    -0.4268   -22.340    -7.971    -7.452  0.0000  0.0000  1.0000
              Bcc     1.0555    55.241    19.711    18.426  0.2142  0.9768  0.0000
 
              Baa    -1.6572   119.911    42.787    39.998 -0.3242  0.9460  0.0000
     2 O(17)  Bbb    -1.0086    72.979    26.041    24.343  0.9460  0.3242  0.0000
              Bcc     2.6657  -192.890   -68.828   -64.341  0.0000  0.0000  1.0000
 
              Baa    -1.9072   138.003    49.243    46.033 -0.2327  0.9726  0.0000
     3 O(17)  Bbb    -1.1346    82.097    29.294    27.385  0.9726  0.2327  0.0000
              Bcc     3.0418  -220.100   -78.537   -73.417  0.0000  0.0000  1.0000
 

 ---------------------------------------------------------------------------------

 Calling FoFJK, ICntrl=      2127 FMM=F ISym2X=1 I1Cent= 0 IOpClX= 1 NMat=1 NMatS=1 NMatT=0.
 ***** Axes restored to original set *****
 -------------------------------------------------------------------
 Center     Atomic                   Forces (Hartrees/Bohr)
 Number     Number              X              Y              Z
 -------------------------------------------------------------------
      1       17           0.006659114    0.023244048   -0.000000000
      2        8           0.002482923   -0.019432174   -0.000000000
      3        8          -0.009142037   -0.003811874   -0.000000000
 -------------------------------------------------------------------
 Cartesian Forces:  Max     0.023244048 RMS     0.010885827

 GradGradGradGradGradGradGradGradGradGradGradGradGradGradGradGradGradGrad
 Berny optimization.
 FormGI is forming the generalized inverse of G from B-inverse, IUseBI=4.
 Internal  Forces:  Max     0.024162393 RMS     0.015201145
 Search for a local minimum.
 Step number   1 out of a maximum of   20
 All quantities printed in internal units (Hartrees-Bohrs-Radians)
 Mixed Optimization -- RFO/linear search
 Second derivative matrix not updated -- first step.
 The second derivative matrix:
                          R1        R2        A1
           R1           0.08082
           R2           0.00000   1.07450
           A1           0.00000   0.00000   0.25000
 ITU=  0
     Eigenvalues ---    0.08082   0.25000   1.07450
 RFO step:  Lambda=-6.80533309D-03 EMin= 8.08218463D-02
 Linear search not attempted -- first point.
 Iteration  1 RMS(Cart)=  0.09982137 RMS(Int)=  0.04387016
 Iteration  2 RMS(Cart)=  0.03492740 RMS(Int)=  0.00003295
 Iteration  3 RMS(Cart)=  0.00004027 RMS(Int)=  0.00000000
 Iteration  4 RMS(Cart)=  0.00000000 RMS(Int)=  0.00000000
 ClnCor:  largest displacement from symmetrization is 6.28D-16 for atom     3.
 Variable       Old X    -DE/DX   Delta X   Delta X   Delta X     New X
                                 (Linear)    (Quad)   (Total)
    R1        4.30069  -0.02416   0.00000  -0.27574  -0.27574   4.02495
    R2        2.25795  -0.00977   0.00000  -0.00903  -0.00903   2.24892
    A1        2.04053  -0.00374   0.00000  -0.01458  -0.01458   2.02595
         Item               Value     Threshold  Converged?
 Maximum Force            0.024162     0.000450     NO 
 RMS     Force            0.015201     0.000300     NO 
 Maximum Displacement     0.171075     0.001800     NO 
 RMS     Displacement     0.134475     0.001200     NO 
 Predicted change in Energy=-3.662383D-03
 GradGradGradGradGradGradGradGradGradGradGradGradGradGradGradGradGradGrad

                          Input orientation:                          
 ---------------------------------------------------------------------
 Center     Atomic      Atomic             Coordinates (Angstroms)
 Number     Number       Type             X           Y           Z
 ---------------------------------------------------------------------
      1         17           0       -0.504229   -1.045456    0.000000
      2          8           0       -0.019636    1.028596    0.000000
      3          8           0        1.140276    1.294840    0.000000
 ---------------------------------------------------------------------
                    Distance matrix (angstroms):
                    1          2          3
     1  Cl   0.000000
     2  O    2.129911   0.000000
     3  O    2.860312   1.190077   0.000000
 Stoichiometry    ClO2(2)
 Framework group  CS[SG(ClO2)]
 Deg. of freedom     3
 Full point group                 CS      NOp   2
 Largest Abelian subgroup         CS      NOp   2
 Largest concise Abelian subgroup C1      NOp   1
                         Standard orientation:                         
 ---------------------------------------------------------------------
 Center     Atomic      Atomic             Coordinates (Angstroms)
 Number     Number       Type             X           Y           Z
 ---------------------------------------------------------------------
      1         17           0       -0.549508   -1.053403    0.000000
      2          8           0        0.000000    1.004403    0.000000
      3          8           0        1.167704    1.234078    0.000000
 ---------------------------------------------------------------------
 Rotational constants (GHZ):          76.6628756           4.8106032           4.5265611
 Basis read from rwf:  (5D, 7F)
 There are    75 symmetry adapted cartesian basis functions of A'  symmetry.
 There are    34 symmetry adapted cartesian basis functions of A"  symmetry.
 There are    63 symmetry adapted basis functions of A'  symmetry.
 There are    31 symmetry adapted basis functions of A"  symmetry.
    94 basis functions,   172 primitive gaussians,   109 cartesian basis functions
    17 alpha electrons       16 beta electrons
       nuclear repulsion energy        87.4082832428 Hartrees.
 NAtoms=    3 NActive=    3 NUniq=    3 SFac= 1.00D+00 NAtFMM=   60 NAOKFM=F Big=F
 Integral buffers will be    131072 words long.
 Raffenetti 2 integral format.
 Two-electron integral symmetry is turned on.
 One-electron integrals computed using PRISM.
 NBasis=    94 RedAO= T EigKep=  7.72D-04  NBF=    63    31
 NBsUse=    94 1.00D-06 EigRej= -1.00D+00 NBFU=    63    31
 Initial guess from the checkpoint file:  "cloo.chk"
 B after Tr=     0.000000   -0.000000    0.000000
         Rot=    0.999876    0.000000    0.000000    0.015762 Ang=   1.81 deg.
 Initial guess orbital symmetries:
 Alpha Orbitals:
       Occupied  (A') (A') (A') (A') (A') (A") (A') (A') (A') (A')
                 (A") (A') (A') (A") (A') (A') (A")
       Virtual   (A') (A') (A') (A") (A') (A') (A') (A') (A") (A')
                 (A") (A') (A') (A') (A") (A") (A') (A') (A') (A")
                 (A') (A") (A') (A') (A") (A') (A') (A') (A") (A")
                 (A') (A') (A") (A') (A") (A') (A") (A') (A") (A')
                 (A') (A") (A') (A') (A') (A') (A") (A') (A") (A')
                 (A') (A") (A') (A") (A') (A") (A') (A") (A') (A')
                 (A') (A") (A') (A") (A') (A") (A') (A") (A') (A")
                 (A') (A") (A') (A') (A') (A') (A')
 Beta  Orbitals:
       Occupied  (A') (A') (A') (A') (A') (A') (A") (A') (A') (A')
                 (A') (A') (A") (A') (A') (A")
       Virtual   (A') (A") (A') (A') (A") (A') (A') (A') (A') (A")
                 (A') (A") (A') (A') (A') (A") (A") (A') (A') (A')
                 (A") (A') (A") (A') (A') (A") (A') (A') (A') (A")
                 (A') (A") (A') (A") (A') (A") (A') (A") (A') (A")
                 (A') (A') (A') (A") (A') (A') (A') (A") (A') (A")
                 (A') (A') (A") (A') (A") (A') (A") (A') (A") (A')
                 (A') (A') (A") (A') (A") (A') (A') (A") (A") (A')
                 (A") (A') (A") (A') (A') (A') (A') (A')
 Initial guess <Sx>= 0.0000 <Sy>= 0.0000 <Sz>= 0.5000 <S**2>= 0.7857 S= 0.5177
 ExpMin= 1.21D-01 ExpMax= 1.54D+05 ExpMxC= 1.49D+03 IAcc=3 IRadAn=         5 AccDes= 0.00D+00
 Harris functional with IExCor=  402 and IRadAn=       5 diagonalized for initial guess.
 HarFok:  IExCor=  402 AccDes= 0.00D+00 IRadAn=         5 IDoV= 1 UseB2=F ITyADJ=14
 ICtDFT=  3500011 ScaDFX=  1.000000  1.000000  1.000000  1.000000
 FoFCou: FMM=F IPFlag=           0 FMFlag=      100000 FMFlg1=           0
         NFxFlg=           0 DoJE=T BraDBF=F KetDBF=T FulRan=T
         wScrn=  0.000000 ICntrl=       500 IOpCl=  0 I1Cent=   200000004 NGrid=           0
         NMat0=    1 NMatS0=      1 NMatT0=    0 NMatD0=    1 NMtDS0=    0 NMtDT0=    0
 Petite list used in FoFCou.
 Keep R1 and R2 ints in memory in symmetry-blocked form, NReq=15204226.
 Requested convergence on RMS density matrix=1.00D-08 within  32 cycles.
 Requested convergence on MAX density matrix=1.00D-06.
 Requested convergence on             energy=1.00D-06.
 No special actions if energy rises.
 Integral accuracy reduced to 1.0D-05 until final iterations.
 Rare condition: small coef for last iteration:  0.000D+00
 Rare condition: small coef for last iteration:  0.000D+00
 Problem detected with inexpensive integrals.
 Switching to full accuracy and repeating last cycle.
 Rare condition: small coef for last iteration:  0.000D+00
 Rare condition: small coef for last iteration:  0.000D+00
 Rare condition: small coef for last iteration:  0.000D+00
 Rare condition: small coef for last iteration:  0.000D+00
 Rare condition: small coef for last iteration:  0.000D+00
 Rare condition: small coef for last iteration:  0.000D+00
 Rare condition: small coef for last iteration:  0.000D+00
 Rare condition: small coef for last iteration:  0.000D+00
 Rare condition: small coef for last iteration:  0.000D+00
 Rare condition: small coef for last iteration:  0.000D+00
 EnCoef did   100 forward-backward iterations
 Rare condition: small coef for last iteration:  0.000D+00
 EnCoef did   100 forward-backward iterations
 Rare condition: small coef for last iteration:  0.000D+00
 >>>>>>>>>> Convergence criterion not met.
 SCF Done:  E(UB3LYP) =  -610.563506919     A.U. after   33 cycles
            NFock= 32  Conv=0.13D-02     -V/T= 2.0013
 <Sx>= 0.0000 <Sy>= 0.0000 <Sz>= 0.5000 <S**2>= 0.9469 S= 0.5940
 <L.S>=  0.00000000000    
 Annihilation of the first spin contaminant:
 S**2 before annihilation     0.9469,   after     0.7517
 Keep R1 and R2 ints in memory in symmetry-blocked form, NReq=15204626.
 LinEq1:  Iter=  0 NonCon=     1 RMS=5.43D-04 Max=2.48D-02 NDo=     1
 AX will form     1 AO Fock derivatives at one time.
 LinEq1:  Iter=  1 NonCon=     1 RMS=9.07D-04 Max=4.21D-02 NDo=     1
 LinEq1:  Iter=  2 NonCon=     1 RMS=3.71D-04 Max=1.12D-02 NDo=     1
 LinEq1:  Iter=  3 NonCon=     1 RMS=2.99D-04 Max=5.75D-03 NDo=     1
 LinEq1:  Iter=  4 NonCon=     1 RMS=1.58D-04 Max=4.21D-03 NDo=     1
 LinEq1:  Iter=  5 NonCon=     1 RMS=4.67D-05 Max=9.76D-04 NDo=     1
 LinEq1:  Iter=  6 NonCon=     1 RMS=1.79D-05 Max=2.98D-04 NDo=     1
 LinEq1:  Iter=  7 NonCon=     1 RMS=5.16D-06 Max=8.08D-05 NDo=     1
 LinEq1:  Iter=  8 NonCon=     1 RMS=2.50D-06 Max=4.63D-05 NDo=     1
 LinEq1:  Iter=  9 NonCon=     1 RMS=1.12D-06 Max=2.81D-05 NDo=     1
 LinEq1:  Iter= 10 NonCon=     1 RMS=4.61D-07 Max=1.23D-05 NDo=     1
 LinEq1:  Iter= 11 NonCon=     1 RMS=1.19D-07 Max=1.88D-06 NDo=     1
 LinEq1:  Iter= 12 NonCon=     1 RMS=3.53D-08 Max=6.95D-07 NDo=     1
 LinEq1:  Iter= 13 NonCon=     1 RMS=1.25D-08 Max=2.52D-07 NDo=     1
 LinEq1:  Iter= 14 NonCon=     1 RMS=3.36D-09 Max=5.63D-08 NDo=     1
 LinEq1:  Iter= 15 NonCon=     0 RMS=6.37D-10 Max=7.66D-09 NDo=     1
 Linear equations converged to 5.057D-09 5.057D-08 after    15 iterations.
 Gradient too large for Newton-Raphson -- use scaled steepest descent instead.
 Gradient too large for Newton-Raphson -- use scaled steepest descent instead.
     Minimum is close to point  3 DX= -6.69D-03 DF= -4.75D-08 DXR=  1.13D-02 DFR=  1.27D-04 which will be used.
 Gradient too large for Newton-Raphson -- use scaled steepest descent instead.
     Accept linear search using points  1 and  2.
 LinEq1:  Iter=  0 NonCon=     1 RMS=4.23D-04 Max=1.52D-02 NDo=     1
 LinEq1:  Iter=  1 NonCon=     1 RMS=2.88D-04 Max=9.91D-03 NDo=     1
 LinEq1:  Iter=  2 NonCon=     1 RMS=3.00D-04 Max=6.58D-03 NDo=     1
 LinEq1:  Iter=  3 NonCon=     1 RMS=8.60D-05 Max=1.74D-03 NDo=     1
 LinEq1:  Iter=  4 NonCon=     1 RMS=1.23D-04 Max=4.25D-03 NDo=     1
 LinEq1:  Iter=  5 NonCon=     1 RMS=3.22D-05 Max=5.44D-04 NDo=     1
 LinEq1:  Iter=  6 NonCon=     1 RMS=1.46D-05 Max=4.36D-04 NDo=     1
 LinEq1:  Iter=  7 NonCon=     1 RMS=3.85D-06 Max=7.73D-05 NDo=     1
 LinEq1:  Iter=  8 NonCon=     1 RMS=8.64D-07 Max=1.47D-05 NDo=     1
 LinEq1:  Iter=  9 NonCon=     1 RMS=3.82D-07 Max=8.64D-06 NDo=     1
 LinEq1:  Iter= 10 NonCon=     1 RMS=1.86D-07 Max=4.97D-06 NDo=     1
 LinEq1:  Iter= 11 NonCon=     1 RMS=9.16D-08 Max=1.77D-06 NDo=     1
 LinEq1:  Iter= 12 NonCon=     1 RMS=2.93D-08 Max=4.73D-07 NDo=     1
 LinEq1:  Iter= 13 NonCon=     1 RMS=9.65D-09 Max=2.26D-07 NDo=     1
 LinEq1:  Iter= 14 NonCon=     0 RMS=1.96D-09 Max=2.60D-08 NDo=     1
 Linear equations converged to 5.057D-09 5.057D-08 after    14 iterations.
     Accept linear search using points  1 and  2.
 LinEq1:  Iter=  0 NonCon=     1 RMS=4.16D-05 Max=1.27D-03 NDo=     1
 LinEq1:  Iter=  1 NonCon=     1 RMS=5.74D-05 Max=1.93D-03 NDo=     1
 LinEq1:  Iter=  2 NonCon=     1 RMS=2.17D-05 Max=4.93D-04 NDo=     1
 LinEq1:  Iter=  3 NonCon=     1 RMS=3.99D-05 Max=1.75D-03 NDo=     1
 LinEq1:  Iter=  4 NonCon=     1 RMS=1.42D-05 Max=3.71D-04 NDo=     1
 LinEq1:  Iter=  5 NonCon=     1 RMS=5.63D-06 Max=1.08D-04 NDo=     1
 LinEq1:  Iter=  6 NonCon=     1 RMS=2.12D-06 Max=5.27D-05 NDo=     1
 LinEq1:  Iter=  7 NonCon=     1 RMS=7.71D-07 Max=1.99D-05 NDo=     1
 LinEq1:  Iter=  8 NonCon=     1 RMS=1.98D-07 Max=2.17D-06 NDo=     1
 LinEq1:  Iter=  9 NonCon=     1 RMS=5.63D-08 Max=1.11D-06 NDo=     1
 LinEq1:  Iter= 10 NonCon=     1 RMS=2.49D-08 Max=5.46D-07 NDo=     1
 LinEq1:  Iter= 11 NonCon=     1 RMS=1.32D-08 Max=3.60D-07 NDo=     1
 LinEq1:  Iter= 12 NonCon=     1 RMS=4.68D-09 Max=9.80D-08 NDo=     1
 LinEq1:  Iter= 13 NonCon=     0 RMS=1.38D-09 Max=3.27D-08 NDo=     1
 Linear equations converged to 5.057D-09 5.057D-08 after    13 iterations.
     Minimum is close to point  2 DX=  1.96D-03 DF= -7.84D-12 DXR=  1.96D-03 DFR=  3.80D-06 which will be used.
 LinEq1:  Iter=  0 NonCon=     1 RMS=1.50D-07 Max=6.89D-06 NDo=     1
 LinEq1:  Iter=  1 NonCon=     1 RMS=1.74D-07 Max=7.40D-06 NDo=     1
 LinEq1:  Iter=  2 NonCon=     1 RMS=3.55D-08 Max=1.07D-06 NDo=     1
 LinEq1:  Iter=  3 NonCon=     1 RMS=1.42D-08 Max=2.91D-07 NDo=     1
 LinEq1:  Iter=  4 NonCon=     1 RMS=1.85D-08 Max=5.09D-07 NDo=     1
 LinEq1:  Iter=  5 NonCon=     1 RMS=8.79D-09 Max=1.20D-07 NDo=     1
 LinEq1:  Iter=  6 NonCon=     1 RMS=2.78D-09 Max=3.52D-08 NDo=     1
 LinEq1:  Iter=  7 NonCon=     1 RMS=9.99D-10 Max=2.26D-08 NDo=     1
 LinEq1:  Iter=  8 NonCon=     1 RMS=3.63D-10 Max=1.13D-08 NDo=     1
 LinEq1:  Iter=  9 NonCon=     1 RMS=1.60D-10 Max=3.14D-09 NDo=     1
 LinEq1:  Iter= 10 NonCon=     1 RMS=6.85D-11 Max=9.97D-10 NDo=     1
 LinEq1:  Iter= 11 NonCon=     1 RMS=2.50D-11 Max=4.01D-10 NDo=     1
 LinEq1:  Iter= 12 NonCon=     0 RMS=7.69D-12 Max=1.26D-10 NDo=     1
 Linear equations converged to 1.923D-11 1.923D-10 after    12 iterations.
 SCF Done:  E(UB3LYP) =  -610.569996244     a.u. after    8 cycles
            Convg  =    0.2200D-09                    74 Fock formations.
              S**2 =  1.1425                  -V/T =  2.0012
 <Sx>= 0.0000 <Sy>= 0.0000 <Sz>= 0.5000 <S**2>= 1.1425 S= 0.6800
 <L.S>=  0.00000000000    
 Annihilation of the first spin contaminant:
 S**2 before annihilation     1.1425,   after     0.7564
 Calling FoFJK, ICntrl=      2127 FMM=F ISym2X=1 I1Cent= 0 IOpClX= 1 NMat=1 NMatS=1 NMatT=0.
 ***** Axes restored to original set *****
 -------------------------------------------------------------------
 Center     Atomic                   Forces (Hartrees/Bohr)
 Number     Number              X              Y              Z
 -------------------------------------------------------------------
      1       17          -0.000912535   -0.002350095   -0.000000000
      2        8          -0.011184193   -0.001063278   -0.000000000
      3        8           0.012096729    0.003413372   -0.000000000
 -------------------------------------------------------------------
 Cartesian Forces:  Max     0.012096729 RMS     0.005681885

 GradGradGradGradGradGradGradGradGradGradGradGradGradGradGradGradGradGrad
 Berny optimization.
 Using GEDIIS/GDIIS optimizer.
 FormGI is forming the generalized inverse of G from B-inverse, IUseBI=4.
 Internal  Forces:  Max     0.012551690 RMS     0.007433066
 Search for a local minimum.
 Step number   2 out of a maximum of   20
 All quantities printed in internal units (Hartrees-Bohrs-Radians)
 Mixed Optimization -- RFO/linear search
 Update second derivatives using D2CorX and points    1    2
 DE= -1.20D-02 DEPred=-3.66D-03 R= 3.29D+00
 TightC=F SS=  1.41D+00  RLast= 2.76D-01 DXNew= 5.0454D-01 8.2882D-01
 Trust test= 3.29D+00 RLast= 2.76D-01 DXMaxT set to 5.05D-01
 The second derivative matrix:
                          R1        R2        A1
           R1           0.09499
           R2           0.04360   1.12482
           A1           0.00507   0.00943   0.25136
 ITU=  1  0
 Use linear search instead of GDIIS.
     Eigenvalues ---    0.09301   0.25139   1.12677
 RFO step:  Lambda=-1.46092411D-04 EMin= 9.30077455D-02
 Quartic linear search produced a step of -0.01344.
 Iteration  1 RMS(Cart)=  0.00644752 RMS(Int)=  0.00001708
 Iteration  2 RMS(Cart)=  0.00001960 RMS(Int)=  0.00000000
 Iteration  3 RMS(Cart)=  0.00000000 RMS(Int)=  0.00000000
 ClnCor:  largest displacement from symmetrization is 4.44D-16 for atom     3.
 Variable       Old X    -DE/DX   Delta X   Delta X   Delta X     New X
                                 (Linear)    (Quad)   (Total)
    R1        4.02495   0.00250   0.00371  -0.01022  -0.00651   4.01844
    R2        2.24892   0.01255   0.00012   0.01117   0.01129   2.26021
    A1        2.02595   0.00140   0.00020   0.00455   0.00474   2.03070
         Item               Value     Threshold  Converged?
 Maximum Force            0.012552     0.000450     NO 
 RMS     Force            0.007433     0.000300     NO 
 Maximum Displacement     0.006323     0.001800     NO 
 RMS     Displacement     0.006456     0.001200     NO 
 Predicted change in Energy=-5.843902D-05
 GradGradGradGradGradGradGradGradGradGradGradGradGradGradGradGradGradGrad

                          Input orientation:                          
 ---------------------------------------------------------------------
 Center     Atomic      Atomic             Coordinates (Angstroms)
 Number     Number       Type             X           Y           Z
 ---------------------------------------------------------------------
      1         17           0       -0.505608   -1.045320    0.000000
      2          8           0       -0.021254    1.025250    0.000000
      3          8           0        1.143273    1.298050    0.000000
 ---------------------------------------------------------------------
                    Distance matrix (angstroms):
                    1          2          3
     1  Cl   0.000000
     2  O    2.126467   0.000000
     3  O    2.865344   1.196054   0.000000
 Stoichiometry    ClO2(2)
 Framework group  CS[SG(ClO2)]
 Deg. of freedom     3
 Full point group                 CS      NOp   2
 Largest Abelian subgroup         CS      NOp   2
 Largest concise Abelian subgroup C1      NOp   1
                         Standard orientation:                         
 ---------------------------------------------------------------------
 Center     Atomic      Atomic             Coordinates (Angstroms)
 Number     Number       Type             X           Y           Z
 ---------------------------------------------------------------------
      1         17           0       -0.551924   -1.052531    0.000000
      2          8           0        0.000000    1.001062    0.000000
      3          8           0        1.172839    1.235566    0.000000
 ---------------------------------------------------------------------
 Rotational constants (GHZ):          76.6244842           4.8028601           4.5195711
 Basis read from rwf:  (5D, 7F)
 There are    75 symmetry adapted cartesian basis functions of A'  symmetry.
 There are    34 symmetry adapted cartesian basis functions of A"  symmetry.
 There are    63 symmetry adapted basis functions of A'  symmetry.
 There are    31 symmetry adapted basis functions of A"  symmetry.
    94 basis functions,   172 primitive gaussians,   109 cartesian basis functions
    17 alpha electrons       16 beta electrons
       nuclear repulsion energy        87.2766307294 Hartrees.
 NAtoms=    3 NActive=    3 NUniq=    3 SFac= 1.00D+00 NAtFMM=   60 NAOKFM=F Big=F
 Integral buffers will be    131072 words long.
 Raffenetti 2 integral format.
 Two-electron integral symmetry is turned on.
 One-electron integrals computed using PRISM.
 NBasis=    94 RedAO= T EigKep=  8.00D-04  NBF=    63    31
 NBsUse=    94 1.00D-06 EigRej= -1.00D+00 NBFU=    63    31
 Initial guess from the checkpoint file:  "cloo.chk"
 B after Tr=     0.000000    0.000000    0.000000
         Rot=    1.000000    0.000000    0.000000    0.000799 Ang=   0.09 deg.
 Initial guess orbital symmetries:
 Alpha Orbitals:
       Occupied  (A') (A') (A') (A') (A') (A") (A') (A') (A') (A')
                 (A") (A') (A') (A") (A') (A') (A")
       Virtual   (A') (A') (A') (A") (A') (A') (A') (A') (A") (A')
                 (A") (A') (A') (A') (A") (A") (A') (A') (A') (A")
                 (A') (A") (A') (A") (A') (A') (A') (A') (A") (A')
                 (A") (A") (A') (A') (A") (A') (A") (A') (A") (A')
                 (A') (A") (A') (A') (A') (A') (A") (A') (A") (A')
                 (A') (A") (A') (A") (A') (A") (A') (A") (A') (A')
                 (A') (A") (A') (A") (A') (A") (A') (A") (A') (A")
                 (A') (A") (A') (A') (A') (A') (A')
 Beta  Orbitals:
       Occupied  (A') (A') (A') (A') (A') (A') (A") (A') (A') (A')
                 (A') (A') (A") (A') (A') (A")
       Virtual   (A') (A") (A') (A') (A") (A') (A') (A') (A') (A")
                 (A') (A") (A') (A') (A') (A") (A") (A') (A') (A')
                 (A") (A') (A") (A') (A") (A') (A') (A') (A') (A")
                 (A') (A") (A") (A') (A') (A") (A') (A") (A') (A")
                 (A') (A') (A") (A') (A') (A') (A') (A") (A') (A")
                 (A') (A') (A") (A') (A") (A') (A") (A') (A") (A')
                 (A') (A') (A") (A') (A") (A') (A") (A') (A") (A')
                 (A") (A') (A") (A') (A') (A') (A') (A')
 Initial guess <Sx>= 0.0000 <Sy>= 0.0000 <Sz>= 0.5000 <S**2>= 1.1422 S= 0.6799
 Keep R1 and R2 ints in memory in symmetry-blocked form, NReq=15204226.
 Requested convergence on RMS density matrix=1.00D-08 within  32 cycles.
 Requested convergence on MAX density matrix=1.00D-06.
 Requested convergence on             energy=1.00D-06.
 No special actions if energy rises.
 SCF Done:  E(UB3LYP) =  -610.570079089     A.U. after   13 cycles
            NFock= 13  Conv=0.27D-08     -V/T= 2.0013
 <Sx>= 0.0000 <Sy>= 0.0000 <Sz>= 0.5000 <S**2>= 1.1396 S= 0.6788
 <L.S>=  0.00000000000    
 Annihilation of the first spin contaminant:
 S**2 before annihilation     1.1396,   after     0.7563
 QCSCF skips out because SCF is already converged.
 Calling FoFJK, ICntrl=      2127 FMM=F ISym2X=1 I1Cent= 0 IOpClX= 1 NMat=1 NMatS=1 NMatT=0.
 ***** Axes restored to original set *****
 -------------------------------------------------------------------
 Center     Atomic                   Forces (Hartrees/Bohr)
 Number     Number              X              Y              Z
 -------------------------------------------------------------------
      1       17          -0.000616629   -0.002093008   -0.000000000
      2        8          -0.003312717    0.000959465   -0.000000000
      3        8           0.003929346    0.001133542   -0.000000000
 -------------------------------------------------------------------
 Cartesian Forces:  Max     0.003929346 RMS     0.001925855

 GradGradGradGradGradGradGradGradGradGradGradGradGradGradGradGradGradGrad
 Berny optimization.
 Using GEDIIS/GDIIS optimizer.
 FormGI is forming the generalized inverse of G from B-inverse, IUseBI=4.
 Internal  Forces:  Max     0.004082312 RMS     0.002685960
 Search for a local minimum.
 Step number   3 out of a maximum of   20
 All quantities printed in internal units (Hartrees-Bohrs-Radians)
 Mixed Optimization -- RFO/linear search
 Update second derivatives using D2CorX and points    1    2    3
 DE= -8.28D-05 DEPred=-5.84D-05 R= 1.42D+00
 TightC=F SS=  1.41D+00  RLast= 1.39D-02 DXNew= 8.4853D-01 4.1615D-02
 Trust test= 1.42D+00 RLast= 1.39D-02 DXMaxT set to 5.05D-01
 The second derivative matrix:
                          R1        R2        A1
           R1           0.09457
           R2           0.07900   0.80281
           A1           0.00864  -0.01759   0.24920
 ITU=  1  1  0
 Use linear search instead of GDIIS.
     Eigenvalues ---    0.08518   0.24939   0.81200
 RFO step:  Lambda=-4.42017972D-05 EMin= 8.51849228D-02
 Quartic linear search produced a step of  0.35850.
 Iteration  1 RMS(Cart)=  0.01035197 RMS(Int)=  0.00000337
 Iteration  2 RMS(Cart)=  0.00000475 RMS(Int)=  0.00000000
 Iteration  3 RMS(Cart)=  0.00000000 RMS(Int)=  0.00000000
 ClnCor:  largest displacement from symmetrization is 1.26D-15 for atom     3.
 Variable       Old X    -DE/DX   Delta X   Delta X   Delta X     New X
                                 (Linear)    (Quad)   (Total)
    R1        4.01844   0.00218  -0.00233   0.02219   0.01986   4.03830
    R2        2.26021   0.00408   0.00405  -0.00081   0.00323   2.26345
    A1        2.03070   0.00048   0.00170  -0.00015   0.00155   2.03224
         Item               Value     Threshold  Converged?
 Maximum Force            0.004082     0.000450     NO 
 RMS     Force            0.002686     0.000300     NO 
 Maximum Displacement     0.012926     0.001800     NO 
 RMS     Displacement     0.010354     0.001200     NO 
 Predicted change in Energy=-2.882857D-05
 GradGradGradGradGradGradGradGradGradGradGradGradGradGradGradGradGradGrad

                          Input orientation:                          
 ---------------------------------------------------------------------
 Center     Atomic      Atomic             Coordinates (Angstroms)
 Number     Number       Type             X           Y           Z
 ---------------------------------------------------------------------
      1         17           0       -0.509092   -1.052161    0.000000
      2          8           0       -0.020270    1.028155    0.000000
      3          8           0        1.145773    1.301986    0.000000
 ---------------------------------------------------------------------
                    Distance matrix (angstroms):
                    1          2          3
     1  Cl   0.000000
     2  O    2.136974   0.000000
     3  O    2.877600   1.197765   0.000000
 Stoichiometry    ClO2(2)
 Framework group  CS[SG(ClO2)]
 Deg. of freedom     3
 Full point group                 CS      NOp   2
 Largest Abelian subgroup         CS      NOp   2
 Largest concise Abelian subgroup C1      NOp   1
                         Standard orientation:                         
 ---------------------------------------------------------------------
 Center     Atomic      Atomic             Coordinates (Angstroms)
 Number     Number       Type             X           Y           Z
 ---------------------------------------------------------------------
      1         17           0       -0.552422   -1.058569    0.000000
      2          8           0        0.000000    1.005768    0.000000
      3          8           0        1.173897    1.243692    0.000000
 ---------------------------------------------------------------------
 Rotational constants (GHZ):          76.4667341           4.7592489           4.4803917
 Basis read from rwf:  (5D, 7F)
 There are    75 symmetry adapted cartesian basis functions of A'  symmetry.
 There are    34 symmetry adapted cartesian basis functions of A"  symmetry.
 There are    63 symmetry adapted basis functions of A'  symmetry.
 There are    31 symmetry adapted basis functions of A"  symmetry.
    94 basis functions,   172 primitive gaussians,   109 cartesian basis functions
    17 alpha electrons       16 beta electrons
       nuclear repulsion energy        86.9627850829 Hartrees.
 NAtoms=    3 NActive=    3 NUniq=    3 SFac= 1.00D+00 NAtFMM=   60 NAOKFM=F Big=F
 Integral buffers will be    131072 words long.
 Raffenetti 2 integral format.
 Two-electron integral symmetry is turned on.
 One-electron integrals computed using PRISM.
 NBasis=    94 RedAO= T EigKep=  8.10D-04  NBF=    63    31
 NBsUse=    94 1.00D-06 EigRej= -1.00D+00 NBFU=    63    31
 Initial guess from the checkpoint file:  "cloo.chk"
 B after Tr=     0.000000    0.000000    0.000000
         Rot=    0.999999   -0.000000    0.000000   -0.001023 Ang=  -0.12 deg.
 Initial guess orbital symmetries:
 Alpha Orbitals:
       Occupied  (A') (A') (A') (A') (A') (A") (A') (A') (A') (A')
                 (A") (A') (A') (A") (A') (A') (A")
       Virtual   (A') (A') (A') (A") (A') (A') (A') (A') (A") (A')
                 (A") (A') (A') (A') (A") (A") (A') (A') (A') (A")
                 (A') (A") (A') (A") (A') (A') (A') (A') (A") (A')
                 (A") (A") (A') (A') (A") (A') (A") (A') (A") (A')
                 (A') (A") (A') (A') (A') (A') (A") (A') (A") (A')
                 (A') (A") (A') (A") (A') (A") (A') (A") (A') (A')
                 (A') (A") (A') (A") (A') (A") (A') (A") (A') (A")
                 (A') (A") (A') (A') (A') (A') (A')
 Beta  Orbitals:
       Occupied  (A') (A') (A') (A') (A') (A') (A") (A') (A') (A')
                 (A') (A') (A") (A') (A') (A")
       Virtual   (A') (A") (A') (A') (A") (A') (A') (A') (A') (A")
                 (A') (A") (A') (A') (A') (A") (A") (A') (A') (A')
                 (A") (A') (A") (A') (A") (A') (A') (A') (A') (A")
                 (A') (A") (A") (A') (A') (A") (A') (A") (A') (A")
                 (A') (A') (A") (A') (A') (A') (A') (A") (A') (A")
                 (A') (A') (A") (A') (A") (A') (A") (A') (A") (A')
                 (A') (A') (A") (A') (A") (A') (A") (A') (A") (A')
                 (A") (A') (A") (A') (A') (A') (A') (A')
 Initial guess <Sx>= 0.0000 <Sy>= 0.0000 <Sz>= 0.5000 <S**2>= 1.1403 S= 0.6791
 Keep R1 and R2 ints in memory in symmetry-blocked form, NReq=15204226.
 Requested convergence on RMS density matrix=1.00D-08 within  32 cycles.
 Requested convergence on MAX density matrix=1.00D-06.
 Requested convergence on             energy=1.00D-06.
 No special actions if energy rises.
 SCF Done:  E(UB3LYP) =  -610.570128676     A.U. after   13 cycles
            NFock= 13  Conv=0.68D-08     -V/T= 2.0013
 <Sx>= 0.0000 <Sy>= 0.0000 <Sz>= 0.5000 <S**2>= 1.1580 S= 0.6866
 <L.S>=  0.00000000000    
 Annihilation of the first spin contaminant:
 S**2 before annihilation     1.1580,   after     0.7568
 QCSCF skips out because SCF is already converged.
 Calling FoFJK, ICntrl=      2127 FMM=F ISym2X=1 I1Cent= 0 IOpClX= 1 NMat=1 NMatS=1 NMatT=0.
 ***** Axes restored to original set *****
 -------------------------------------------------------------------
 Center     Atomic                   Forces (Hartrees/Bohr)
 Number     Number              X              Y              Z
 -------------------------------------------------------------------
      1       17          -0.000511481   -0.001871280   -0.000000000
      2        8          -0.000439439    0.001533400   -0.000000000
      3        8           0.000950920    0.000337879   -0.000000000
 -------------------------------------------------------------------
 Cartesian Forces:  Max     0.001871280 RMS     0.000902228

 GradGradGradGradGradGradGradGradGradGradGradGradGradGradGradGradGradGrad
 Berny optimization.
 Using GEDIIS/GDIIS optimizer.
 FormGI is forming the generalized inverse of G from B-inverse, IUseBI=4.
 Internal  Forces:  Max     0.001939845 RMS     0.001269220
 Search for a local minimum.
 Step number   4 out of a maximum of   20
 All quantities printed in internal units (Hartrees-Bohrs-Radians)
 Mixed Optimization -- RFO/linear search
 Update second derivatives using D2CorX and points    1    2    3    4
 DE= -4.96D-05 DEPred=-2.88D-05 R= 1.72D+00
 TightC=F SS=  1.41D+00  RLast= 2.02D-02 DXNew= 8.4853D-01 6.0530D-02
 Trust test= 1.72D+00 RLast= 2.02D-02 DXMaxT set to 5.05D-01
 The second derivative matrix:
                          R1        R2        A1
           R1           0.02348
           R2          -0.06550   1.35195
           A1          -0.00949   0.00603   0.24890
 ITU=  1  1  1  0
 Use linear search instead of GDIIS.
     Eigenvalues ---    0.01989   0.24924   1.35521
 RFO step:  Lambda=-3.92829814D-05 EMin= 1.98920610D-02
 Quartic linear search produced a step of  2.00000.
 Iteration  1 RMS(Cart)=  0.03439171 RMS(Int)=  0.00003489
 Iteration  2 RMS(Cart)=  0.00005005 RMS(Int)=  0.00000000
 Iteration  3 RMS(Cart)=  0.00000000 RMS(Int)=  0.00000000
 ClnCor:  largest displacement from symmetrization is 4.58D-16 for atom     1.
 Variable       Old X    -DE/DX   Delta X   Delta X   Delta X     New X
                                 (Linear)    (Quad)   (Total)
    R1        4.03830   0.00194   0.03971   0.03056   0.07027   4.10857
    R2        2.26345   0.00100   0.00647  -0.00241   0.00406   2.26751
    A1        2.03224   0.00026   0.00309   0.00035   0.00345   2.03569
         Item               Value     Threshold  Converged?
 Maximum Force            0.001940     0.000450     NO 
 RMS     Force            0.001269     0.000300     NO 
 Maximum Displacement     0.043765     0.001800     NO 
 RMS     Displacement     0.034416     0.001200     NO 
 Predicted change in Energy=-9.158086D-05
 GradGradGradGradGradGradGradGradGradGradGradGradGradGradGradGradGradGrad

                          Input orientation:                          
 ---------------------------------------------------------------------
 Center     Atomic      Atomic             Coordinates (Angstroms)
 Number     Number       Type             X           Y           Z
 ---------------------------------------------------------------------
      1         17           0       -0.520293   -1.075320    0.000000
      2          8           0       -0.015713    1.039478    0.000000
      3          8           0        1.152417    1.313821    0.000000
 ---------------------------------------------------------------------
                    Distance matrix (angstroms):
                    1          2          3
     1  Cl   0.000000
     2  O    2.174160   0.000000
     3  O    2.916496   1.199913   0.000000
 Stoichiometry    ClO2(2)
 Framework group  CS[SG(ClO2)]
 Deg. of freedom     3
 Full point group                 CS      NOp   2
 Largest Abelian subgroup         CS      NOp   2
 Largest concise Abelian subgroup C1      NOp   1
                         Standard orientation:                         
 ---------------------------------------------------------------------
 Center     Atomic      Atomic             Coordinates (Angstroms)
 Number     Number       Type             X           Y           Z
 ---------------------------------------------------------------------
      1         17           0       -0.552500   -1.079589    0.000000
      2          8           0        0.000000    1.023198    0.000000
      3          8           0        1.174061    1.270929    0.000000
 ---------------------------------------------------------------------
 Rotational constants (GHZ):          76.0950842           4.6196397           4.3552385
 Basis read from rwf:  (5D, 7F)
 There are    75 symmetry adapted cartesian basis functions of A'  symmetry.
 There are    34 symmetry adapted cartesian basis functions of A"  symmetry.
 There are    63 symmetry adapted basis functions of A'  symmetry.
 There are    31 symmetry adapted basis functions of A"  symmetry.
    94 basis functions,   172 primitive gaussians,   109 cartesian basis functions
    17 alpha electrons       16 beta electrons
       nuclear repulsion energy        86.0026152850 Hartrees.
 NAtoms=    3 NActive=    3 NUniq=    3 SFac= 1.00D+00 NAtFMM=   60 NAOKFM=F Big=F
 Integral buffers will be    131072 words long.
 Raffenetti 2 integral format.
 Two-electron integral symmetry is turned on.
 One-electron integrals computed using PRISM.
 NBasis=    94 RedAO= T EigKep=  8.24D-04  NBF=    63    31
 NBsUse=    94 1.00D-06 EigRej= -1.00D+00 NBFU=    63    31
 Initial guess from the checkpoint file:  "cloo.chk"
 B after Tr=     0.000000    0.000000    0.000000
         Rot=    0.999992   -0.000000   -0.000000   -0.003982 Ang=  -0.46 deg.
 Initial guess orbital symmetries:
 Alpha Orbitals:
       Occupied  (A') (A') (A') (A') (A') (A") (A') (A') (A') (A')
                 (A") (A') (A') (A") (A') (A') (A")
       Virtual   (A') (A') (A') (A") (A') (A') (A') (A') (A") (A')
                 (A") (A') (A') (A') (A") (A") (A') (A') (A') (A")
                 (A') (A") (A') (A") (A') (A') (A') (A') (A") (A')
                 (A") (A") (A') (A') (A") (A') (A") (A') (A") (A')
                 (A') (A") (A') (A') (A') (A') (A") (A') (A") (A')
                 (A') (A") (A') (A") (A') (A") (A') (A") (A') (A')
                 (A') (A") (A') (A") (A') (A") (A') (A") (A') (A")
                 (A') (A") (A') (A') (A') (A') (A')
 Beta  Orbitals:
       Occupied  (A') (A') (A') (A') (A') (A') (A") (A') (A') (A')
                 (A') (A') (A") (A') (A') (A")
       Virtual   (A') (A") (A') (A') (A") (A') (A') (A') (A') (A")
                 (A') (A") (A') (A') (A') (A") (A") (A') (A') (A')
                 (A") (A') (A") (A') (A") (A') (A') (A') (A') (A")
                 (A') (A") (A") (A') (A') (A") (A') (A") (A') (A")
                 (A') (A') (A") (A') (A') (A') (A') (A") (A') (A")
                 (A') (A') (A") (A') (A") (A') (A") (A') (A") (A')
                 (A') (A') (A") (A') (A") (A') (A") (A') (A") (A')
                 (A") (A') (A") (A') (A') (A') (A') (A')
 Initial guess <Sx>= 0.0000 <Sy>= 0.0000 <Sz>= 0.5000 <S**2>= 1.1605 S= 0.6877
 ExpMin= 1.21D-01 ExpMax= 1.54D+05 ExpMxC= 1.49D+03 IAcc=3 IRadAn=         5 AccDes= 0.00D+00
 Harris functional with IExCor=  402 and IRadAn=       5 diagonalized for initial guess.
 HarFok:  IExCor=  402 AccDes= 0.00D+00 IRadAn=         5 IDoV= 1 UseB2=F ITyADJ=14
 ICtDFT=  3500011 ScaDFX=  1.000000  1.000000  1.000000  1.000000
 FoFCou: FMM=F IPFlag=           0 FMFlag=      100000 FMFlg1=           0
         NFxFlg=           0 DoJE=T BraDBF=F KetDBF=T FulRan=T
         wScrn=  0.000000 ICntrl=       500 IOpCl=  0 I1Cent=   200000004 NGrid=           0
         NMat0=    1 NMatS0=      1 NMatT0=    0 NMatD0=    1 NMtDS0=    0 NMtDT0=    0
 Petite list used in FoFCou.
 Keep R1 and R2 ints in memory in symmetry-blocked form, NReq=15204226.
 Requested convergence on RMS density matrix=1.00D-08 within  32 cycles.
 Requested convergence on MAX density matrix=1.00D-06.
 Requested convergence on             energy=1.00D-06.
 No special actions if energy rises.
 Integral accuracy reduced to 1.0D-05 until final iterations.
 Initial convergence to 1.0D-05 achieved.  Increase integral accuracy.
 SCF Done:  E(UB3LYP) =  -610.570237955     A.U. after   17 cycles
            NFock= 17  Conv=0.90D-08     -V/T= 2.0013
 <Sx>= 0.0000 <Sy>= 0.0000 <Sz>= 0.5000 <S**2>= 1.2178 S= 0.7115
 <L.S>=  0.00000000000    
 Annihilation of the first spin contaminant:
 S**2 before annihilation     1.2178,   after     0.7586
 QCSCF skips out because SCF is already converged.
 Calling FoFJK, ICntrl=      2127 FMM=F ISym2X=1 I1Cent= 0 IOpClX= 1 NMat=1 NMatS=1 NMatT=0.
 ***** Axes restored to original set *****
 -------------------------------------------------------------------
 Center     Atomic                   Forces (Hartrees/Bohr)
 Number     Number              X              Y              Z
 -------------------------------------------------------------------
      1       17          -0.000309767   -0.001311626   -0.000000000
      2        8           0.004199145    0.002245702   -0.000000000
      3        8          -0.003889377   -0.000934076   -0.000000000
 -------------------------------------------------------------------
 Cartesian Forces:  Max     0.004199145 RMS     0.002121113

 GradGradGradGradGradGradGradGradGradGradGradGradGradGradGradGradGradGrad
 Berny optimization.
 Using GEDIIS/GDIIS optimizer.
 FormGI is forming the generalized inverse of G from B-inverse, IUseBI=4.
 Internal  Forces:  Max     0.004002220 RMS     0.002438499
 Search for a local minimum.
 Step number   5 out of a maximum of   20
 All quantities printed in internal units (Hartrees-Bohrs-Radians)
 Mixed Optimization -- RFO/linear search
 Update second derivatives using D2CorX and points    2    3    4    5
 DE= -1.09D-04 DEPred=-9.16D-05 R= 1.19D+00
 TightC=F SS=  1.41D+00  RLast= 7.05D-02 DXNew= 8.4853D-01 2.1142D-01
 Trust test= 1.19D+00 RLast= 7.05D-02 DXMaxT set to 5.05D-01
 The second derivative matrix:
                          R1        R2        A1
           R1           0.01049
           R2          -0.02856   1.71360
           A1          -0.00887   0.01590   0.24838
 ITU=  1  1  1  1
 Use linear search instead of GDIIS.
     Eigenvalues ---    0.00970   0.24852   1.71426
 RFO step:  Lambda=-9.54626942D-05 EMin= 9.70379546D-03
 Quartic linear search produced a step of  1.43144.
 Iteration  1 RMS(Cart)=  0.07044220 RMS(Int)=  0.00014583
 Iteration  2 RMS(Cart)=  0.00021066 RMS(Int)=  0.00000002
 Iteration  3 RMS(Cart)=  0.00000002 RMS(Int)=  0.00000000
 ClnCor:  largest displacement from symmetrization is 1.88D-15 for atom     3.
 Variable       Old X    -DE/DX   Delta X   Delta X   Delta X     New X
                                 (Linear)    (Quad)   (Total)
    R1        4.10857   0.00135   0.10059   0.04774   0.14833   4.25689
    R2        2.26751  -0.00400   0.00581  -0.00572   0.00009   2.26760
    A1        2.03569  -0.00004   0.00493   0.00024   0.00517   2.04086
         Item               Value     Threshold  Converged?
 Maximum Force            0.004002     0.000450     NO 
 RMS     Force            0.002438     0.000300     NO 
 Maximum Displacement     0.090209     0.001800     NO 
 RMS     Displacement     0.070538     0.001200     NO 
 Predicted change in Energy=-8.796526D-05
 GradGradGradGradGradGradGradGradGradGradGradGradGradGradGradGradGradGrad

                          Input orientation:                          
 ---------------------------------------------------------------------
 Center     Atomic      Atomic             Coordinates (Angstroms)
 Number     Number       Type             X           Y           Z
 ---------------------------------------------------------------------
      1         17           0       -0.542793   -1.123056    0.000000
      2          8           0       -0.004733    1.064392    0.000000
      3          8           0        1.163937    1.336645    0.000000
 ---------------------------------------------------------------------
                    Distance matrix (angstroms):
                    1          2          3
     1  Cl   0.000000
[...]
 Entering Link 1 = /usr/local/apps/g16_b01_avx/g16/l1.exe PID=   3789296.
  
 Copyright (c) 1988-2017, Gaussian, Inc.  All Rights Reserved.
  
 This is part of the Gaussian(R) 16 program.  It is based on
 the Gaussian(R) 09 system (copyright 2009, Gaussian, Inc.),
 the Gaussian(R) 03 system (copyright 2003, Gaussian, Inc.),
 the Gaussian(R) 98 system (copyright 1998, Gaussian, Inc.),
 the Gaussian(R) 94 system (copyright 1995, Gaussian, Inc.),
 the Gaussian 92(TM) system (copyright 1992, Gaussian, Inc.),
 the Gaussian 90(TM) system (copyright 1990, Gaussian, Inc.),
 the Gaussian 88(TM) system (copyright 1988, Gaussian, Inc.),
 the Gaussian 86(TM) system (copyright 1986, Carnegie Mellon
 University), and the Gaussian 82(TM) system (copyright 1983,
 Carnegie Mellon University). Gaussian is a federally registered
 trademark of Gaussian, Inc.
  
 This software contains proprietary and confidential information,
 including trade secrets, belonging to Gaussian, Inc.
  
 This software is provided under written license and may be
 used, copied, transmitted, or stored only in accord with that
 written license.
  
 The following legend is applicable only to US Government
 contracts under FAR:
  
                    RESTRICTED RIGHTS LEGEND
  
 Use, reproduction and disclosure by the US Government is
 subject to restrictions as set forth in subparagraphs (a)
 and (c) of the Commercial Computer Software - Restricted
 Rights clause in FAR 52.227-19.
  
 Gaussian, Inc.
 340 Quinnipiac St., Bldg. 40, Wallingford CT 06492
  
  
 ---------------------------------------------------------------
 Warning -- This program may not be used in any manner that
 competes with the business of Gaussian, Inc. or will provide
 assistance to any competitor of Gaussian, Inc.  The licensee
 of this program is prohibited from giving any competitor of
 Gaussian, Inc. access to this program.  By using this program,
 the user acknowledges that Gaussian, Inc. is engaged in the
 business of creating and licensing software in the field of
 computational chemistry and represents and warrants to the
 licensee that it is not a competitor of Gaussian, Inc. and that
 it will not use this program in any manner prohibited above.
 ---------------------------------------------------------------
  

 Cite this work as:
 Gaussian 16, Revision B.01,
 M. J. Frisch, G. W. Trucks, H. B. Schlegel, G. E. Scuseria, 
 M. A. Robb, J. R. Cheeseman, G. Scalmani, V. Barone, 
 G. A. Petersson, H. Nakatsuji, X. Li, M. Caricato, A. V. Marenich, 
 J. Bloino, B. G. Janesko, R. Gomperts, B. Mennucci, H. P. Hratchian, 
 J. V. Ortiz, A. F. Izmaylov, J. L. Sonnenberg, D. Williams-Young, 
 F. Ding, F. Lipparini, F. Egidi, J. Goings, B. Peng, A. Petrone, 
 T. Henderson, D. Ranasinghe, V. G. Zakrzewski, J. Gao, N. Rega, 
 G. Zheng, W. Liang, M. Hada, M. Ehara, K. Toyota, R. Fukuda, 
 J. Hasegawa, M. Ishida, T. Nakajima, Y. Honda, O. Kitao, H. Nakai, 
 T. Vreven, K. Throssell, J. A. Montgomery, Jr., J. E. Peralta, 
 F. Ogliaro, M. J. Bearpark, J. J. Heyd, E. N. Brothers, K. N. Kudin, 
 V. N. Staroverov, T. A. Keith, R. Kobayashi, J. Normand, 
 K. Raghavachari, A. P. Rendell, J. C. Burant, S. S. Iyengar, 
 J. Tomasi, M. Cossi, J. M. Millam, M. Klene, C. Adamo, R. Cammi, 
 J. W. Ochterski, R. L. Martin, K. Morokuma, O. Farkas, 
 J. B. Foresman, and D. J. Fox, Gaussian, Inc., Wallingford CT, 2016.
 
 ******************************************
 Gaussian 16:  ES64L-G16RevB.01 20-Dec-2017
                 2-Jan-2024 
 ******************************************
 %chk=cloo.chk
 %mem=500mw
 %nprocs=4
 Will use up to    4 processors via shared memory.
 ---------------------
 # rohf/gen geom=check
 ---------------------
 1/29=2,38=1,172=1/1;
 2/12=2,40=1/2;
 3/5=7,11=2,14=-4,25=1,30=1,116=101/1,2,3;
 4//1;
 5/5=2,38=5/2;
 6/7=2,8=2,9=2,10=2,28=1/1;
 99/5=1,9=1/99;
 -------------------------------
 chloroperoxyl, ROHF/cc-pVTZ-F12
 -------------------------------
 Structure from the checkpoint file:  "cloo.chk"
 Charge =  0 Multiplicity = 2
 Redundant internal coordinates found in file.  (old form).
 Cl,0,-0.5482047338,-1.1358528685,0.
 O,0,0.000118485,1.0728281828,0.
 O,0,1.1644972488,1.3410046857,0.
 Recover connectivity data from disk.
                           ----------------------------
                           !    Current Parameters    !
                           ! (Angstroms and Degrees)  !
 --------------------------                            --------------------------
 ! Name  Definition              Value                                          !
 --------------------------------------------------------------------------------
 ! R1    R(1,2)                  2.2757                                         !
 ! R2    R(2,3)                  1.1949                                         !
 ! A1    A(1,2,3)              116.9123                                         !
 --------------------------------------------------------------------------------
                          Input orientation:                          
 ---------------------------------------------------------------------
 Center     Atomic      Atomic             Coordinates (Angstroms)
 Number     Number       Type             X           Y           Z
 ---------------------------------------------------------------------
      1         17           0       -0.548205   -1.135853    0.000000
      2          8           0        0.000118    1.072828    0.000000
      3          8           0        1.164497    1.341005    0.000000
 ---------------------------------------------------------------------
                    Distance matrix (angstroms):
                    1          2          3
     1  Cl   0.000000
     2  O    2.275726   0.000000
     3  O    3.011340   1.194863   0.000000
 Stoichiometry    ClO2(2)
 Framework group  CS[SG(ClO2)]
 Deg. of freedom     3
 Full point group                 CS      NOp   2
 Largest Abelian subgroup         CS      NOp   2
 Largest concise Abelian subgroup C1      NOp   1
                         Standard orientation:                         
 ---------------------------------------------------------------------
 Center     Atomic      Atomic             Coordinates (Angstroms)
 Number     Number       Type             X           Y           Z
 ---------------------------------------------------------------------
      1         17           0       -0.547920   -1.135988    0.000000
      2          8           0        0.000000    1.072793    0.000000
      3          8           0        1.164330    1.341182    0.000000
 ---------------------------------------------------------------------
 Rotational constants (GHZ):          75.7874440           4.2902733           4.0604160
 General basis read from cards:  (5D, 7F)
 There are   133 symmetry adapted cartesian basis functions of A'  symmetry.
 There are    63 symmetry adapted cartesian basis functions of A"  symmetry.
 There are   111 symmetry adapted basis functions of A'  symmetry.
 There are    57 symmetry adapted basis functions of A"  symmetry.
   168 basis functions,   285 primitive gaussians,   196 cartesian basis functions
    17 alpha electrons       16 beta electrons
       nuclear repulsion energy        83.8673896702 Hartrees.
 NAtoms=    3 NActive=    3 NUniq=    3 SFac= 1.00D+00 NAtFMM=   60 NAOKFM=F Big=F
 Integral buffers will be    131072 words long.
 Raffenetti 2 integral format.
 Two-electron integral symmetry is turned on.
 One-electron integrals computed using PRISM.
 NBasis=   168 RedAO= T EigKep=  5.48D-04  NBF=   111    57
 NBsUse=   168 1.00D-06 EigRej= -1.00D+00 NBFU=   111    57
 ExpMin= 3.76D-02 ExpMax= 8.35D+05 ExpMxC= 2.61D+03 IAcc=3 IRadAn=         5 AccDes= 0.00D+00
 Harris functional with IExCor=  205 and IRadAn=       5 diagonalized for initial guess.
 HarFok:  IExCor=  205 AccDes= 0.00D+00 IRadAn=         5 IDoV= 1 UseB2=F ITyADJ=14
 ICtDFT=  3500011 ScaDFX=  1.000000  1.000000  1.000000  1.000000
 FoFCou: FMM=F IPFlag=           0 FMFlag=      100000 FMFlg1=           0
         NFxFlg=           0 DoJE=T BraDBF=F KetDBF=T FulRan=T
         wScrn=  0.000000 ICntrl=       500 IOpCl=  0 I1Cent=   200000004 NGrid=           0
         NMat0=    1 NMatS0=      1 NMatT0=    0 NMatD0=    1 NMtDS0=    0 NMtDT0=    0
 Petite list used in FoFCou.
 Initial guess orbital symmetries:
       Occupied  (A') (A') (A') (A') (A') (A') (A") (A') (A') (A')
                 (A') (A') (A") (A") (A') (A') (A")
       Virtual   (A') (A') (A') (A') (A") (A') (A') (A") (A') (A")
                 (A') (A') (A') (A') (A") (A") (A') (A') (A') (A")
                 (A') (A') (A') (A') (A") (A') (A') (A") (A') (A")
                 (A') (A') (A") (A') (A') (A") (A') (A") (A") (A')
                 (A') (A') (A") (A") (A') (A') (A') (A") (A') (A')
                 (A") (A") (A') (A') (A') (A') (A') (A") (A') (A")
                 (A") (A') (A') (A') (A") (A") (A") (A') (A') (A')
                 (A') (A") (A') (A") (A') (A') (A") (A') (A") (A')
                 (A') (A') (A") (A') (A") (A') (A") (A") (A') (A')
                 (A') (A') (A') (A") (A') (A") (A') (A") (A') (A')
                 (A") (A') (A') (A") (A') (A') (A") (A') (A') (A")
                 (A') (A") (A') (A") (A') (A") (A') (A') (A") (A')
                 (A') (A") (A') (A') (A") (A') (A") (A') (A") (A')
                 (A") (A') (A') (A') (A") (A') (A") (A') (A') (A')
                 (A") (A') (A') (A") (A') (A') (A") (A') (A') (A')
                 (A')
 The electronic state of the initial guess is 2-A".
 Keep R1 and R2 ints in memory in symmetry-blocked form, NReq=152981379.
 Requested convergence on RMS density matrix=1.00D-08 within 128 cycles.
 Requested convergence on MAX density matrix=1.00D-06.
 Requested convergence on             energy=1.00D-06.
 No special actions if energy rises.
 SCF Done:  E(ROHF) =  -609.057383711     A.U. after   20 cycles
            NFock= 20  Conv=0.40D-08     -V/T= 2.0006
 <Sx>= 0.0000 <Sy>= 0.0000 <Sz>= 0.5000 <S**2>= 0.7500 S= 0.5000
 <L.S>=  0.00000000000    
 Annihilation of the first spin contaminant:
 S**2 before annihilation     0.7500,   after     0.7500

 **********************************************************************

            Population analysis using the SCF Density.

 **********************************************************************

 Orbital symmetries:
       Occupied  (A') (A') (A') (A') (A') (A') (A") (A') (A') (A')
                 (A') (A') (A") (A') (A") (A') (A")
       Virtual   (A') (A') (A') (A") (A') (A') (A") (A') (A") (A')
                 (A') (A') (A') (A') (A') (A") (A') (A') (A") (A")
                 (A') (A') (A') (A") (A') (A') (A") (A') (A') (A")
                 (A') (A') (A") (A') (A') (A") (A') (A") (A') (A")
                 (A') (A') (A") (A') (A") (A') (A') (A") (A') (A")
                 (A') (A') (A') (A") (A') (A') (A') (A") (A') (A")
                 (A") (A') (A') (A") (A') (A") (A") (A') (A') (A')
                 (A') (A") (A') (A") (A') (A') (A') (A") (A") (A')
                 (A') (A') (A") (A') (A") (A') (A") (A") (A') (A')
                 (A') (A') (A') (A") (A') (A") (A') (A") (A') (A')
                 (A") (A') (A') (A") (A') (A') (A") (A') (A') (A")
                 (A') (A") (A') (A") (A') (A") (A') (A') (A") (A')
                 (A') (A") (A') (A') (A") (A') (A") (A') (A") (A')
                 (A") (A') (A') (A') (A") (A') (A") (A') (A') (A')
                 (A") (A') (A') (A") (A') (A') (A") (A') (A') (A')
                 (A')
 The electronic state is 2-A".
 Alpha  occ. eigenvalues -- -104.85644 -20.82947 -20.78517 -10.57716  -8.04360
 Alpha  occ. eigenvalues --   -8.04174  -8.04170  -1.72094  -1.15161  -1.04561
 Alpha  occ. eigenvalues --   -0.79659  -0.76453  -0.74844  -0.46320  -0.46245
 Alpha  occ. eigenvalues --   -0.42502  -0.18076
 Alpha virt. eigenvalues --   -0.07619   0.07689   0.09462   0.10094   0.10141
 Alpha virt. eigenvalues --    0.12326   0.14298   0.14440   0.17907   0.18523
 Alpha virt. eigenvalues --    0.20768   0.28512   0.31624   0.42402   0.46802
 Alpha virt. eigenvalues --    0.48708   0.49641   0.51245   0.51290   0.52847
 Alpha virt. eigenvalues --    0.54432   0.64225   0.64862   0.66373   0.69582
 Alpha virt. eigenvalues --    0.71198   0.72358   0.74640   0.76717   0.92910
 Alpha virt. eigenvalues --    0.99825   1.03425   1.08187   1.14105   1.18273
 Alpha virt. eigenvalues --    1.21434   1.27182   1.27384   1.28969   1.29334
 Alpha virt. eigenvalues --    1.32068   1.37800   1.41803   1.43781   1.48929
 Alpha virt. eigenvalues --    1.49820   1.62029   1.64014   1.69426   1.69824
 Alpha virt. eigenvalues --    1.71461   1.74501   1.76916   1.77334   1.83168
 Alpha virt. eigenvalues --    2.01187   2.01905   2.03306   2.13975   2.23170
 Alpha virt. eigenvalues --    2.25981   2.30887   2.37129   2.48575   2.50033
 Alpha virt. eigenvalues --    2.56764   2.60991   2.68302   2.75943   2.79192
 Alpha virt. eigenvalues --    2.87163   2.93855   3.03398   3.44722   3.46102
 Alpha virt. eigenvalues --    3.47860   3.48805   3.48912   3.52099   3.52731
 Alpha virt. eigenvalues --    3.53955   3.55611   3.57482   3.63850   3.64070
 Alpha virt. eigenvalues --    3.72455   3.75969   3.81693   3.83500   3.91808
 Alpha virt. eigenvalues --    4.08113   4.25019   4.36687   4.38905   4.43996
 Alpha virt. eigenvalues --    4.84745   4.85990   4.88325   4.91921   5.09554
 Alpha virt. eigenvalues --    6.01054   6.01912   6.20860   6.25537   6.30649
 Alpha virt. eigenvalues --    6.36669   6.42848   6.49190   6.62274   6.62593
 Alpha virt. eigenvalues --    6.69439   6.83585   6.87781   7.22326   7.26705
 Alpha virt. eigenvalues --    7.77458   7.82982   8.25792   9.24012   9.31017
 Alpha virt. eigenvalues --   10.01838  10.06901  10.10883  10.59527  10.83308
 Alpha virt. eigenvalues --   10.90215  10.95502  11.01665  11.07804  11.27237
 Alpha virt. eigenvalues --   11.61263  11.67018  11.97659  13.54553  22.15495
 Alpha virt. eigenvalues --   22.16019  22.17165  22.18521  22.25091  22.97960
 Alpha virt. eigenvalues --   28.35246  28.35788  28.51055  36.92883  36.97840
 Alpha virt. eigenvalues --   37.46744  37.56987  37.60206  38.39016  41.10766
 Alpha virt. eigenvalues --   42.95559
          Condensed to atoms (all electrons):
               1          2          3
     1  Cl  17.114930   0.104999  -0.037382
     2  O    0.104999   7.591120   0.231629
     3  O   -0.037382   0.231629   7.695458
          Atomic-Atomic Spin Densities.
               1          2          3
     1  Cl   0.002452  -0.001903   0.000808
     2  O   -0.001903   0.357801  -0.131206
     3  O    0.000808  -0.131206   0.904349
 Mulliken charges and spin densities:
               1          2
     1  Cl  -0.182547   0.001357
     2  O    0.072252   0.224691
     3  O    0.110295   0.773951
 Sum of Mulliken charges =  -0.00000   1.00000
 Mulliken charges and spin densities with hydrogens summed into heavy atoms:
               1          2
     1  Cl  -0.182547   0.001357
     2  O    0.072252   0.224691
     3  O    0.110295   0.773951
 Electronic spatial extent (au):  <R**2>=            269.8645
 Charge=             -0.0000 electrons
 Dipole moment (field-independent basis, Debye):
    X=              0.9775    Y=              1.9118    Z=              0.0000  Tot=              2.1472
 Quadrupole moment (field-independent basis, Debye-Ang):
   XX=            -23.0691   YY=            -21.4165   ZZ=            -23.1701
   XY=              0.7228   XZ=              0.0000   YZ=              0.0000
 Traceless Quadrupole moment (field-independent basis, Debye-Ang):
   XX=             -0.5172   YY=              1.1354   ZZ=             -0.6182
   XY=              0.7228   XZ=              0.0000   YZ=              0.0000
 Octapole moment (field-independent basis, Debye-Ang**2):
  XXX=              5.3367  YYY=              7.9935  ZZZ=              0.0000  XYY=              0.9331
  XXY=              3.7461  XXZ=              0.0000  XZZ=              2.2131  YZZ=              4.0691
  YYZ=              0.0000  XYZ=              0.0000
 Hexadecapole moment (field-independent basis, Debye-Ang**3):
 XXXX=            -85.8989 YYYY=           -197.9996 ZZZZ=            -22.8273 XXXY=            -46.5233
 XXXZ=              0.0000 YYYX=            -42.7469 YYYZ=              0.0000 ZZZX=              0.0000
 ZZZY=              0.0000 XXYY=            -47.6463 XXZZ=            -17.9101 YYZZ=            -38.7517
 XXYZ=              0.0000 YYXZ=              0.0000 ZZXY=            -15.4082
 N-N= 8.386738967016D+01 E-N=-1.616265771068D+03  KE= 6.086800896606D+02
 Symmetry A'   KE= 5.550557974783D+02
 Symmetry A"   KE= 5.362429218230D+01
 Symmetry A'   SP=-4.413878554331D-16
 Symmetry A"   SP= 1.000000000000D+00
                          Isotropic Fermi Contact Couplings
        Atom                 a.u.       MegaHertz       Gauss      10(-4) cm-1
     1  Cl(35)            -0.00000      -0.00000      -0.00000      -0.00000
     2  O(17)              0.00000      -0.00000      -0.00000      -0.00000
     3  O(17)              0.00000      -0.00000      -0.00000      -0.00000
 --------------------------------------------------------
       Center         ----  Spin Dipole Couplings  ----
                      3XX-RR        3YY-RR        3ZZ-RR
 --------------------------------------------------------
     1   Atom       -0.007506      0.004303      0.003203
     2   Atom       -0.530758     -0.633996      1.164754
     3   Atom       -1.740609     -1.760443      3.501052
 --------------------------------------------------------
                        XY            XZ            YZ
 --------------------------------------------------------
     1   Atom        0.007060      0.000000      0.000000
     2   Atom        0.025475      0.000000      0.000000
     3   Atom        0.005172      0.000000      0.000000
 --------------------------------------------------------


 ---------------------------------------------------------------------------------
              Anisotropic Spin Dipole Couplings in Principal Axis System
 ---------------------------------------------------------------------------------

       Atom             a.u.   MegaHertz   Gauss  10(-4) cm-1        Axes

              Baa    -0.0108    -0.566    -0.202    -0.189  0.9060 -0.4234 -0.0000
     1 Cl(35) Bbb     0.0032     0.168     0.060     0.056  0.0000  0.0000  1.0000
              Bcc     0.0076     0.398     0.142     0.133  0.4234  0.9060  0.0000
 
              Baa    -0.6399    46.306    16.523    15.446 -0.2272  0.9738  0.0000
     2 O(17)  Bbb    -0.5248    37.975    13.550    12.667  0.9738  0.2272  0.0000
              Bcc     1.1648   -84.281   -30.073   -28.113  0.0000  0.0000  1.0000
 
              Baa    -1.7617   127.476    45.487    42.521 -0.2380  0.9713  0.0000
     3 O(17)  Bbb    -1.7393   125.857    44.909    41.982  0.9713  0.2380  0.0000
              Bcc     3.5011  -253.334   -90.396   -84.503  0.0000  0.0000  1.0000
 

 ---------------------------------------------------------------------------------

 1\1\GINC-GAMBA\SP\ROHF\Gen\Cl1O2(2)\IRIKURA\02-Jan-2024\0\\# rohf/gen 
 geom=check\\chloroperoxyl, ROHF/cc-pVTZ-F12\\0,2\Cl,0,-0.5482047338,-1
 .1358528685,0.\O,0,0.000118485,1.0728281828,0.\O,0,1.1644972488,1.3410
 046857,0.\\Version=ES64L-G16RevB.01\State=2-A"\HF=-609.0573837\RMSD=4.
 027e-09\Dipole=0.3847041,0.7521013,0.\Quadrupole=-0.3843207,0.8439496,
 -0.459629,0.5376285,0.,0.\PG=CS [SG(Cl1O2)]\\@


 FIREWORKS ENDED
 AND SPECTATORS GONE AWAY....
 AH, HOW VAST AND DARK
                     SHIKI
 Job cpu time:       0 days  0 hours  0 minutes 29.4 seconds.
 Elapsed time:       0 days  0 hours  0 minutes  9.1 seconds.
 File lengths (MBytes):  RWF=     15 Int=      0 D2E=      0 Chk=      4 Scr=      1
 Normal termination of Gaussian 16 at Tue Jan  2 17:32:53 2024.
