 Entering Gaussian System, Link 0=g16
 AtFile(1): pcseg2.gbs
            -H     0
            S   4   1.00
                  0.754732D+02           0.427821D-02
                  0.113575D+02           0.328672D-01
                  0.260081D+01           0.159578D+00
                  0.735503D+00           0.500000D+00
            S   1   1.00
                  0.231761D+00           1.0000000
            S   1   1.00
                  0.741675D-01           1.0000000
            P   1   1.00
                  0.160000D+01           1.0000000
            P   1   1.00
                  0.450000D+00           1.0000000
            D   1   1.00
                  0.125000D+01           1.0000000
            ****
            -C     0
            S   7   1.00
                  0.731999D+04           0.695369D-03
                  0.109818D+04           0.537138D-02
                  0.250014D+03           0.274734D-01
                  0.707586D+02           0.105078D+00
                  0.228595D+02           0.291262D+00
                  0.803936D+01           0.500000D+00
                  0.289309D+01           0.362224D+00
            S   2   1.00
                  0.521640D+01          -0.957844D-01
                  0.556124D+00           0.500000D+00
            S   1   1.00
                  0.228813D+00           1.0000000
            S   1   1.00
                  0.936338D-01           1.0000000
            P   4   1.00
                  0.339855D+02           0.818395D-02
                  0.772957D+01           0.586921D-01
                  0.224954D+01           0.222514D+00
                  0.767681D+00           0.500000D+00
            P   1   1.00
                  0.263283D+00           1.0000000
            P   1   1.00
                  0.848744D-01           1.0000000
            D   1   1.00
                  0.140000D+01           1.0000000
            D   1   1.00
                  0.450000D+00           1.0000000
            F   1   1.00
                  0.950000D+00           1.0000000
            ****
            -O     0
            S   7   1.00
                  0.135887D+05           0.665492D-03
                  0.203847D+04           0.514222D-02
                  0.464041D+03           0.263472D-01
                  0.131339D+03           0.101500D+00
                  0.425340D+02           0.285877D+00
                  0.150429D+02           0.500000D+00
                  0.546616D+01           0.368211D+00
            S   2   1.00
                  0.100915D+02          -0.100084D+00
                  0.110429D+01           0.500000D+00
            S   1   1.00
                  0.448082D+00           1.0000000
            S   1   1.00
                  0.175325D+00           1.0000000
            P   4   1.00
                  0.608220D+02           0.908253D-02
                  0.140332D+02           0.645878D-01
                  0.418244D+01           0.241502D+00
                  0.142490D+01           0.500000D+00
            P   1   1.00
                  0.478741D+00           1.0000000
            P   1   1.00
                  0.146257D+00           1.0000000
            D   1   1.00
                  0.220000D+01           1.0000000
            D   1   1.00
                  0.650000D+00           1.0000000
            F   1   1.00
                  0.110000D+01           1.0000000
            ****
            -N     0
            S   7   1.00
                  0.101643D+05           0.682757D-03
                  0.152481D+04           0.527488D-02
                  0.347119D+03           0.270037D-01
                  0.982389D+02           0.103673D+00
                  0.317799D+02           0.289575D+00
                  0.112240D+02           0.500000D+00
                  0.406611D+01           0.364621D+00
            S   2   1.00
                  0.747898D+01          -0.975681D-01
                  0.805040D+00           0.500000D+00
            S   1   1.00
                  0.324626D+00           1.0000000
            S   1   1.00
                  0.128132D+00           1.0000000
            P   4   1.00
                  0.482704D+02           0.829547D-02
                  0.110815D+02           0.596223D-01
                  0.326643D+01           0.227889D+00
                  0.111680D+01           0.500000D+00
            P   1   1.00
                  0.382049D+00           1.0000000
            P   1   1.00
                  0.121222D+00           1.0000000
            D   1   1.00
                  0.180000D+01           1.0000000
            D   1   1.00
                  0.550000D+00           1.0000000
            F   1   1.00
                  0.102000D+01           1.0000000
            ****
            -F     0
            S   7   1.00
                  0.174507D+05           0.655972D-03
                  0.261768D+04           0.506944D-02
                  0.595857D+03           0.259899D-01
                  0.168651D+03           0.100353D+00
                  0.546654D+02           0.284095D+00
                  0.193717D+02           0.500000D+00
                  0.706202D+01           0.370721D+00
            S   2   1.00
                  0.131197D+02          -0.101997D+00
                  0.145046D+01           0.500000D+00
            S   1   1.00
                  0.588255D+00           1.0000000
            S   1   1.00
                  0.227960D+00           1.0000000
            P   4   1.00
                  0.779407D+02           0.931135D-02
                  0.180425D+02           0.663964D-01
                  0.542342D+01           0.246386D+00
                  0.184876D+01           0.500000D+00
            P   1   1.00
                  0.617455D+00           1.0000000
            P   1   1.00
                  0.185496D+00           1.0000000
            D   1   1.00
                  0.280000D+01           1.0000000
            D   1   1.00
                  0.800000D+00           1.0000000
            F   1   1.00
                  0.120000D+01           1.0000000
            ****
            -Cl     0
            S   8   1.00
                  0.154272D+06           0.222473D-03
                  0.231232D+05           0.172590D-02
                  0.526257D+04           0.899286D-02
                  0.148995D+04           0.367724D-01
                  0.485417D+03           0.121446D+00
                  0.174634D+03           0.304148D+00
                  0.672393D+02           0.500000D+00
                  0.265780D+02           0.360252D+00
            S   3   1.00
                  0.131826D+03          -0.531330D-01
                  0.400703D+02          -0.233346D+00
                  0.789448D+01           0.500000D+00
            S   2   1.00
                  0.427711D+01           0.500000D+00
                  0.196233D+01           0.370517D+00
            S   1   1.00
                  0.520793D+00           1.0000000
            S   1   1.00
                  0.181633D+00           1.0000000
            P   7   1.00
                  0.124440D+04           0.988206D-03
                  0.295109D+03           0.829674D-02
                  0.947224D+02           0.430906D-01
                  0.352588D+02           0.148443D+00
                  0.144211D+02           0.344744D+00
                  0.610371D+01           0.500000D+00
                  0.258886D+01           0.348278D+00
            P   2   1.00
                  0.109447D+02          -0.196768D-01
                  0.104413D+01           0.500000D+00
            P   1   1.00
                  0.376184D+00           1.0000000
            P   1   1.00
                  0.120613D+00           1.0000000
            D   1   1.00
                  0.231000D+01           1.0000000
            D   1   1.00
                  0.520000D+00           1.0000000
            F   1   1.00
                  0.720000D+00           1.0000000
            ****
            -S     0
            S   8   1.00
                  0.134700D+06           0.226231D-03
                  0.201904D+05           0.175488D-02
                  0.459528D+04           0.914190D-02
                  0.130109D+04           0.373551D-01
                  0.423902D+03           0.123121D+00
                  0.152485D+03           0.306801D+00
                  0.586925D+02           0.500000D+00
                  0.231461D+02           0.354358D+00
            S   3   1.00
                  0.116327D+03          -0.491772D-01
                  0.352841D+02          -0.215962D+00
                  0.677831D+01           0.500000D+00
            S   2   1.00
                  0.360404D+01           0.500000D+00
                  0.164871D+01           0.366278D+00
            S   1   1.00
                  0.421821D+00           1.0000000
            S   1   1.00
                  0.147554D+00           1.0000000
            P   7   1.00
                  0.104863D+04           0.105273D-02
                  0.248717D+03           0.879338D-02
                  0.797887D+02           0.453358D-01
                  0.296023D+02           0.154476D+00
                  0.120627D+02           0.352366D+00
                  0.507628D+01           0.500000D+00
                  0.213375D+01           0.346429D+00
            P   2   1.00
                  0.928958D+01          -0.185932D-01
                  0.837819D+00           0.500000D+00
            P   1   1.00
                  0.301495D+00           1.0000000
            P   1   1.00
                  0.974740D-01           1.0000000
            D   1   1.00
                  0.210000D+01           1.0000000
            D   1   1.00
                  0.480000D+00           1.0000000
            F   1   1.00
                  0.660000D+00           1.0000000
            ****
            -Br     0
            S    10   1.00
                  0.233625D+07           0.532336D-04
                  0.349961D+06           0.413715D-03
                  0.796444D+05           0.217123D-02
                  0.225555D+05           0.910109D-02
                  0.735546D+04           0.323789D-01
                  0.265352D+04           0.988755D-01
                  0.103517D+04           0.248138D+00
                  0.422205D+03           0.474328D+00
                  0.180035D+03           0.500000D+00
                  0.793308D+02           0.187769D+00
            S    4   1.00
                  0.620834D+03          -0.226511D-01
                  0.190829D+03          -0.109497D+00
                  0.312505D+02           0.500000D+00
                  0.135270D+02           0.492812D+00
            S    2   1.00
                  0.216097D+02          -0.165418D+00
                  0.372566D+01           0.500000D+00
            S    1   1.00
                  0.169770D+01           1.0000000
            S    1   1.00
                  0.489332D+00           1.0000000
            S    1   1.00
                  0.175712D+00           1.0000000
            P    8   1.00
                  0.960829D+04           0.478974D-03
                  0.227618D+04           0.417853D-02
                  0.736723D+03           0.229315D-01
                  0.281579D+03           0.892653D-01
                  0.118395D+03           0.255288D+00
                  0.527481D+02           0.479074D+00
                  0.245098D+02           0.500000D+00
                  0.112009D+02           0.200944D+00
            P    4   1.00
                  0.587849D+02          -0.189674D-01
                  0.918962D+01           0.264104D+00
                  0.413895D+01           0.500000D+00
                  0.184225D+01           0.319316D+00
            P    1   1.00
                  0.713862D+00           1.0000000
            P    1   1.00
                  0.274232D+00           1.0000000
            P    1   1.00
                  0.944411D-01           1.0000000
            D    7   1.00
                  0.398470D+03           0.204066D-02
                  0.118967D+03           0.175171D-01
                  0.450197D+02           0.829708D-01
                  0.190320D+02           0.236284D+00
                  0.855686D+01           0.428468D+00
                  0.382950D+01           0.500000D+00
                  0.166291D+01           0.349360D+00
            D    1   1.00
                  0.672953D+00           1.0000000
            D    1   1.00
                  0.252000D+00           1.0000000
            F    1   1.00
                  0.530000D+00           1.0000000
            ****
            -Si     0
            S    8   1.00
                  0.996133D+05           0.235546D-03
                  0.149311D+05           0.182707D-02
                  0.339820D+04           0.951425D-02
                  0.962140D+03           0.388172D-01
                  0.313430D+03           0.127328D+00
                  0.112683D+03           0.313522D+00
                  0.433372D+02           0.500000D+00
                  0.170029D+02           0.340347D+00
            S    3   1.00
                  0.884208D+02          -0.404451D-01
                  0.266756D+02          -0.178059D+00
                  0.479640D+01           0.500000D+00
            S    2   1.00
                  0.239385D+01           0.500000D+00
                  0.108333D+01           0.338016D+00
            S    1   1.00
                  0.252420D+00           1.0000000
            S    1   1.00
                  0.891210D-01           1.0000000
            P    7   1.00
                  0.709901D+03           0.123028D-02
                  0.168426D+03           0.101366D-01
                  0.539946D+02           0.511840D-01
                  0.198646D+02           0.169967D+00
                  0.801369D+01           0.370717D+00
                  0.331870D+01           0.500000D+00
                  0.136112D+01           0.344128D+00
            P    2   1.00
                  0.622158D+01          -0.166609D-01
                  0.503049D+00           0.500000D+00
            P    1   1.00
                  0.179848D+00           1.0000000
            P    1   1.00
                  0.591912D-01           1.0000000
            D    1   1.00
                  0.168000D+01           1.0000000
            D    1   1.00
                  0.380000D+00           1.0000000
            F    1   1.00
                  0.540000D+00           1.0000000
            ****
            -P     0
            S    8   1.00
                  0.116416D+06           0.230715D-03
                  0.174500D+05           0.178960D-02
                  0.397149D+04           0.932116D-02
                  0.112447D+04           0.380591D-01
                  0.366347D+03           0.125148D+00
                  0.131757D+03           0.310022D+00
                  0.506988D+02           0.500000D+00
                  0.199436D+02           0.347528D+00
            S    3   1.00
                  0.101878D+03          -0.446755D-01
                  0.308249D+02          -0.196376D+00
                  0.573688D+01           0.500000D+00
            S    2   1.00
                  0.296868D+01           0.500000D+00
                  0.135315D+01           0.355098D+00
            S    1   1.00
                  0.332196D+00           1.0000000
            S    1   1.00
                  0.116229D+00           1.0000000
            P    7   1.00
                  0.873928D+03           0.112375D-02
                  0.207298D+03           0.933330D-02
                  0.664628D+02           0.477213D-01
                  0.245665D+02           0.160733D+00
                  0.996820D+01           0.359760D+00
                  0.416536D+01           0.500000D+00
                  0.173022D+01           0.346593D+00
            P    2   1.00
                  0.772530D+01          -0.175718D-01
                  0.657252D+00           0.500000D+00
            P    1   1.00
                  0.239903D+00           1.0000000
            P    1   1.00
                  0.800988D-01           1.0000000
            D    1   1.00
                  0.189000D+01           1.0000000
            D    1   1.00
                  0.430000D+00           1.0000000
            F    1   1.00
                  0.600000D+00           1.0000000
            ****
            
 Initial command:
 /usr/local/apps/g16_b01_avx/g16/l1.exe "/wrk/irikura/Gau-19625.inp" -scrdir="/wrk/irikura/"
 Entering Link 1 = /usr/local/apps/g16_b01_avx/g16/l1.exe PID=     19627.
  
 Copyright (c) 1988-2017, Gaussian, Inc.  All Rights Reserved.
  
 This is part of the Gaussian(R) 16 program.  It is based on
 the Gaussian(R) 09 system (copyright 2009, Gaussian, Inc.),
 the Gaussian(R) 03 system (copyright 2003, Gaussian, Inc.),
 the Gaussian(R) 98 system (copyright 1998, Gaussian, Inc.),
 the Gaussian(R) 94 system (copyright 1995, Gaussian, Inc.),
 the Gaussian 92(TM) system (copyright 1992, Gaussian, Inc.),
 the Gaussian 90(TM) system (copyright 1990, Gaussian, Inc.),
 the Gaussian 88(TM) system (copyright 1988, Gaussian, Inc.),
 the Gaussian 86(TM) system (copyright 1986, Carnegie Mellon
 University), and the Gaussian 82(TM) system (copyright 1983,
 Carnegie Mellon University). Gaussian is a federally registered
 trademark of Gaussian, Inc.
  
 This software contains proprietary and confidential information,
 including trade secrets, belonging to Gaussian, Inc.
  
 This software is provided under written license and may be
 used, copied, transmitted, or stored only in accord with that
 written license.
  
 The following legend is applicable only to US Government
 contracts under FAR:
  
                    RESTRICTED RIGHTS LEGEND
  
 Use, reproduction and disclosure by the US Government is
 subject to restrictions as set forth in subparagraphs (a)
 and (c) of the Commercial Computer Software - Restricted
 Rights clause in FAR 52.227-19.
  
 Gaussian, Inc.
 340 Quinnipiac St., Bldg. 40, Wallingford CT 06492
  
  
 ---------------------------------------------------------------
 Warning -- This program may not be used in any manner that
 competes with the business of Gaussian, Inc. or will provide
 assistance to any competitor of Gaussian, Inc.  The licensee
 of this program is prohibited from giving any competitor of
 Gaussian, Inc. access to this program.  By using this program,
 the user acknowledges that Gaussian, Inc. is engaged in the
 business of creating and licensing software in the field of
 computational chemistry and represents and warrants to the
 licensee that it is not a competitor of Gaussian, Inc. and that
 it will not use this program in any manner prohibited above.
 ---------------------------------------------------------------
  

 Cite this work as:
 Gaussian 16, Revision B.01,
 M. J. Frisch, G. W. Trucks, H. B. Schlegel, G. E. Scuseria, 
 M. A. Robb, J. R. Cheeseman, G. Scalmani, V. Barone, 
 G. A. Petersson, H. Nakatsuji, X. Li, M. Caricato, A. V. Marenich, 
 J. Bloino, B. G. Janesko, R. Gomperts, B. Mennucci, H. P. Hratchian, 
 J. V. Ortiz, A. F. Izmaylov, J. L. Sonnenberg, D. Williams-Young, 
 F. Ding, F. Lipparini, F. Egidi, J. Goings, B. Peng, A. Petrone, 
 T. Henderson, D. Ranasinghe, V. G. Zakrzewski, J. Gao, N. Rega, 
 G. Zheng, W. Liang, M. Hada, M. Ehara, K. Toyota, R. Fukuda, 
 J. Hasegawa, M. Ishida, T. Nakajima, Y. Honda, O. Kitao, H. Nakai, 
 T. Vreven, K. Throssell, J. A. Montgomery, Jr., J. E. Peralta, 
 F. Ogliaro, M. J. Bearpark, J. J. Heyd, E. N. Brothers, K. N. Kudin, 
 V. N. Staroverov, T. A. Keith, R. Kobayashi, J. Normand, 
 K. Raghavachari, A. P. Rendell, J. C. Burant, S. S. Iyengar, 
 J. Tomasi, M. Cossi, J. M. Millam, M. Klene, C. Adamo, R. Cammi, 
 J. W. Ochterski, R. L. Martin, K. Morokuma, O. Farkas, 
 J. B. Foresman, and D. J. Fox, Gaussian, Inc., Wallingford CT, 2016.
 
 ******************************************
 Gaussian 16:  ES64L-G16RevB.01 20-Dec-2017
                17-Jun-2022 
 ******************************************
 %mem=1000mw
 %nprocs=12
 Will use up to   12 processors via shared memory.
 --------------------
 # b3lyp/gen opt freq
 --------------------
 1/18=20,19=15,26=3,38=1/1,3;
 2/9=110,12=2,17=6,18=5,40=1/2;
 3/5=7,11=2,25=1,30=1,71=1,74=-5/1,2,3;
 4//1;
 5/5=2,38=5/2;
 6/7=2,8=2,9=2,10=2,28=1/1;
 7//1,2,3,16;
 1/18=20,19=15,26=3/3(2);
 2/9=110/2;
 99//99;
 2/9=110/2;
 3/5=7,6=1,11=2,25=1,30=1,71=1,74=-5,82=7/1,2,3;
 4/5=5,16=3,69=1/1;
 5/5=2,38=5/2;
 7//1,2,3,16;
 1/18=20,19=15,26=3/3(-5);
 2/9=110/2;
 6/7=2,8=2,9=2,10=2,19=2,28=1/1;
 99/9=1/99;
 --------------------------
 isocyanogen, B3LYP/pcseg-2
 --------------------------
 Symbolic Z-matrix:
 Charge =  0 Multiplicity = 1
 C                     0.61331   0.        0. 
 N                    -0.69125   0.        0. 
 N                     1.77273   0.        0. 
 C                    -1.87531   0.        0. 
 

 GradGradGradGradGradGradGradGradGradGradGradGradGradGradGradGradGradGrad
 Berny optimization.
 Initialization pass.
                           ----------------------------
                           !    Initial Parameters    !
                           ! (Angstroms and Degrees)  !
 --------------------------                            --------------------------
 ! Name  Definition              Value          Derivative Info.                !
 --------------------------------------------------------------------------------
 ! R1    R(1,2)                  1.3046         estimate D2E/DX2                !
 ! R2    R(1,3)                  1.1594         estimate D2E/DX2                !
 ! R3    R(2,4)                  1.1841         estimate D2E/DX2                !
 ! A1    L(2,1,3,-2,-1)        180.0            estimate D2E/DX2                !
 ! A2    L(1,2,4,-2,-1)        180.0            estimate D2E/DX2                !
 ! A3    L(2,1,3,-3,-2)        180.0            estimate D2E/DX2                !
 ! A4    L(1,2,4,-3,-2)        180.0            estimate D2E/DX2                !
 --------------------------------------------------------------------------------
 Trust Radius=3.00D-01 FncErr=1.00D-07 GrdErr=1.00D-06 EigMax=2.50D+02 EigMin=1.00D-04
 Number of steps in this run=     20 maximum allowed number of steps=    100.
 GradGradGradGradGradGradGradGradGradGradGradGradGradGradGradGradGradGrad

                          Input orientation:                          
 ---------------------------------------------------------------------
 Center     Atomic      Atomic             Coordinates (Angstroms)
 Number     Number       Type             X           Y           Z
 ---------------------------------------------------------------------
      1          6           0        0.613311    0.000000    0.000000
      2          7           0       -0.691254    0.000000    0.000000
      3          7           0        1.772732    0.000000    0.000000
      4          6           0       -1.875313    0.000000    0.000000
 ---------------------------------------------------------------------
                    Distance matrix (angstroms):
                    1          2          3          4
     1  C    0.000000
     2  N    1.304565   0.000000
     3  N    1.159421   2.463986   0.000000
     4  C    2.488624   1.184059   3.648045   0.000000
 Stoichiometry    C2N2
 Framework group  C*V[C*(CNCN)]
 Deg. of freedom     3
 Full point group                 C*V     NOp   4
 Largest Abelian subgroup         C2V     NOp   4
 Largest concise Abelian subgroup C1      NOp   1
                         Standard orientation:                         
 ---------------------------------------------------------------------
 Center     Atomic      Atomic             Coordinates (Angstroms)
 Number     Number       Type             X           Y           Z
 ---------------------------------------------------------------------
      1          6           0        0.000000    0.000000    0.613375
      2          7           0        0.000000    0.000000   -0.691190
      3          7           0        0.000000    0.000000    1.772796
      4          6           0        0.000000    0.000000   -1.875249
 ---------------------------------------------------------------------
 Rotational constants (GHZ):           0.0000000           5.1880425           5.1880425
 General basis read from cards:  (5D, 7F)
 There are    64 symmetry adapted cartesian basis functions of A1  symmetry.
 There are    12 symmetry adapted cartesian basis functions of A2  symmetry.
 There are    32 symmetry adapted cartesian basis functions of B1  symmetry.
 There are    32 symmetry adapted cartesian basis functions of B2  symmetry.
 There are    52 symmetry adapted basis functions of A1  symmetry.
 There are    12 symmetry adapted basis functions of A2  symmetry.
 There are    28 symmetry adapted basis functions of B1  symmetry.
 There are    28 symmetry adapted basis functions of B2  symmetry.
   120 basis functions,   204 primitive gaussians,   140 cartesian basis functions
    13 alpha electrons       13 beta electrons
       nuclear repulsion energy        79.2475368029 Hartrees.
 NAtoms=    4 NActive=    4 NUniq=    4 SFac= 1.00D+00 NAtFMM=   60 NAOKFM=F Big=F
 Integral buffers will be    131072 words long.
 Raffenetti 2 integral format.
 Two-electron integral symmetry is turned on.
 One-electron integrals computed using PRISM.
 NBasis=   120 RedAO= T EigKep=  1.92D-04  NBF=    52    12    28    28
 NBsUse=   120 1.00D-06 EigRej= -1.00D+00 NBFU=    52    12    28    28
 ExpMin= 8.49D-02 ExpMax= 1.02D+04 ExpMxC= 3.47D+02 IAcc=3 IRadAn=         5 AccDes= 0.00D+00
 Harris functional with IExCor=  402 and IRadAn=       5 diagonalized for initial guess.
 HarFok:  IExCor=  402 AccDes= 0.00D+00 IRadAn=         5 IDoV= 1 UseB2=F ITyADJ=14
 ICtDFT=  3500011 ScaDFX=  1.000000  1.000000  1.000000  1.000000
 FoFCou: FMM=F IPFlag=           0 FMFlag=      100000 FMFlg1=           0
         NFxFlg=           0 DoJE=T BraDBF=F KetDBF=T FulRan=T
         wScrn=  0.000000 ICntrl=       500 IOpCl=  0 I1Cent=   200000004 NGrid=           0
         NMat0=    1 NMatS0=      1 NMatT0=    0 NMatD0=    1 NMtDS0=    0 NMtDT0=    0
 Petite list used in FoFCou.
 Initial guess orbital symmetries:
       Occupied  (SG) (SG) (SG) (SG) (SG) (SG) (SG) (PI) (PI) (SG)
                 (PI) (PI) (SG)
       Virtual   (PI) (PI) (PI) (PI) (SG) (SG) (PI) (PI) (SG) (SG)
                 (PI) (PI) (SG) (SG) (PI) (PI) (PI) (PI) (SG) (SG)
                 (SG) (DLTA) (DLTA) (SG) (SG) (DLTA) (DLTA) (PI)
                 (PI) (SG) (PI) (PI) (PI) (PI) (SG) (DLTA) (DLTA)
                 (PI) (PI) (SG) (DLTA) (DLTA) (SG) (PI) (PI) (PI)
                 (PI) (PI) (PI) (SG) (SG) (SG) (PI) (PI) (SG) (SG)
                 (DLTA) (DLTA) (PHI) (PHI) (PHI) (PHI) (DLTA) (DLTA)
                 (SG) (PI) (PI) (PHI) (PHI) (SG) (PI) (PI) (PHI)
                 (PHI) (DLTA) (DLTA) (DLTA) (DLTA) (SG) (PI) (PI)
                 (DLTA) (DLTA) (SG) (PI) (PI) (SG) (SG) (DLTA)
                 (DLTA) (DLTA) (DLTA) (DLTA) (DLTA) (PI) (PI) (SG)
                 (PI) (PI) (PI) (PI) (SG) (PI) (PI) (SG) (SG) (SG)
 The electronic state of the initial guess is 1-SG.
 Keep R1 ints in memory in symmetry-blocked form, NReq=37992094.
 Requested convergence on RMS density matrix=1.00D-08 within 128 cycles.
 Requested convergence on MAX density matrix=1.00D-06.
 Requested convergence on             energy=1.00D-06.
 No special actions if energy rises.
 Integral accuracy reduced to 1.0D-05 until final iterations.
 Initial convergence to 1.0D-05 achieved.  Increase integral accuracy.
 SCF Done:  E(RB3LYP) =  -185.690795837     A.U. after   12 cycles
            NFock= 12  Conv=0.55D-08     -V/T= 2.0035

 **********************************************************************

            Population analysis using the SCF Density.

 **********************************************************************

 Orbital symmetries:
       Occupied  (SG) (SG) (SG) (SG) (SG) (SG) (SG) (PI) (PI) (SG)
                 (SG) (PI) (PI)
       Virtual   (PI) (PI) (SG) (PI) (PI) (SG) (PI) (PI) (SG) (SG)
                 (PI) (PI) (SG) (SG) (PI) (PI) (PI) (PI) (SG) (SG)
                 (SG) (DLTA) (DLTA) (SG) (DLTA) (DLTA) (SG) (PI)
                 (PI) (SG) (PI) (PI) (PI) (PI) (DLTA) (DLTA) (SG)
                 (PI) (PI) (SG) (DLTA) (DLTA) (SG) (PI) (PI) (PI)
                 (PI) (PI) (PI) (SG) (SG) (SG) (PI) (PI) (SG) (SG)
                 (DLTA) (DLTA) (PHI) (PHI) (PHI) (PHI) (DLTA) (DLTA)
                 (SG) (PI) (PI) (PHI) (PHI) (SG) (PHI) (PHI) (PI)
                 (PI) (DLTA) (DLTA) (DLTA) (DLTA) (SG) (PI) (PI)
                 (DLTA) (DLTA) (SG) (PI) (PI) (SG) (SG) (DLTA)
                 (DLTA) (DLTA) (DLTA) (DLTA) (DLTA) (PI) (PI) (SG)
                 (PI) (PI) (PI) (PI) (SG) (PI) (PI) (SG) (SG) (SG)
 The electronic state is 1-SG.
 Alpha  occ. eigenvalues --  -14.43769 -14.37522 -10.30544 -10.29874  -1.05061
 Alpha  occ. eigenvalues --   -0.95885  -0.80444  -0.49808  -0.49808  -0.42417
 Alpha  occ. eigenvalues --   -0.37913  -0.37108  -0.37108
 Alpha virt. eigenvalues --   -0.09412  -0.09412   0.02940   0.06031   0.06031
 Alpha virt. eigenvalues --    0.09945   0.14077   0.14077   0.15105   0.17771
 Alpha virt. eigenvalues --    0.21212   0.21212   0.23926   0.33473   0.35750
 Alpha virt. eigenvalues --    0.35750   0.45403   0.45403   0.48487   0.53184
 Alpha virt. eigenvalues --    0.61892   0.75558   0.75558   0.79831   0.87190
 Alpha virt. eigenvalues --    0.87190   0.88749   0.94813   0.94813   1.12443
 Alpha virt. eigenvalues --    1.16412   1.16412   1.18676   1.18676   1.21807
 Alpha virt. eigenvalues --    1.21807   1.22673   1.41589   1.41589   1.46018
 Alpha virt. eigenvalues --    1.46532   1.46532   1.67877   1.69935   1.69935
 Alpha virt. eigenvalues --    1.97757   1.97757   1.99379   1.99379   1.99710
 Alpha virt. eigenvalues --    2.18376   2.50490   2.51722   2.51722   2.58251
 Alpha virt. eigenvalues --    2.69671   2.93266   2.93266   3.11640   3.11640
 Alpha virt. eigenvalues --    3.22861   3.22861   3.37755   3.37755   3.38304
 Alpha virt. eigenvalues --    3.57688   3.57688   3.63176   3.63176   3.76674
 Alpha virt. eigenvalues --    3.77061   3.77061   3.77637   3.77637   3.87098
 Alpha virt. eigenvalues --    3.87098   3.93617   3.93617   3.98727   4.14617
 Alpha virt. eigenvalues --    4.14617   4.21405   4.21405   4.31181   4.40769
 Alpha virt. eigenvalues --    4.40769   4.50906   4.63167   4.89449   4.89449
 Alpha virt. eigenvalues --    4.94197   4.94197   5.03350   5.03350   5.08375
 Alpha virt. eigenvalues --    5.08375   5.11966   5.42255   5.42255   5.78098
 Alpha virt. eigenvalues --    5.78098   5.86542   6.13798   6.13798   6.86381
 Alpha virt. eigenvalues --    7.41904   8.49270
          Condensed to atoms (all electrons):
               1          2          3          4
     1  C    4.473190   0.376355   0.812015   0.014721
     2  N    0.376355   6.279980  -0.014958   0.672103
     3  N    0.812015  -0.014958   6.350450  -0.000614
     4  C    0.014721   0.672103  -0.000614   5.177136
 Mulliken charges:
               1
     1  C    0.323720
     2  N   -0.313481
     3  N   -0.146893
     4  C    0.136654
 Sum of Mulliken charges =  -0.00000
 Mulliken charges with hydrogens summed into heavy atoms:
               1
     1  C    0.323720
     2  N   -0.313481
     3  N   -0.146893
     4  C    0.136654
 Electronic spatial extent (au):  <R**2>=            228.3307
 Charge=             -0.0000 electrons
 Dipole moment (field-independent basis, Debye):
    X=              0.0000    Y=              0.0000    Z=             -0.8853  Tot=              0.8853
 Quadrupole moment (field-independent basis, Debye-Ang):
   XX=            -21.2089   YY=            -21.2089   ZZ=            -30.7761
   XY=              0.0000   XZ=              0.0000   YZ=              0.0000
 Traceless Quadrupole moment (field-independent basis, Debye-Ang):
   XX=              3.1891   YY=              3.1891   ZZ=             -6.3781
   XY=              0.0000   XZ=              0.0000   YZ=              0.0000
 Octapole moment (field-independent basis, Debye-Ang**2):
  XXX=              0.0000  YYY=              0.0000  ZZZ=              5.2173  XYY=              0.0000
  XXY=              0.0000  XXZ=              0.9070  XZZ=              0.0000  YZZ=              0.0000
  YYZ=              0.9070  XYZ=              0.0000
 Hexadecapole moment (field-independent basis, Debye-Ang**3):
 XXXX=            -21.2692 YYYY=            -21.2692 ZZZZ=           -350.7511 XXXY=              0.0000
 XXXZ=              0.0000 YYYX=              0.0000 YYYZ=              0.0000 ZZZX=              0.0000
 ZZZY=              0.0000 XXYY=             -7.0897 XXZZ=            -51.4284 YYZZ=            -51.4284
 XXYZ=              0.0000 YYXZ=              0.0000 ZZXY=              0.0000
 N-N= 7.924753680292D+01 E-N=-5.911092030877D+02  KE= 1.850439235023D+02
 Symmetry A1   KE= 1.728665002737D+02
 Symmetry A2   KE= 2.438305602508D-51
 Symmetry B1   KE= 6.088711614270D+00
 Symmetry B2   KE= 6.088711614270D+00
 Calling FoFJK, ICntrl=      2127 FMM=F ISym2X=1 I1Cent= 0 IOpClX= 0 NMat=1 NMatS=1 NMatT=0.
 ***** Axes restored to original set *****
 -------------------------------------------------------------------
 Center     Atomic                   Forces (Hartrees/Bohr)
 Number     Number              X              Y              Z
 -------------------------------------------------------------------
      1        6           0.012497995   -0.000000000   -0.000000000
      2        7          -0.010713878   -0.000000000   -0.000000000
      3        7          -0.013337606   -0.000000000   -0.000000000
      4        6           0.011553489   -0.000000000   -0.000000000
 -------------------------------------------------------------------
 Cartesian Forces:  Max     0.013337606 RMS     0.006966359

 GradGradGradGradGradGradGradGradGradGradGradGradGradGradGradGradGradGrad
 Berny optimization.
 FormGI is forming the generalized inverse of G from B-inverse, IUseBI=4.
 Internal  Forces:  Max     0.013337606 RMS     0.006677037
 Search for a local minimum.
 Step number   1 out of a maximum of   20
 All quantities printed in internal units (Hartrees-Bohrs-Radians)
 Mixed Optimization -- RFO/linear search
 Second derivative matrix not updated -- first step.
 The second derivative matrix:
                          R1        R2        R3        A1        A2
           R1           0.65941
           R2           0.00000   1.28173
           R3           0.00000   0.00000   1.13259
           A1           0.00000   0.00000   0.00000   0.04874
           A2           0.00000   0.00000   0.00000   0.00000   0.04548
           A3           0.00000   0.00000   0.00000   0.00000   0.00000
           A4           0.00000   0.00000   0.00000   0.00000   0.00000
                          A3        A4
           A3           0.04874
           A4           0.00000   0.04548
 ITU=  0
     Eigenvalues ---    0.04548   0.04548   0.04874   0.04874   0.65941
     Eigenvalues ---    1.13259   1.28173
 RFO step:  Lambda=-2.57660362D-04 EMin= 4.54826583D-02
 Linear search not attempted -- first point.
 Iteration  1 RMS(Cart)=  0.00585641 RMS(Int)=  0.00000001
 Iteration  2 RMS(Cart)=  0.00000001 RMS(Int)=  0.00000001
 ClnCor:  largest displacement from symmetrization is 1.88D-08 for atom     1.
 Variable       Old X    -DE/DX   Delta X   Delta X   Delta X     New X
                                 (Linear)    (Quad)   (Total)
    R1        2.46527  -0.00084   0.00000  -0.00127  -0.00127   2.46400
    R2        2.19099  -0.01334   0.00000  -0.01040  -0.01040   2.18058
    R3        2.23755  -0.01155   0.00000  -0.01020  -0.01020   2.22735
    A1        3.14159   0.00000   0.00000   0.00000   0.00000   3.14159
    A2        3.14159  -0.00000   0.00000  -0.00000   0.00000   3.14159
    A3        3.14159   0.00000   0.00000   0.00000   0.00000   3.14159
    A4        3.14159  -0.00000   0.00000  -0.00000   0.00000   3.14159
         Item               Value     Threshold  Converged?
 Maximum Force            0.013338     0.000450     NO 
 RMS     Force            0.006677     0.000300     NO 
 Maximum Displacement     0.010989     0.001800     NO 
 RMS     Displacement     0.005856     0.001200     NO 
 Predicted change in Energy=-1.288577D-04
 GradGradGradGradGradGradGradGradGradGradGradGradGradGradGradGradGradGrad

                          Input orientation:                          
 ---------------------------------------------------------------------
 Center     Atomic      Atomic             Coordinates (Angstroms)
 Number     Number       Type             X           Y           Z
 ---------------------------------------------------------------------
      1          6           0        0.613001    0.000000   -0.000000
      2          7           0       -0.690890    0.000000   -0.000000
      3          7           0        1.766917    0.000000    0.000000
      4          6           0       -1.869552    0.000000    0.000000
 ---------------------------------------------------------------------
                    Distance matrix (angstroms):
                    1          2          3          4
     1  C    0.000000
     2  N    1.303891   0.000000
     3  N    1.153916   2.457807   0.000000
     4  C    2.482554   1.178662   3.636469   0.000000
 Stoichiometry    C2N2
 Framework group  C*V[C*(CNCN)]
 Deg. of freedom     3
 Full point group                 C*V     NOp   4
 Largest Abelian subgroup         C2V     NOp   4
 Largest concise Abelian subgroup C1      NOp   1
                         Standard orientation:                         
 ---------------------------------------------------------------------
 Center     Atomic      Atomic             Coordinates (Angstroms)
 Number     Number       Type             X           Y           Z
 ---------------------------------------------------------------------
      1          6           0        0.000000    0.000000    0.613275
      2          7           0        0.000000    0.000000   -0.690616
      3          7           0        0.000000    0.000000    1.767191
      4          6           0        0.000000    0.000000   -1.869278
 ---------------------------------------------------------------------
 Rotational constants (GHZ):           0.0000000           5.2179704           5.2179704
 Basis read from rwf:  (5D, 7F)
 There are    64 symmetry adapted cartesian basis functions of A1  symmetry.
 There are    12 symmetry adapted cartesian basis functions of A2  symmetry.
 There are    32 symmetry adapted cartesian basis functions of B1  symmetry.
 There are    32 symmetry adapted cartesian basis functions of B2  symmetry.
 There are    52 symmetry adapted basis functions of A1  symmetry.
 There are    12 symmetry adapted basis functions of A2  symmetry.
 There are    28 symmetry adapted basis functions of B1  symmetry.
 There are    28 symmetry adapted basis functions of B2  symmetry.
   120 basis functions,   204 primitive gaussians,   140 cartesian basis functions
    13 alpha electrons       13 beta electrons
       nuclear repulsion energy        79.4983118815 Hartrees.
 NAtoms=    4 NActive=    4 NUniq=    4 SFac= 1.00D+00 NAtFMM=   60 NAOKFM=F Big=F
 Integral buffers will be    131072 words long.
 Raffenetti 2 integral format.
 Two-electron integral symmetry is turned on.
 One-electron integrals computed using PRISM.
 NBasis=   120 RedAO= T EigKep=  1.89D-04  NBF=    52    12    28    28
 NBsUse=   120 1.00D-06 EigRej= -1.00D+00 NBFU=    52    12    28    28
 Initial guess from the checkpoint file:  "/wrk/irikura/Gau-19627.chk"
 B after Tr=    -0.000000    0.000000    0.000000
         Rot=    1.000000    0.000000    0.000000    0.000000 Ang=   0.00 deg.
 Initial guess orbital symmetries:
       Occupied  (SG) (SG) (SG) (SG) (SG) (SG) (SG) (PI) (PI) (SG)
                 (SG) (PI) (PI)
       Virtual   (PI) (PI) (SG) (PI) (PI) (SG) (PI) (PI) (SG) (SG)
                 (PI) (PI) (SG) (SG) (PI) (PI) (PI) (PI) (SG) (SG)
                 (SG) (DLTA) (DLTA) (SG) (DLTA) (DLTA) (SG) (PI)
                 (PI) (SG) (PI) (PI) (PI) (PI) (DLTA) (DLTA) (SG)
                 (PI) (PI) (SG) (DLTA) (DLTA) (SG) (PI) (PI) (PI)
                 (PI) (PI) (PI) (SG) (SG) (SG) (PI) (PI) (SG) (SG)
                 (DLTA) (DLTA) (PHI) (PHI) (PHI) (PHI) (DLTA) (DLTA)
                 (SG) (PI) (PI) (PHI) (PHI) (SG) (PHI) (PHI) (PI)
                 (PI) (DLTA) (DLTA) (DLTA) (DLTA) (SG) (PI) (PI)
                 (DLTA) (DLTA) (SG) (PI) (PI) (SG) (SG) (DLTA)
                 (DLTA) (DLTA) (DLTA) (DLTA) (DLTA) (PI) (PI) (SG)
                 (PI) (PI) (PI) (PI) (SG) (PI) (PI) (SG) (SG) (SG)
 Keep R1 ints in memory in symmetry-blocked form, NReq=37992094.
 Requested convergence on RMS density matrix=1.00D-08 within 128 cycles.
 Requested convergence on MAX density matrix=1.00D-06.
 Requested convergence on             energy=1.00D-06.
 No special actions if energy rises.
 SCF Done:  E(RB3LYP) =  -185.690939235     A.U. after    9 cycles
            NFock=  9  Conv=0.19D-08     -V/T= 2.0032
 Calling FoFJK, ICntrl=      2127 FMM=F ISym2X=1 I1Cent= 0 IOpClX= 0 NMat=1 NMatS=1 NMatT=0.
 ***** Axes restored to original set *****
 -------------------------------------------------------------------
 Center     Atomic                   Forces (Hartrees/Bohr)
 Number     Number              X              Y              Z
 -------------------------------------------------------------------
      1        6           0.002005770   -0.000000000    0.000000000
      2        7          -0.002192912    0.000000000   -0.000000000
      3        7          -0.001296622    0.000000000   -0.000000000
      4        6           0.001483763    0.000000000    0.000000000
 -------------------------------------------------------------------
 Cartesian Forces:  Max     0.002192912 RMS     0.001029351

 GradGradGradGradGradGradGradGradGradGradGradGradGradGradGradGradGradGrad
 Berny optimization.
 Using GEDIIS/GDIIS optimizer.
 FormGI is forming the generalized inverse of G from B-inverse, IUseBI=4.
 Internal  Forces:  Max     0.001483763 RMS     0.000791533
 Search for a local minimum.
 Step number   2 out of a maximum of   20
 All quantities printed in internal units (Hartrees-Bohrs-Radians)
 Mixed Optimization -- En-DIIS/RFO-DIIS
 Update second derivatives using D2CorX and points    1    2
 DE= -1.43D-04 DEPred=-1.29D-04 R= 1.11D+00
 TightC=F SS=  1.41D+00  RLast= 1.46D-02 DXNew= 5.0454D-01 4.3873D-02
 Trust test= 1.11D+00 RLast= 1.46D-02 DXMaxT set to 3.00D-01
 The second derivative matrix:
                          R1        R2        R3        A1        A2
           R1           0.66711
           R2           0.03766   1.22198
           R3           0.03019  -0.07062   1.05564
           A1           0.00000   0.00000   0.00000   0.04874
           A2           0.00000   0.00000   0.00000  -0.00000   0.04548
           A3           0.00000   0.00000   0.00000  -0.00000  -0.00000
           A4           0.00000   0.00000   0.00000  -0.00000   0.00000
                          A3        A4
           A3           0.04874
           A4          -0.00000   0.04548
 ITU=  1  0
 Use linear search instead of GDIIS.
     Eigenvalues ---    0.04548   0.04548   0.04874   0.04874   0.66141
     Eigenvalues ---    1.03431   1.24901
 RFO step:  Lambda=-1.29735355D-06 EMin= 4.54826583D-02
 Quartic linear search produced a step of  0.11810.
 Iteration  1 RMS(Cart)=  0.00050770 RMS(Int)=  0.00000000
 Iteration  2 RMS(Cart)=  0.00000000 RMS(Int)=  0.00000000
 ClnCor:  largest displacement from symmetrization is 2.60D-09 for atom     1.
 Variable       Old X    -DE/DX   Delta X   Delta X   Delta X     New X
                                 (Linear)    (Quad)   (Total)
    R1        2.46400   0.00071  -0.00015   0.00135   0.00120   2.46520
    R2        2.18058  -0.00130  -0.00123   0.00007  -0.00116   2.17942
    R3        2.22735  -0.00148  -0.00120  -0.00029  -0.00149   2.22586
    A1        3.14159  -0.00000   0.00000  -0.00000   0.00000   3.14159
    A2        3.14159   0.00000   0.00000  -0.00000   0.00000   3.14159
    A3        3.14159  -0.00000   0.00000  -0.00000   0.00000   3.14159
    A4        3.14159   0.00000   0.00000   0.00000   0.00000   3.14159
         Item               Value     Threshold  Converged?
 Maximum Force            0.001484     0.000450     NO 
 RMS     Force            0.000792     0.000300     NO 
 Maximum Displacement     0.000809     0.001800     YES
 RMS     Displacement     0.000508     0.001200     YES
 Predicted change in Energy=-2.320165D-06
 GradGradGradGradGradGradGradGradGradGradGradGradGradGradGradGradGradGrad

                          Input orientation:                          
 ---------------------------------------------------------------------
 Center     Atomic      Atomic             Coordinates (Angstroms)
 Number     Number       Type             X           Y           Z
 ---------------------------------------------------------------------
      1          6           0        0.613276    0.000000    0.000000
      2          7           0       -0.691252    0.000000    0.000000
      3          7           0        1.766576    0.000000    0.000000
      4          6           0       -1.869124    0.000000   -0.000000
 ---------------------------------------------------------------------
                    Distance matrix (angstroms):
                    1          2          3          4
     1  C    0.000000
     2  N    1.304527   0.000000
     3  N    1.153301   2.457828   0.000000
     4  C    2.482400   1.177872   3.635700   0.000000
 Stoichiometry    C2N2
 Framework group  C*V[C*(CNCN)]
 Deg. of freedom     3
 Full point group                 C*V     NOp   4
 Largest Abelian subgroup         C2V     NOp   4
 Largest concise Abelian subgroup C1      NOp   1
                         Standard orientation:                         
 ---------------------------------------------------------------------
 Center     Atomic      Atomic             Coordinates (Angstroms)
 Number     Number       Type             X           Y           Z
 ---------------------------------------------------------------------
      1          6           0        0.000000    0.000000    0.613576
      2          7           0        0.000000    0.000000   -0.690951
      3          7           0        0.000000    0.000000    1.766877
      4          6           0        0.000000    0.000000   -1.868823
 ---------------------------------------------------------------------
 Rotational constants (GHZ):           0.0000000           5.2193198           5.2193198
 Basis read from rwf:  (5D, 7F)
 There are    64 symmetry adapted cartesian basis functions of A1  symmetry.
 There are    12 symmetry adapted cartesian basis functions of A2  symmetry.
 There are    32 symmetry adapted cartesian basis functions of B1  symmetry.
 There are    32 symmetry adapted cartesian basis functions of B2  symmetry.
 There are    52 symmetry adapted basis functions of A1  symmetry.
 There are    12 symmetry adapted basis functions of A2  symmetry.
 There are    28 symmetry adapted basis functions of B1  symmetry.
 There are    28 symmetry adapted basis functions of B2  symmetry.
   120 basis functions,   204 primitive gaussians,   140 cartesian basis functions
    13 alpha electrons       13 beta electrons
       nuclear repulsion energy        79.5145966156 Hartrees.
 NAtoms=    4 NActive=    4 NUniq=    4 SFac= 1.00D+00 NAtFMM=   60 NAOKFM=F Big=F
 Integral buffers will be    131072 words long.
 Raffenetti 2 integral format.
 Two-electron integral symmetry is turned on.
 One-electron integrals computed using PRISM.
 NBasis=   120 RedAO= T EigKep=  1.89D-04  NBF=    52    12    28    28
 NBsUse=   120 1.00D-06 EigRej= -1.00D+00 NBFU=    52    12    28    28
 Initial guess from the checkpoint file:  "/wrk/irikura/Gau-19627.chk"
 B after Tr=     0.000000    0.000000    0.000000
         Rot=    1.000000    0.000000    0.000000    0.000000 Ang=   0.00 deg.
 Initial guess orbital symmetries:
       Occupied  (SG) (SG) (SG) (SG) (SG) (SG) (SG) (PI) (PI) (SG)
                 (SG) (PI) (PI)
       Virtual   (PI) (PI) (SG) (PI) (PI) (SG) (PI) (PI) (SG) (SG)
                 (PI) (PI) (SG) (SG) (PI) (PI) (PI) (PI) (SG) (SG)
                 (SG) (DLTA) (DLTA) (SG) (DLTA) (DLTA) (SG) (PI)
                 (PI) (SG) (PI) (PI) (PI) (PI) (DLTA) (DLTA) (SG)
                 (PI) (PI) (SG) (DLTA) (DLTA) (SG) (PI) (PI) (PI)
                 (PI) (PI) (PI) (SG) (SG) (SG) (PI) (PI) (SG) (SG)
                 (DLTA) (DLTA) (PHI) (PHI) (PHI) (PHI) (SG) (DLTA)
                 (DLTA) (PI) (PI) (PHI) (PHI) (SG) (PHI) (PHI)
                 (PI) (PI) (DLTA) (DLTA) (DLTA) (DLTA) (SG) (PI)
                 (PI) (DLTA) (DLTA) (SG) (PI) (PI) (SG) (SG) (DLTA)
                 (DLTA) (DLTA) (DLTA) (DLTA) (DLTA) (PI) (PI) (SG)
                 (PI) (PI) (PI) (PI) (SG) (PI) (PI) (SG) (SG) (SG)
 Keep R1 ints in memory in symmetry-blocked form, NReq=37992094.
 Requested convergence on RMS density matrix=1.00D-08 within 128 cycles.
 Requested convergence on MAX density matrix=1.00D-06.
 Requested convergence on             energy=1.00D-06.
 No special actions if energy rises.
 SCF Done:  E(RB3LYP) =  -185.690941611     A.U. after    8 cycles
            NFock=  8  Conv=0.35D-08     -V/T= 2.0032
 Calling FoFJK, ICntrl=      2127 FMM=F ISym2X=1 I1Cent= 0 IOpClX= 0 NMat=1 NMatS=1 NMatT=0.
 ***** Axes restored to original set *****
 -------------------------------------------------------------------
 Center     Atomic                   Forces (Hartrees/Bohr)
 Number     Number              X              Y              Z
 -------------------------------------------------------------------
      1        6           0.000126315    0.000000000    0.000000000
      2        7          -0.000149471   -0.000000000   -0.000000000
      3        7           0.000005868   -0.000000000    0.000000000
      4        6           0.000017288   -0.000000000    0.000000000
 -------------------------------------------------------------------
 Cartesian Forces:  Max     0.000149471 RMS     0.000056738

 GradGradGradGradGradGradGradGradGradGradGradGradGradGradGradGradGradGrad
 Berny optimization.
 Using GEDIIS/GDIIS optimizer.
 FormGI is forming the generalized inverse of G from B-inverse, IUseBI=4.
 Internal  Forces:  Max     0.000132183 RMS     0.000050435
 Search for a local minimum.
 Step number   3 out of a maximum of   20
 All quantities printed in internal units (Hartrees-Bohrs-Radians)
 Mixed Optimization -- En-DIIS/RFO-DIIS
 Swapping is turned off.
 Update second derivatives using D2CorX and points    1    2    3
 DE= -2.38D-06 DEPred=-2.32D-06 R= 1.02D+00
 TightC=F SS=  1.41D+00  RLast= 2.24D-03 DXNew= 5.0454D-01 6.7214D-03
 Trust test= 1.02D+00 RLast= 2.24D-03 DXMaxT set to 3.00D-01
 The second derivative matrix:
                          R1        R2        R3        A1        A2
           R1           0.63476
           R2           0.07036   1.25222
           R3           0.06950  -0.04557   1.07416
           A1           0.00000   0.00000   0.00000   0.04874
           A2           0.00000  -0.00000  -0.00000  -0.00000   0.04548
           A3           0.00000   0.00000   0.00000  -0.00000  -0.00000
           A4           0.00000   0.00000   0.00000  -0.00000   0.00000
                          A3        A4
           A3           0.04874
           A4          -0.00000   0.04548
 ITU=  1  1  0
     Eigenvalues ---    0.04548   0.04548   0.04874   0.04874   0.61481
     Eigenvalues ---    1.07859   1.26774
 En-DIIS/RFO-DIIS/Sim-DIIS IScMMF=       -3 using points:     3    2
 RFO step:  Lambda=-2.83516334D-08.
 DidBck=F Rises=F RFO-DIIS coefs:    1.06175   -0.06175
 Iteration  1 RMS(Cart)=  0.00007350 RMS(Int)=  0.00000000
 Iteration  2 RMS(Cart)=  0.00000000 RMS(Int)=  0.00000000
 ClnCor:  largest displacement from symmetrization is 1.50D-10 for atom     1.
 Variable       Old X    -DE/DX   Delta X   Delta X   Delta X     New X
                                 (Linear)    (Quad)   (Total)
    R1        2.46520   0.00013   0.00007   0.00014   0.00021   2.46541
    R2        2.17942   0.00001  -0.00007   0.00006  -0.00001   2.17941
    R3        2.22586  -0.00002  -0.00009   0.00006  -0.00003   2.22583
    A1        3.14159  -0.00000  -0.00000  -0.00000   0.00000   3.14159
    A2        3.14159   0.00000  -0.00000   0.00000   0.00000   3.14159
    A3        3.14159  -0.00000  -0.00000  -0.00000   0.00000   3.14159
    A4        3.14159  -0.00000  -0.00000  -0.00000   0.00000   3.14159
         Item               Value     Threshold  Converged?
 Maximum Force            0.000132     0.000450     YES
 RMS     Force            0.000050     0.000300     YES
 Maximum Displacement     0.000112     0.001800     YES
 RMS     Displacement     0.000074     0.001200     YES
 Predicted change in Energy=-1.427924D-08
 Optimization completed.
    -- Stationary point found.
                           ----------------------------
                           !   Optimized Parameters   !
                           ! (Angstroms and Degrees)  !
 --------------------------                            --------------------------
 ! Name  Definition              Value          Derivative Info.                !
 --------------------------------------------------------------------------------
 ! R1    R(1,2)                  1.3045         -DE/DX =    0.0001              !
 ! R2    R(1,3)                  1.1533         -DE/DX =    0.0                 !
 ! R3    R(2,4)                  1.1779         -DE/DX =    0.0                 !
 ! A1    L(2,1,3,-2,-1)        180.0            -DE/DX =    0.0                 !
 ! A2    L(1,2,4,-2,-1)        180.0            -DE/DX =    0.0                 !
 ! A3    L(2,1,3,-3,-2)        180.0            -DE/DX =    0.0                 !
 ! A4    L(1,2,4,-3,-2)        180.0            -DE/DX =    0.0                 !
 --------------------------------------------------------------------------------
 GradGradGradGradGradGradGradGradGradGradGradGradGradGradGradGradGradGrad

                          Input orientation:                          
 ---------------------------------------------------------------------
 Center     Atomic      Atomic             Coordinates (Angstroms)
 Number     Number       Type             X           Y           Z
 ---------------------------------------------------------------------
      1          6           0        0.613276    0.000000    0.000000
      2          7           0       -0.691252    0.000000    0.000000
      3          7           0        1.766576    0.000000    0.000000
      4          6           0       -1.869124    0.000000   -0.000000
 ---------------------------------------------------------------------
                    Distance matrix (angstroms):
                    1          2          3          4
     1  C    0.000000
     2  N    1.304527   0.000000
     3  N    1.153301   2.457828   0.000000
     4  C    2.482400   1.177872   3.635700   0.000000
 Stoichiometry    C2N2
 Framework group  C*V[C*(CNCN)]
 Deg. of freedom     3
 Full point group                 C*V     NOp   4
 Largest Abelian subgroup         C2V     NOp   4
 Largest concise Abelian subgroup C1      NOp   1
                         Standard orientation:                         
 ---------------------------------------------------------------------
 Center     Atomic      Atomic             Coordinates (Angstroms)
 Number     Number       Type             X           Y           Z
 ---------------------------------------------------------------------
      1          6           0        0.000000    0.000000    0.613576
      2          7           0        0.000000    0.000000   -0.690951
      3          7           0        0.000000    0.000000    1.766877
      4          6           0        0.000000    0.000000   -1.868823
 ---------------------------------------------------------------------
 Rotational constants (GHZ):           0.0000000           5.2193198           5.2193198

 **********************************************************************

            Population analysis using the SCF Density.

 **********************************************************************

 Orbital symmetries:
       Occupied  (SG) (SG) (SG) (SG) (SG) (SG) (SG) (PI) (PI) (SG)
                 (SG) (PI) (PI)
       Virtual   (PI) (PI) (SG) (PI) (PI) (SG) (PI) (PI) (SG) (SG)
                 (PI) (PI) (SG) (SG) (PI) (PI) (PI) (PI) (SG) (SG)
                 (SG) (DLTA) (DLTA) (SG) (DLTA) (DLTA) (SG) (PI)
                 (PI) (SG) (PI) (PI) (PI) (PI) (DLTA) (DLTA) (SG)
                 (PI) (PI) (SG) (DLTA) (DLTA) (SG) (PI) (PI) (PI)
                 (PI) (PI) (PI) (SG) (SG) (SG) (PI) (PI) (SG) (SG)
                 (DLTA) (DLTA) (PHI) (PHI) (PHI) (PHI) (SG) (DLTA)
                 (DLTA) (PI) (PI) (PHI) (PHI) (SG) (PHI) (PHI)
                 (PI) (PI) (DLTA) (DLTA) (DLTA) (DLTA) (SG) (PI)
                 (PI) (DLTA) (DLTA) (SG) (PI) (PI) (SG) (SG) (DLTA)
                 (DLTA) (DLTA) (DLTA) (DLTA) (DLTA) (PI) (PI) (SG)
                 (PI) (PI) (PI) (PI) (SG) (PI) (PI) (SG) (SG) (SG)
 The electronic state is 1-SG.
 Alpha  occ. eigenvalues --  -14.43687 -14.37391 -10.30421 -10.29625  -1.05220
 Alpha  occ. eigenvalues --   -0.96156  -0.80537  -0.49945  -0.49945  -0.42378
 Alpha  occ. eigenvalues --   -0.37785  -0.37279  -0.37279
 Alpha virt. eigenvalues --   -0.09211  -0.09211   0.02951   0.06170   0.06170
 Alpha virt. eigenvalues --    0.10001   0.14121   0.14121   0.15160   0.17813
 Alpha virt. eigenvalues --    0.21275   0.21275   0.24016   0.33567   0.35804
 Alpha virt. eigenvalues --    0.35804   0.45426   0.45426   0.48608   0.53410
 Alpha virt. eigenvalues --    0.61916   0.75493   0.75493   0.80493   0.87179
 Alpha virt. eigenvalues --    0.87179   0.89265   0.95089   0.95089   1.12574
 Alpha virt. eigenvalues --    1.16476   1.16476   1.18553   1.18553   1.21925
 Alpha virt. eigenvalues --    1.21925   1.22322   1.41914   1.41914   1.46433
 Alpha virt. eigenvalues --    1.46809   1.46809   1.68023   1.70237   1.70237
 Alpha virt. eigenvalues --    1.98055   1.98055   1.99461   1.99461   2.00521
 Alpha virt. eigenvalues --    2.18563   2.50894   2.52283   2.52283   2.58843
 Alpha virt. eigenvalues --    2.70113   2.93554   2.93554   3.11430   3.11430
 Alpha virt. eigenvalues --    3.22698   3.22698   3.37960   3.38128   3.38128
 Alpha virt. eigenvalues --    3.58479   3.58479   3.63408   3.63408   3.74999
 Alpha virt. eigenvalues --    3.77409   3.77409   3.77538   3.77538   3.86944
 Alpha virt. eigenvalues --    3.86944   3.93767   3.93767   4.00341   4.15025
 Alpha virt. eigenvalues --    4.15025   4.22461   4.22461   4.31955   4.40226
 Alpha virt. eigenvalues --    4.40226   4.51316   4.63653   4.90524   4.90524
 Alpha virt. eigenvalues --    4.94419   4.94419   5.03419   5.03419   5.08408
 Alpha virt. eigenvalues --    5.08408   5.12009   5.42324   5.42324   5.78716
 Alpha virt. eigenvalues --    5.78716   5.88852   6.15419   6.15419   6.90748
 Alpha virt. eigenvalues --    7.47504   8.60386
          Condensed to atoms (all electrons):
               1          2          3          4
     1  C    4.474200   0.375264   0.815584   0.015711
     2  N    0.375264   6.270635  -0.014511   0.681423
     3  N    0.815584  -0.014511   6.340298  -0.000537
     4  C    0.015711   0.681423  -0.000537   5.168998
 Mulliken charges:
               1
     1  C    0.319240
     2  N   -0.312811
     3  N   -0.140834
     4  C    0.134405
 Sum of Mulliken charges =   0.00000
 Mulliken charges with hydrogens summed into heavy atoms:
               1
     1  C    0.319240
     2  N   -0.312811
     3  N   -0.140834
     4  C    0.134405
 Electronic spatial extent (au):  <R**2>=            227.2679
 Charge=              0.0000 electrons
 Dipole moment (field-independent basis, Debye):
    X=              0.0000    Y=              0.0000    Z=             -0.8502  Tot=              0.8502
 Quadrupole moment (field-independent basis, Debye-Ang):
   XX=            -21.1709   YY=            -21.1709   ZZ=            -30.8243
   XY=              0.0000   XZ=              0.0000   YZ=              0.0000
 Traceless Quadrupole moment (field-independent basis, Debye-Ang):
   XX=              3.2178   YY=              3.2178   ZZ=             -6.4356
   XY=              0.0000   XZ=              0.0000   YZ=              0.0000
 Octapole moment (field-independent basis, Debye-Ang**2):
  XXX=             -0.0000  YYY=              0.0000  ZZZ=              5.3980  XYY=             -0.0000
  XXY=              0.0000  XXZ=              0.9270  XZZ=             -0.0000  YZZ=              0.0000
  YYZ=              0.9270  XYZ=              0.0000
 Hexadecapole moment (field-independent basis, Debye-Ang**3):
 XXXX=            -21.1931 YYYY=            -21.1931 ZZZZ=           -349.3002 XXXY=              0.0000
 XXXZ=             -0.0000 YYYX=              0.0000 YYYZ=              0.0000 ZZZX=             -0.0000
 ZZZY=              0.0000 XXYY=             -7.0644 XXZZ=            -51.1390 YYZZ=            -51.1390
 XXYZ=              0.0000 YYXZ=             -0.0000 ZZXY=              0.0000
 N-N= 7.951459661564D+01 E-N=-5.916879918523D+02  KE= 1.851029948251D+02
 Symmetry A1   KE= 1.729066236631D+02
 Symmetry A2   KE=-5.117994217158D-51
 Symmetry B1   KE= 6.098185580975D+00
 Symmetry B2   KE= 6.098185580975D+00
 1\1\GINC-GAMBA\FOpt\RB3LYP\Gen\C2N2\IRIKURA\17-Jun-2022\0\\# b3lyp/gen
  opt freq\\isocyanogen, B3LYP/pcseg-2\\0,1\C,0.6132755006,0.,0.\N,-0.6
 912515996,0.,0.\N,1.7665761621,0.,0.\C,-1.8691240632,0.,0.\\Version=ES
 64L-G16RevB.01\State=1-SG\HF=-185.6909416\RMSD=3.481e-09\RMSF=5.674e-0
 5\Dipole=-0.3345001,0.,0.\Quadrupole=-4.7847001,2.3923501,2.3923501,0.
 ,0.,0.\PG=C*V [C*(C1N1C1N1)]\\@


 IF AT FIRST YOU DON'T SUCCEED, TRY LOOKING IN 
 THE WASTEBASKET FOR THE DIRECTIONS.
 Job cpu time:       0 days  0 hours  1 minutes 56.1 seconds.
 Elapsed time:       0 days  0 hours  0 minutes  9.9 seconds.
 File lengths (MBytes):  RWF=     10 Int=      0 D2E=      0 Chk=      2 Scr=      1
 Normal termination of Gaussian 16 at Fri Jun 17 20:09:47 2022.
 Link1:  Proceeding to internal job step number  2.
 ------------------------------------------------------------------
 #N Geom=AllCheck Guess=TCheck SCRF=Check GenChk RB3LYP/ChkBas Freq
 ------------------------------------------------------------------
 1/10=4,29=7,30=1,38=1,40=1/1,3;
 2/12=2,40=1/2;
 3/5=7,6=2,11=2,14=-4,25=1,30=1,67=1,70=2,71=2,74=-5,82=7,116=1,140=1/1,2,3;
 4/5=101/1;
 5/5=2,38=6,98=1/2;
 8/6=4,10=90,11=11/1;
 11/6=1,8=1,9=11,15=111,16=1/1,2,10;
 10/6=1/2;
 6/7=2,8=2,9=2,10=2,28=1/1;
 7/8=1,10=1,25=1/1,2,3,16;
 1/10=4,30=1/3;
 99//99;
 Structure from the checkpoint file:  "/wrk/irikura/Gau-19627.chk"
 --------------------------
 isocyanogen, B3LYP/pcseg-2
 --------------------------
 Charge =  0 Multiplicity = 1
 Redundant internal coordinates found in file.  (old form).
 C,0,0.6132755006,0.,0.
 N,0,-0.6912515996,0.,0.
 N,0,1.7665761621,0.,0.
 C,0,-1.8691240632,0.,0.
 Recover connectivity data from disk.

 GradGradGradGradGradGradGradGradGradGradGradGradGradGradGradGradGradGrad
 Berny optimization.
 Initialization pass.
                           ----------------------------
                           !    Initial Parameters    !
                           ! (Angstroms and Degrees)  !
 --------------------------                            --------------------------
 ! Name  Definition              Value          Derivative Info.                !
 --------------------------------------------------------------------------------
 ! R1    R(1,2)                  1.3045         calculate D2E/DX2 analytically  !
 ! R2    R(1,3)                  1.1533         calculate D2E/DX2 analytically  !
 ! R3    R(2,4)                  1.1779         calculate D2E/DX2 analytically  !
 ! A1    L(2,1,3,-2,-1)        180.0            calculate D2E/DX2 analytically  !
 ! A2    L(1,2,4,-2,-1)        180.0            calculate D2E/DX2 analytically  !
 ! A3    L(2,1,3,-3,-2)        180.0            calculate D2E/DX2 analytically  !
 ! A4    L(1,2,4,-3,-2)        180.0            calculate D2E/DX2 analytically  !
 --------------------------------------------------------------------------------
 Trust Radius=3.00D-01 FncErr=1.00D-07 GrdErr=1.00D-07 EigMax=2.50D+02 EigMin=1.00D-04
 Number of steps in this run=      2 maximum allowed number of steps=      2.
 GradGradGradGradGradGradGradGradGradGradGradGradGradGradGradGradGradGrad

                          Input orientation:                          
 ---------------------------------------------------------------------
 Center     Atomic      Atomic             Coordinates (Angstroms)
 Number     Number       Type             X           Y           Z
 ---------------------------------------------------------------------
      1          6           0        0.613276    0.000000    0.000000
      2          7           0       -0.691252    0.000000    0.000000
      3          7           0        1.766576    0.000000    0.000000
      4          6           0       -1.869124    0.000000   -0.000000
 ---------------------------------------------------------------------
                    Distance matrix (angstroms):
                    1          2          3          4
     1  C    0.000000
     2  N    1.304527   0.000000
     3  N    1.153301   2.457828   0.000000
     4  C    2.482400   1.177872   3.635700   0.000000
 Stoichiometry    C2N2
 Framework group  C*V[C*(CNCN)]
 Deg. of freedom     3
 Full point group                 C*V     NOp   4
 Largest Abelian subgroup         C2V     NOp   4
 Largest concise Abelian subgroup C1      NOp   1
                         Standard orientation:                         
 ---------------------------------------------------------------------
 Center     Atomic      Atomic             Coordinates (Angstroms)
 Number     Number       Type             X           Y           Z
 ---------------------------------------------------------------------
      1          6           0        0.000000    0.000000    0.613576
      2          7           0        0.000000    0.000000   -0.690951
      3          7           0        0.000000    0.000000    1.766877
      4          6           0        0.000000    0.000000   -1.868823
 ---------------------------------------------------------------------
 Rotational constants (GHZ):           0.0000000           5.2193198           5.2193198
 Basis read from chk: "/wrk/irikura/Gau-19627.chk" (5D, 7F)
 There are    64 symmetry adapted cartesian basis functions of A1  symmetry.
 There are    12 symmetry adapted cartesian basis functions of A2  symmetry.
 There are    32 symmetry adapted cartesian basis functions of B1  symmetry.
 There are    32 symmetry adapted cartesian basis functions of B2  symmetry.
 There are    52 symmetry adapted basis functions of A1  symmetry.
 There are    12 symmetry adapted basis functions of A2  symmetry.
 There are    28 symmetry adapted basis functions of B1  symmetry.
 There are    28 symmetry adapted basis functions of B2  symmetry.
   120 basis functions,   204 primitive gaussians,   140 cartesian basis functions
    13 alpha electrons       13 beta electrons
       nuclear repulsion energy        79.5145966156 Hartrees.
 NAtoms=    4 NActive=    4 NUniq=    4 SFac= 1.00D+00 NAtFMM=   60 NAOKFM=F Big=F
 Integral buffers will be    131072 words long.
 Raffenetti 2 integral format.
 Two-electron integral symmetry is turned on.
 One-electron integrals computed using PRISM.
 NBasis=   120 RedAO= T EigKep=  1.89D-04  NBF=    52    12    28    28
 NBsUse=   120 1.00D-06 EigRej= -1.00D+00 NBFU=    52    12    28    28
 Initial guess from the checkpoint file:  "/wrk/irikura/Gau-19627.chk"
 B after Tr=     0.000000    0.000000    0.000000
         Rot=    1.000000    0.000000    0.000000    0.000000 Ang=   0.00 deg.
 Initial guess orbital symmetries:
       Occupied  (SG) (SG) (SG) (SG) (SG) (SG) (SG) (PI) (PI) (SG)
                 (SG) (PI) (PI)
       Virtual   (PI) (PI) (SG) (PI) (PI) (SG) (PI) (PI) (SG) (SG)
                 (PI) (PI) (SG) (SG) (PI) (PI) (PI) (PI) (SG) (SG)
                 (SG) (DLTA) (DLTA) (SG) (DLTA) (DLTA) (SG) (PI)
                 (PI) (SG) (PI) (PI) (PI) (PI) (DLTA) (DLTA) (SG)
                 (PI) (PI) (SG) (DLTA) (DLTA) (SG) (PI) (PI) (PI)
                 (PI) (PI) (PI) (SG) (SG) (SG) (PI) (PI) (SG) (SG)
                 (DLTA) (DLTA) (PHI) (PHI) (PHI) (PHI) (SG) (DLTA)
                 (DLTA) (PI) (PI) (PHI) (PHI) (SG) (PHI) (PHI)
                 (PI) (PI) (DLTA) (DLTA) (DLTA) (DLTA) (SG) (PI)
                 (PI) (DLTA) (DLTA) (SG) (PI) (PI) (SG) (SG) (DLTA)
                 (DLTA) (DLTA) (DLTA) (DLTA) (DLTA) (PI) (PI) (SG)
                 (PI) (PI) (PI) (PI) (SG) (PI) (PI) (SG) (SG) (SG)
 Keep R1 ints in memory in symmetry-blocked form, NReq=37992094.
 Requested convergence on RMS density matrix=1.00D-08 within 128 cycles.
 Requested convergence on MAX density matrix=1.00D-06.
 Requested convergence on             energy=1.00D-06.
 No special actions if energy rises.
 SCF Done:  E(RB3LYP) =  -185.690941611     A.U. after    1 cycles
            NFock=  1  Conv=0.42D-09     -V/T= 2.0032
 DoSCS=F DFT=T ScalE2(SS,OS)=  1.000000  1.000000
 Range of M.O.s used for correlation:     1   120
 NBasis=   120 NAE=    13 NBE=    13 NFC=     0 NFV=     0
 NROrb=    120 NOA=    13 NOB=    13 NVA=   107 NVB=   107

 **** Warning!!: The largest alpha MO coefficient is  0.17259559D+02

 Symmetrizing basis deriv contribution to polar:
 IMax=3 JMax=2 DiffMx= 0.00D+00
 G2DrvN: will do     5 centers at a time, making    1 passes.
 Calling FoFCou, ICntrl=  3107 FMM=F I1Cent=   0 AccDes= 0.00D+00.
 End of G2Drv F.D. properties file   721 does not exist.
 End of G2Drv F.D. properties file   722 does not exist.
 End of G2Drv F.D. properties file   788 does not exist.
          IDoAtm=1111
          Differentiating once with respect to electric field.
                with respect to dipole field.
          Differentiating once with respect to nuclear coordinates.
 Keep R1 ints in memory in symmetry-blocked form, NReq=37953991.
          There are    15 degrees of freedom in the 1st order CPHF.  IDoFFX=6 NUNeed=     3.
     12 vectors produced by pass  0 Test12= 9.27D-15 6.67D-09 XBig12= 9.05D+01 6.35D+00.
 AX will form    12 AO Fock derivatives at one time.
     12 vectors produced by pass  1 Test12= 9.27D-15 6.67D-09 XBig12= 4.97D+01 3.26D+00.
     12 vectors produced by pass  2 Test12= 9.27D-15 6.67D-09 XBig12= 8.17D-01 2.45D-01.
     12 vectors produced by pass  3 Test12= 9.27D-15 6.67D-09 XBig12= 6.63D-03 1.80D-02.
     12 vectors produced by pass  4 Test12= 9.27D-15 6.67D-09 XBig12= 3.67D-05 1.81D-03.
     10 vectors produced by pass  5 Test12= 9.27D-15 6.67D-09 XBig12= 6.58D-08 6.41D-05.
      6 vectors produced by pass  6 Test12= 9.27D-15 6.67D-09 XBig12= 1.22D-10 5.02D-06.
      2 vectors produced by pass  7 Test12= 9.27D-15 6.67D-09 XBig12= 1.88D-13 1.43D-07.
 InvSVY:  IOpt=1 It=  1 EMax= 7.77D-16
 Solved reduced A of dimension    78 with    12 vectors.
 Isotropic polarizability for W=    0.000000       32.64 Bohr**3.
 End of Minotr F.D. properties file   721 does not exist.
 End of Minotr F.D. properties file   722 does not exist.
 End of Minotr F.D. properties file   788 does not exist.

 **********************************************************************

            Population analysis using the SCF Density.

 **********************************************************************

 Orbital symmetries:
       Occupied  (SG) (SG) (SG) (SG) (SG) (SG) (SG) (PI) (PI) (SG)
                 (SG) (PI) (PI)
       Virtual   (PI) (PI) (SG) (PI) (PI) (SG) (PI) (PI) (SG) (SG)
                 (PI) (PI) (SG) (SG) (PI) (PI) (PI) (PI) (SG) (SG)
                 (SG) (DLTA) (DLTA) (SG) (DLTA) (DLTA) (SG) (PI)
                 (PI) (SG) (PI) (PI) (PI) (PI) (DLTA) (DLTA) (SG)
                 (PI) (PI) (SG) (DLTA) (DLTA) (SG) (PI) (PI) (PI)
                 (PI) (PI) (PI) (SG) (SG) (SG) (PI) (PI) (SG) (SG)
                 (DLTA) (DLTA) (PHI) (PHI) (PHI) (PHI) (SG) (DLTA)
                 (DLTA) (PI) (PI) (PHI) (PHI) (SG) (PHI) (PHI)
                 (PI) (PI) (DLTA) (DLTA) (DLTA) (DLTA) (SG) (PI)
                 (PI) (DLTA) (DLTA) (SG) (PI) (PI) (SG) (SG) (DLTA)
                 (DLTA) (DLTA) (DLTA) (DLTA) (DLTA) (PI) (PI) (SG)
                 (PI) (PI) (PI) (PI) (SG) (PI) (PI) (SG) (SG) (SG)
 The electronic state is 1-SG.
 Alpha  occ. eigenvalues --  -14.43687 -14.37391 -10.30421 -10.29625  -1.05220
 Alpha  occ. eigenvalues --   -0.96156  -0.80537  -0.49945  -0.49945  -0.42378
 Alpha  occ. eigenvalues --   -0.37785  -0.37279  -0.37279
 Alpha virt. eigenvalues --   -0.09211  -0.09211   0.02951   0.06170   0.06170
 Alpha virt. eigenvalues --    0.10001   0.14121   0.14121   0.15160   0.17813
 Alpha virt. eigenvalues --    0.21275   0.21275   0.24016   0.33567   0.35804
 Alpha virt. eigenvalues --    0.35804   0.45426   0.45426   0.48608   0.53410
 Alpha virt. eigenvalues --    0.61916   0.75493   0.75493   0.80493   0.87179
 Alpha virt. eigenvalues --    0.87179   0.89265   0.95089   0.95089   1.12574
 Alpha virt. eigenvalues --    1.16476   1.16476   1.18553   1.18553   1.21925
 Alpha virt. eigenvalues --    1.21925   1.22322   1.41914   1.41914   1.46433
 Alpha virt. eigenvalues --    1.46809   1.46809   1.68023   1.70237   1.70237
 Alpha virt. eigenvalues --    1.98055   1.98055   1.99461   1.99461   2.00521
 Alpha virt. eigenvalues --    2.18563   2.50894   2.52283   2.52283   2.58843
 Alpha virt. eigenvalues --    2.70113   2.93554   2.93554   3.11430   3.11430
 Alpha virt. eigenvalues --    3.22698   3.22698   3.37960   3.38128   3.38128
 Alpha virt. eigenvalues --    3.58479   3.58479   3.63408   3.63408   3.74999
 Alpha virt. eigenvalues --    3.77409   3.77409   3.77538   3.77538   3.86944
 Alpha virt. eigenvalues --    3.86944   3.93767   3.93767   4.00341   4.15025
 Alpha virt. eigenvalues --    4.15025   4.22461   4.22461   4.31955   4.40226
 Alpha virt. eigenvalues --    4.40226   4.51316   4.63653   4.90524   4.90524
 Alpha virt. eigenvalues --    4.94419   4.94419   5.03419   5.03419   5.08408
 Alpha virt. eigenvalues --    5.08408   5.12009   5.42324   5.42324   5.78716
 Alpha virt. eigenvalues --    5.78716   5.88852   6.15419   6.15419   6.90748
 Alpha virt. eigenvalues --    7.47504   8.60386
          Condensed to atoms (all electrons):
               1          2          3          4
     1  C    4.474200   0.375264   0.815584   0.015711
     2  N    0.375264   6.270635  -0.014511   0.681423
     3  N    0.815584  -0.014511   6.340298  -0.000537
     4  C    0.015711   0.681423  -0.000537   5.168998
 Mulliken charges:
               1
     1  C    0.319240
     2  N   -0.312811
     3  N   -0.140834
     4  C    0.134405
 Sum of Mulliken charges =  -0.00000
 Mulliken charges with hydrogens summed into heavy atoms:
               1
     1  C    0.319240
     2  N   -0.312811
     3  N   -0.140834
     4  C    0.134405
 APT charges:
               1
     1  C    0.429018
     2  N   -0.452557
     3  N   -0.250118
     4  C    0.273657
 Sum of APT charges =  -0.00000
 APT charges with hydrogens summed into heavy atoms:
               1
     1  C    0.429018
     2  N   -0.452557
     3  N   -0.250118
     4  C    0.273657
 Electronic spatial extent (au):  <R**2>=            227.2679
 Charge=             -0.0000 electrons
 Dipole moment (field-independent basis, Debye):
    X=              0.0000    Y=              0.0000    Z=             -0.8502  Tot=              0.8502
 Quadrupole moment (field-independent basis, Debye-Ang):
   XX=            -21.1709   YY=            -21.1709   ZZ=            -30.8243
   XY=              0.0000   XZ=              0.0000   YZ=              0.0000
 Traceless Quadrupole moment (field-independent basis, Debye-Ang):
   XX=              3.2178   YY=              3.2178   ZZ=             -6.4356
   XY=              0.0000   XZ=              0.0000   YZ=              0.0000
 Octapole moment (field-independent basis, Debye-Ang**2):
  XXX=             -0.0000  YYY=              0.0000  ZZZ=              5.3980  XYY=             -0.0000
  XXY=              0.0000  XXZ=              0.9270  XZZ=             -0.0000  YZZ=              0.0000
  YYZ=              0.9270  XYZ=              0.0000
 Hexadecapole moment (field-independent basis, Debye-Ang**3):
 XXXX=            -21.1931 YYYY=            -21.1931 ZZZZ=           -349.3002 XXXY=              0.0000
 XXXZ=             -0.0000 YYYX=              0.0000 YYYZ=              0.0000 ZZZX=             -0.0000
 ZZZY=              0.0000 XXYY=             -7.0644 XXZZ=            -51.1390 YYZZ=            -51.1390
 XXYZ=              0.0000 YYXZ=             -0.0000 ZZXY=              0.0000
 N-N= 7.951459661564D+01 E-N=-5.916879917821D+02  KE= 1.851029948283D+02
 Symmetry A1   KE= 1.729066236544D+02
 Symmetry A2   KE=-1.856996254031D-52
 Symmetry B1   KE= 6.098185586939D+00
 Symmetry B2   KE= 6.098185586939D+00
  Exact polarizability:  19.818  -0.000  19.818  -0.000   0.000  58.274
 Approx polarizability:  27.505  -0.000  27.505  -0.000  -0.000 112.875
 Calling FoFJK, ICntrl=    100127 FMM=F ISym2X=1 I1Cent= 0 IOpClX= 0 NMat=1 NMatS=1 NMatT=0.
 Full mass-weighted force constant matrix:
 Low frequencies ---   -4.8462   -4.8462   -0.0007   -0.0006    0.0011  218.3245
 Low frequencies ---  218.3245  512.4946  512.4946
 Diagonal vibrational polarizability:
        5.7409384       5.7409384       1.5326855
 Harmonic frequencies (cm**-1), IR intensities (KM/Mole), Raman scattering
 activities (A**4/AMU), depolarization ratios for plane and unpolarized
 incident light, reduced masses (AMU), force constants (mDyne/A),
 and normal coordinates:
                      1                      2                      3
                     PI                     PI                     PI
 Frequencies --    218.3245               218.3245               512.4946
 Red. masses --     13.0879                13.0879                12.6513
 Frc consts  --      0.3676                 0.3676                 1.9578
 IR Inten    --      8.7157                 8.7157                 8.0049
  Atom  AN      X      Y      Z        X      Y      Z        X      Y      Z
     1   6    -0.00   0.32   0.00     0.32   0.00   0.00     0.00   0.81   0.00
     2   7    -0.00   0.63   0.00     0.63   0.00  -0.00    -0.00  -0.47  -0.00
     3   7     0.00  -0.39  -0.00    -0.39  -0.00   0.00    -0.00  -0.32   0.00
     4   6     0.00  -0.59   0.00    -0.59  -0.00  -0.00     0.00   0.11  -0.00
                      4                      5                      6
                     PI                     SG                     SG
 Frequencies --    512.4946               962.3686              2134.0666
 Red. masses --     12.6513                12.9834                13.0174
 Frc consts  --      1.9578                 7.0847                34.9293
 IR Inten    --      8.0049                 0.5664               163.3519
  Atom  AN      X      Y      Z        X      Y      Z        X      Y      Z
     1   6     0.81  -0.00   0.00    -0.00  -0.00   0.37    -0.00  -0.00   0.24
     2   7    -0.47   0.00  -0.00     0.00   0.00  -0.38    -0.00   0.00   0.65
     3   7    -0.32   0.00   0.00     0.00   0.00   0.59     0.00   0.00  -0.30
     4   6     0.11  -0.00  -0.00     0.00  -0.00  -0.61     0.00  -0.00  -0.66
                      7
                     SG
 Frequencies --   2387.9943
 Red. masses --     12.7005
 Frc consts  --     42.6716
 IR Inten    --    116.7521
  Atom  AN      X      Y      Z
     1   6    -0.00   0.00   0.79
     2   7    -0.00  -0.00  -0.33
     3   7     0.00   0.00  -0.49
     4   6     0.00   0.00   0.17

 -------------------
 - Thermochemistry -
 -------------------
 Temperature   298.150 Kelvin.  Pressure   1.00000 Atm.
 Atom     1 has atomic number  6 and mass  12.00000
 Atom     2 has atomic number  7 and mass  14.00307
 Atom     3 has atomic number  7 and mass  14.00307
 Atom     4 has atomic number  6 and mass  12.00000
 Molecular mass:    52.00615 amu.
 Principal axes and moments of inertia in atomic units:
                           1         2         3
     Eigenvalues --     0.00000 345.78092 345.78092
           X            0.00000   0.70711   0.70711
           Y           -0.00000  -0.70711   0.70711
           Z            1.00000  -0.00000  -0.00000
 This molecule is a prolate symmetric top.
 Rotational symmetry number  1.
 Rotational temperature (Kelvin)      0.25049
 Rotational constant (GHZ):           5.219320
 Zero-point vibrational energy      41546.7 (Joules/Mol)
                                    9.92990 (Kcal/Mol)
 Warning -- explicit consideration of   4 degrees of freedom as
           vibrations may cause significant error
 Vibrational temperatures:    314.12   314.12   737.37   737.37  1384.63
          (Kelvin)           3070.45  3435.79
 
 Zero-point correction=                           0.015824 (Hartree/Particle)
 Thermal correction to Energy=                    0.019723
 Thermal correction to Enthalpy=                  0.020667
 Thermal correction to Gibbs Free Energy=        -0.007432
 Sum of electronic and zero-point Energies=           -185.675117
 Sum of electronic and thermal Energies=              -185.671219
 Sum of electronic and thermal Enthalpies=            -185.670274
 Sum of electronic and thermal Free Energies=         -185.698374
 
                     E (Thermal)             CV                S
                      KCal/Mol        Cal/Mol-Kelvin    Cal/Mol-Kelvin
 Total                   12.376             11.469             59.141
 Electronic               0.000              0.000              0.000
 Translational            0.889              2.981             37.769
 Rotational               0.592              1.987             16.060
 Vibrational             10.895              6.501              5.311
 Vibration     1          0.646              1.813              1.973
 Vibration     2          0.646              1.813              1.973
 Vibration     3          0.868              1.222              0.628
 Vibration     4          0.868              1.222              0.628
                       Q            Log10(Q)             Ln(Q)
 Total Bot       0.262223D+04          3.418672          7.871782
 Total V=0       0.498128D+11         10.697341         24.631538
 Vib (Bot)       0.149447D-06         -6.825512        -15.716323
 Vib (Bot)    1  0.906641D+00         -0.042565         -0.098009
 Vib (Bot)    2  0.906641D+00         -0.042565         -0.098009
 Vib (Bot)    3  0.317119D+00         -0.498778         -1.148479
 Vib (Bot)    4  0.317119D+00         -0.498778         -1.148479
 Vib (V=0)       0.283894D+01          0.453157          1.043432
 Vib (V=0)    1  0.153537D+01          0.186214          0.428774
 Vib (V=0)    2  0.153537D+01          0.186214          0.428774
 Vib (V=0)    3  0.109208D+01          0.038256          0.088088
 Vib (V=0)    4  0.109208D+01          0.038256          0.088088
 Electronic      0.100000D+01          0.000000          0.000000
 Translational   0.147413D+08          7.168536         16.506164
 Rotational      0.119028D+04          3.075648          7.081942
 ***** Axes restored to original set *****
 -------------------------------------------------------------------
 Center     Atomic                   Forces (Hartrees/Bohr)
 Number     Number              X              Y              Z
 -------------------------------------------------------------------
      1        6           0.000126302    0.000000000    0.000000000
      2        7          -0.000149459   -0.000000000   -0.000000000
      3        7           0.000005869   -0.000000000    0.000000000
      4        6           0.000017289   -0.000000000    0.000000000
 -------------------------------------------------------------------
 Cartesian Forces:  Max     0.000149459 RMS     0.000056733
 FormGI is forming the generalized inverse of G from B-inverse, IUseBI=4.

 GradGradGradGradGradGradGradGradGradGradGradGradGradGradGradGradGradGrad
 Berny optimization.
 Internal  Forces:  Max     0.000132170 RMS     0.000050430
 Search for a local minimum.
 Step number   1 out of a maximum of    2
 All quantities printed in internal units (Hartrees-Bohrs-Radians)
 Second derivative matrix not updated -- analytic derivatives used.
 The second derivative matrix:
                          R1        R2        R3        A1        A2
           R1           0.56651
           R2           0.04401   1.20971
           R3           0.03570  -0.03165   1.03893
           A1          -0.00000   0.00000  -0.00000   0.09651
           A2           0.00000  -0.00000   0.00000  -0.00283   0.04182
           A3          -0.00000   0.00000   0.00000  -0.00000   0.00000
           A4           0.00000  -0.00000  -0.00000   0.00000   0.00000
                          A3        A4
           A3           0.09651
           A4          -0.00283   0.04182
 ITU=  0
     Eigenvalues ---    0.04168   0.04168   0.09665   0.09665   0.56053
     Eigenvalues ---    1.03710   1.21752
 Angle between quadratic step and forces=   3.85 degrees.
 Linear search not attempted -- first point.
 Iteration  1 RMS(Cart)=  0.00008365 RMS(Int)=  0.00000000
 Iteration  2 RMS(Cart)=  0.00000000 RMS(Int)=  0.00000001
 ClnCor:  largest displacement from symmetrization is 9.49D-16 for atom     3.
 Variable       Old X    -DE/DX   Delta X   Delta X   Delta X     New X
                                 (Linear)    (Quad)   (Total)
    R1        2.46520   0.00013   0.00000   0.00024   0.00024   2.46543
    R2        2.17942   0.00001   0.00000  -0.00000  -0.00000   2.17942
    R3        2.22586  -0.00002   0.00000  -0.00002  -0.00002   2.22583
    A1        3.14159   0.00000   0.00000   0.00000   0.00000   3.14159
    A2        3.14159  -0.00000   0.00000  -0.00000   0.00000   3.14159
    A3        3.14159  -0.00000   0.00000   0.00000  -0.00000   3.14159
    A4        3.14159  -0.00000   0.00000  -0.00000   0.00000   3.14159
         Item               Value     Threshold  Converged?
 Maximum Force            0.000132     0.000450     YES
 RMS     Force            0.000050     0.000300     YES
 Maximum Displacement     0.000123     0.001800     YES
 RMS     Displacement     0.000084     0.001200     YES
 Predicted change in Energy=-1.574596D-08
 Optimization completed.
    -- Stationary point found.
                           ----------------------------
                           !   Optimized Parameters   !
                           ! (Angstroms and Degrees)  !
 --------------------------                            --------------------------
 ! Name  Definition              Value          Derivative Info.                !
 --------------------------------------------------------------------------------
 ! R1    R(1,2)                  1.3045         -DE/DX =    0.0001              !
 ! R2    R(1,3)                  1.1533         -DE/DX =    0.0                 !
 ! R3    R(2,4)                  1.1779         -DE/DX =    0.0                 !
 ! A1    L(2,1,3,-2,-1)        180.0            -DE/DX =    0.0                 !
 ! A2    L(1,2,4,-2,-1)        180.0            -DE/DX =    0.0                 !
 ! A3    L(2,1,3,-3,-2)        180.0            -DE/DX =    0.0                 !
 ! A4    L(1,2,4,-3,-2)        180.0            -DE/DX =    0.0                 !
 --------------------------------------------------------------------------------
 GradGradGradGradGradGradGradGradGradGradGradGradGradGradGradGradGradGrad


 ----------------------------------------------------------------------

 Electric dipole moment (input orientation):
 (Debye = 10**-18 statcoulomb cm , SI units = C m)
                  (au)            (Debye)         (10**-30 SI)
   Tot        0.334500D+00      0.850215D+00      0.283601D+01
   x         -0.334500D+00     -0.850215D+00     -0.283601D+01
   y          0.000000D+00      0.000000D+00      0.000000D+00
   z          0.000000D+00      0.000000D+00      0.000000D+00

 Dipole polarizability, Alpha (input orientation).
 (esu units = cm**3 , SI units = C**2 m**2 J**-1)
 Alpha(0;0):
               (au)            (10**-24 esu)      (10**-40 SI)
   iso        0.326369D+02      0.483628D+01      0.538109D+01
   aniso      0.384562D+02      0.569863D+01      0.634058D+01
   xx         0.582743D+02      0.863537D+01      0.960814D+01
   yx         0.000000D+00      0.000000D+00      0.000000D+00
   yy         0.198181D+02      0.293674D+01      0.326757D+01
   zx         0.000000D+00      0.000000D+00      0.000000D+00
   zy         0.000000D+00      0.000000D+00      0.000000D+00
   zz         0.198181D+02      0.293674D+01      0.326757D+01

 ----------------------------------------------------------------------

 Dipole orientation:
     6          0.00000000          0.00000000         -1.15892274
     7         -0.00000000          0.00000000          1.30627621
     7          0.00000000          0.00000000         -3.33834512
     6         -0.00000000          0.00000000          3.53213257

 Electric dipole moment (dipole orientation):
 (Debye = 10**-18 statcoulomb cm , SI units = C m)
                  (au)            (Debye)         (10**-30 SI)
   Tot        0.334500D+00      0.850215D+00      0.283601D+01
   x          0.000000D+00      0.000000D+00      0.000000D+00
   y          0.000000D+00      0.000000D+00      0.000000D+00
   z          0.334500D+00      0.850215D+00      0.283601D+01

 Dipole polarizability, Alpha (dipole orientation).
 (esu units = cm**3 , SI units = C**2 m**2 J**-1)
 Alpha(0;0):
               (au)            (10**-24 esu)      (10**-40 SI)
   iso        0.326369D+02      0.483628D+01      0.538109D+01
   aniso      0.384562D+02      0.569863D+01      0.634058D+01
   xx         0.198181D+02      0.293674D+01      0.326757D+01
   yx         0.000000D+00      0.000000D+00      0.000000D+00
   yy         0.198181D+02      0.293674D+01      0.326757D+01
   zx         0.000000D+00      0.000000D+00      0.000000D+00
   zy         0.000000D+00      0.000000D+00      0.000000D+00
   zz         0.582743D+02      0.863537D+01      0.960814D+01

 ----------------------------------------------------------------------
 1\1\GINC-GAMBA\Freq\RB3LYP\Gen\C2N2\IRIKURA\17-Jun-2022\0\\#N Geom=All
 Check Guess=TCheck SCRF=Check GenChk RB3LYP/ChkBas Freq\\isocyanogen, 
 B3LYP/pcseg-2\\0,1\C,0.6132755006,0.,0.\N,-0.6912515996,0.,0.\N,1.7665
 761621,0.,0.\C,-1.8691240632,0.,0.\\Version=ES64L-G16RevB.01\State=1-S
 G\HF=-185.6909416\RMSD=4.222e-10\RMSF=5.673e-05\ZeroPoint=0.0158243\Th
 ermal=0.019723\Dipole=-0.3345002,0.,0.\DipoleDeriv=0.6151341,0.,0.,0.,
 0.3359606,0.,0.,0.,0.3359606,-1.5159938,0.,0.,0.,0.0791613,0.,0.,0.,0.
 0791613,-0.1429086,0.,0.,0.,-0.3037228,0.,0.,0.,-0.3037228,1.0437683,0
 .,0.,0.,-0.1113991,0.,0.,0.,-0.1113991\Polar=58.2743446,0.,19.8181125,
 0.,0.,19.8181125\Quadrupole=-4.7847007,2.3923503,2.3923503,0.,0.,0.\PG
 =C*V [C*(C1N1C1N1)]\NImag=0\\1.68820304,0.,0.07696792,0.,0.,0.07696792
 ,-0.45515512,0.,0.,1.53404791,0.,-0.04574053,0.,0.,0.04444278,0.,0.,-0
 .04574053,0.,0.,0.04444278,-1.16569905,0.,0.,-0.07566012,0.,0.,1.20970
 781,0.,-0.03775238,0.,0.,0.01685290,0.,0.,0.02031647,0.,0.,-0.03775238
 ,0.,0.,0.01685290,0.,0.,0.02031647,-0.06734886,0.,0.,-1.00323266,0.,0.
 ,0.03165137,0.,0.,1.03893015,0.,0.00652498,0.,0.,-0.01555516,0.,0.,0.0
 0058300,0.,0.,0.00844717,0.,0.,0.00652498,0.,0.,-0.01555516,0.,0.,0.00
 058300,0.,0.,0.00844717\\-0.00012630,0.,0.,0.00014946,0.,0.,-0.0000058
 7,0.,0.,-0.00001729,0.,0.\\\@


 THERE IS SOMETHING FASCINATING ABOUT SCIENCE.
 ONE GETS SUCH WHOLESALE CONJECTURE OUT OF SUCH TRIFLING INVESTMENTS.

                                                       -- MARK TWAIN
 Job cpu time:       0 days  0 hours  2 minutes 21.5 seconds.
 Elapsed time:       0 days  0 hours  0 minutes 11.8 seconds.
 File lengths (MBytes):  RWF=     10 Int=      0 D2E=      0 Chk=      2 Scr=      1
 Normal termination of Gaussian 16 at Fri Jun 17 20:09:59 2022.
