 Entering Gaussian System, Link 0=g16
 AtFile(1): pcseg2.gbs
            -H     0
            S   4   1.00
                  0.754732D+02           0.427821D-02
                  0.113575D+02           0.328672D-01
                  0.260081D+01           0.159578D+00
                  0.735503D+00           0.500000D+00
            S   1   1.00
                  0.231761D+00           1.0000000
            S   1   1.00
                  0.741675D-01           1.0000000
            P   1   1.00
                  0.160000D+01           1.0000000
            P   1   1.00
                  0.450000D+00           1.0000000
            D   1   1.00
                  0.125000D+01           1.0000000
            ****
            -C     0
            S   7   1.00
                  0.731999D+04           0.695369D-03
                  0.109818D+04           0.537138D-02
                  0.250014D+03           0.274734D-01
                  0.707586D+02           0.105078D+00
                  0.228595D+02           0.291262D+00
                  0.803936D+01           0.500000D+00
                  0.289309D+01           0.362224D+00
            S   2   1.00
                  0.521640D+01          -0.957844D-01
                  0.556124D+00           0.500000D+00
            S   1   1.00
                  0.228813D+00           1.0000000
            S   1   1.00
                  0.936338D-01           1.0000000
            P   4   1.00
                  0.339855D+02           0.818395D-02
                  0.772957D+01           0.586921D-01
                  0.224954D+01           0.222514D+00
                  0.767681D+00           0.500000D+00
            P   1   1.00
                  0.263283D+00           1.0000000
            P   1   1.00
                  0.848744D-01           1.0000000
            D   1   1.00
                  0.140000D+01           1.0000000
            D   1   1.00
                  0.450000D+00           1.0000000
            F   1   1.00
                  0.950000D+00           1.0000000
            ****
            -O     0
            S   7   1.00
                  0.135887D+05           0.665492D-03
                  0.203847D+04           0.514222D-02
                  0.464041D+03           0.263472D-01
                  0.131339D+03           0.101500D+00
                  0.425340D+02           0.285877D+00
                  0.150429D+02           0.500000D+00
                  0.546616D+01           0.368211D+00
            S   2   1.00
                  0.100915D+02          -0.100084D+00
                  0.110429D+01           0.500000D+00
            S   1   1.00
                  0.448082D+00           1.0000000
            S   1   1.00
                  0.175325D+00           1.0000000
            P   4   1.00
                  0.608220D+02           0.908253D-02
                  0.140332D+02           0.645878D-01
                  0.418244D+01           0.241502D+00
                  0.142490D+01           0.500000D+00
            P   1   1.00
                  0.478741D+00           1.0000000
            P   1   1.00
                  0.146257D+00           1.0000000
            D   1   1.00
                  0.220000D+01           1.0000000
            D   1   1.00
                  0.650000D+00           1.0000000
            F   1   1.00
                  0.110000D+01           1.0000000
            ****
            -N     0
            S   7   1.00
                  0.101643D+05           0.682757D-03
                  0.152481D+04           0.527488D-02
                  0.347119D+03           0.270037D-01
                  0.982389D+02           0.103673D+00
                  0.317799D+02           0.289575D+00
                  0.112240D+02           0.500000D+00
                  0.406611D+01           0.364621D+00
            S   2   1.00
                  0.747898D+01          -0.975681D-01
                  0.805040D+00           0.500000D+00
            S   1   1.00
                  0.324626D+00           1.0000000
            S   1   1.00
                  0.128132D+00           1.0000000
            P   4   1.00
                  0.482704D+02           0.829547D-02
                  0.110815D+02           0.596223D-01
                  0.326643D+01           0.227889D+00
                  0.111680D+01           0.500000D+00
            P   1   1.00
                  0.382049D+00           1.0000000
            P   1   1.00
                  0.121222D+00           1.0000000
            D   1   1.00
                  0.180000D+01           1.0000000
            D   1   1.00
                  0.550000D+00           1.0000000
            F   1   1.00
                  0.102000D+01           1.0000000
            ****
            -F     0
            S   7   1.00
                  0.174507D+05           0.655972D-03
                  0.261768D+04           0.506944D-02
                  0.595857D+03           0.259899D-01
                  0.168651D+03           0.100353D+00
                  0.546654D+02           0.284095D+00
                  0.193717D+02           0.500000D+00
                  0.706202D+01           0.370721D+00
            S   2   1.00
                  0.131197D+02          -0.101997D+00
                  0.145046D+01           0.500000D+00
            S   1   1.00
                  0.588255D+00           1.0000000
            S   1   1.00
                  0.227960D+00           1.0000000
            P   4   1.00
                  0.779407D+02           0.931135D-02
                  0.180425D+02           0.663964D-01
                  0.542342D+01           0.246386D+00
                  0.184876D+01           0.500000D+00
            P   1   1.00
                  0.617455D+00           1.0000000
            P   1   1.00
                  0.185496D+00           1.0000000
            D   1   1.00
                  0.280000D+01           1.0000000
            D   1   1.00
                  0.800000D+00           1.0000000
            F   1   1.00
                  0.120000D+01           1.0000000
            ****
            -Cl     0
            S   8   1.00
                  0.154272D+06           0.222473D-03
                  0.231232D+05           0.172590D-02
                  0.526257D+04           0.899286D-02
                  0.148995D+04           0.367724D-01
                  0.485417D+03           0.121446D+00
                  0.174634D+03           0.304148D+00
                  0.672393D+02           0.500000D+00
                  0.265780D+02           0.360252D+00
            S   3   1.00
                  0.131826D+03          -0.531330D-01
                  0.400703D+02          -0.233346D+00
                  0.789448D+01           0.500000D+00
            S   2   1.00
                  0.427711D+01           0.500000D+00
                  0.196233D+01           0.370517D+00
            S   1   1.00
                  0.520793D+00           1.0000000
            S   1   1.00
                  0.181633D+00           1.0000000
            P   7   1.00
                  0.124440D+04           0.988206D-03
                  0.295109D+03           0.829674D-02
                  0.947224D+02           0.430906D-01
                  0.352588D+02           0.148443D+00
                  0.144211D+02           0.344744D+00
                  0.610371D+01           0.500000D+00
                  0.258886D+01           0.348278D+00
            P   2   1.00
                  0.109447D+02          -0.196768D-01
                  0.104413D+01           0.500000D+00
            P   1   1.00
                  0.376184D+00           1.0000000
            P   1   1.00
                  0.120613D+00           1.0000000
            D   1   1.00
                  0.231000D+01           1.0000000
            D   1   1.00
                  0.520000D+00           1.0000000
            F   1   1.00
                  0.720000D+00           1.0000000
            ****
            -S     0
            S   8   1.00
                  0.134700D+06           0.226231D-03
                  0.201904D+05           0.175488D-02
                  0.459528D+04           0.914190D-02
                  0.130109D+04           0.373551D-01
                  0.423902D+03           0.123121D+00
                  0.152485D+03           0.306801D+00
                  0.586925D+02           0.500000D+00
                  0.231461D+02           0.354358D+00
            S   3   1.00
                  0.116327D+03          -0.491772D-01
                  0.352841D+02          -0.215962D+00
                  0.677831D+01           0.500000D+00
            S   2   1.00
                  0.360404D+01           0.500000D+00
                  0.164871D+01           0.366278D+00
            S   1   1.00
                  0.421821D+00           1.0000000
            S   1   1.00
                  0.147554D+00           1.0000000
            P   7   1.00
                  0.104863D+04           0.105273D-02
                  0.248717D+03           0.879338D-02
                  0.797887D+02           0.453358D-01
                  0.296023D+02           0.154476D+00
                  0.120627D+02           0.352366D+00
                  0.507628D+01           0.500000D+00
                  0.213375D+01           0.346429D+00
            P   2   1.00
                  0.928958D+01          -0.185932D-01
                  0.837819D+00           0.500000D+00
            P   1   1.00
                  0.301495D+00           1.0000000
            P   1   1.00
                  0.974740D-01           1.0000000
            D   1   1.00
                  0.210000D+01           1.0000000
            D   1   1.00
                  0.480000D+00           1.0000000
            F   1   1.00
                  0.660000D+00           1.0000000
            ****
            -Si     0
            S    8   1.00
                  0.996133D+05           0.235546D-03
                  0.149311D+05           0.182707D-02
                  0.339820D+04           0.951425D-02
                  0.962140D+03           0.388172D-01
                  0.313430D+03           0.127328D+00
                  0.112683D+03           0.313522D+00
                  0.433372D+02           0.500000D+00
                  0.170029D+02           0.340347D+00
            S    3   1.00
                  0.884208D+02          -0.404451D-01
                  0.266756D+02          -0.178059D+00
                  0.479640D+01           0.500000D+00
            S    2   1.00
                  0.239385D+01           0.500000D+00
                  0.108333D+01           0.338016D+00
            S    1   1.00
                  0.252420D+00           1.0000000
            S    1   1.00
                  0.891210D-01           1.0000000
            P    7   1.00
                  0.709901D+03           0.123028D-02
                  0.168426D+03           0.101366D-01
                  0.539946D+02           0.511840D-01
                  0.198646D+02           0.169967D+00
                  0.801369D+01           0.370717D+00
                  0.331870D+01           0.500000D+00
                  0.136112D+01           0.344128D+00
            P    2   1.00
                  0.622158D+01          -0.166609D-01
                  0.503049D+00           0.500000D+00
            P    1   1.00
                  0.179848D+00           1.0000000
            P    1   1.00
                  0.591912D-01           1.0000000
            D    1   1.00
                  0.168000D+01           1.0000000
            D    1   1.00
                  0.380000D+00           1.0000000
            F    1   1.00
                  0.540000D+00           1.0000000
            ****
            -P     0
            S    8   1.00
                  0.116416D+06           0.230715D-03
                  0.174500D+05           0.178960D-02
                  0.397149D+04           0.932116D-02
                  0.112447D+04           0.380591D-01
                  0.366347D+03           0.125148D+00
                  0.131757D+03           0.310022D+00
                  0.506988D+02           0.500000D+00
                  0.199436D+02           0.347528D+00
            S    3   1.00
                  0.101878D+03          -0.446755D-01
                  0.308249D+02          -0.196376D+00
                  0.573688D+01           0.500000D+00
            S    2   1.00
                  0.296868D+01           0.500000D+00
                  0.135315D+01           0.355098D+00
            S    1   1.00
                  0.332196D+00           1.0000000
            S    1   1.00
                  0.116229D+00           1.0000000
            P    7   1.00
                  0.873928D+03           0.112375D-02
                  0.207298D+03           0.933330D-02
                  0.664628D+02           0.477213D-01
                  0.245665D+02           0.160733D+00
                  0.996820D+01           0.359760D+00
                  0.416536D+01           0.500000D+00
                  0.173022D+01           0.346593D+00
            P    2   1.00
                  0.772530D+01          -0.175718D-01
                  0.657252D+00           0.500000D+00
            P    1   1.00
                  0.239903D+00           1.0000000
            P    1   1.00
                  0.800988D-01           1.0000000
            D    1   1.00
                  0.189000D+01           1.0000000
            D    1   1.00
                  0.430000D+00           1.0000000
            F    1   1.00
                  0.600000D+00           1.0000000
            ****
            
 Initial command:
 /usr/local/apps/g16_b01_avx/g16/l1.exe "/wrk/irikura/Gau-17664.inp" -scrdir="/wrk/irikura/"
 Entering Link 1 = /usr/local/apps/g16_b01_avx/g16/l1.exe PID=     17666.
  
 Copyright (c) 1988-2017, Gaussian, Inc.  All Rights Reserved.
  
 This is part of the Gaussian(R) 16 program.  It is based on
 the Gaussian(R) 09 system (copyright 2009, Gaussian, Inc.),
 the Gaussian(R) 03 system (copyright 2003, Gaussian, Inc.),
 the Gaussian(R) 98 system (copyright 1998, Gaussian, Inc.),
 the Gaussian(R) 94 system (copyright 1995, Gaussian, Inc.),
 the Gaussian 92(TM) system (copyright 1992, Gaussian, Inc.),
 the Gaussian 90(TM) system (copyright 1990, Gaussian, Inc.),
 the Gaussian 88(TM) system (copyright 1988, Gaussian, Inc.),
 the Gaussian 86(TM) system (copyright 1986, Carnegie Mellon
 University), and the Gaussian 82(TM) system (copyright 1983,
 Carnegie Mellon University). Gaussian is a federally registered
 trademark of Gaussian, Inc.
  
 This software contains proprietary and confidential information,
 including trade secrets, belonging to Gaussian, Inc.
  
 This software is provided under written license and may be
 used, copied, transmitted, or stored only in accord with that
 written license.
  
 The following legend is applicable only to US Government
 contracts under FAR:
  
                    RESTRICTED RIGHTS LEGEND
  
 Use, reproduction and disclosure by the US Government is
 subject to restrictions as set forth in subparagraphs (a)
 and (c) of the Commercial Computer Software - Restricted
 Rights clause in FAR 52.227-19.
  
 Gaussian, Inc.
 340 Quinnipiac St., Bldg. 40, Wallingford CT 06492
  
  
 ---------------------------------------------------------------
 Warning -- This program may not be used in any manner that
 competes with the business of Gaussian, Inc. or will provide
 assistance to any competitor of Gaussian, Inc.  The licensee
 of this program is prohibited from giving any competitor of
 Gaussian, Inc. access to this program.  By using this program,
 the user acknowledges that Gaussian, Inc. is engaged in the
 business of creating and licensing software in the field of
 computational chemistry and represents and warrants to the
 licensee that it is not a competitor of Gaussian, Inc. and that
 it will not use this program in any manner prohibited above.
 ---------------------------------------------------------------
  

 Cite this work as:
 Gaussian 16, Revision B.01,
 M. J. Frisch, G. W. Trucks, H. B. Schlegel, G. E. Scuseria, 
 M. A. Robb, J. R. Cheeseman, G. Scalmani, V. Barone, 
 G. A. Petersson, H. Nakatsuji, X. Li, M. Caricato, A. V. Marenich, 
 J. Bloino, B. G. Janesko, R. Gomperts, B. Mennucci, H. P. Hratchian, 
 J. V. Ortiz, A. F. Izmaylov, J. L. Sonnenberg, D. Williams-Young, 
 F. Ding, F. Lipparini, F. Egidi, J. Goings, B. Peng, A. Petrone, 
 T. Henderson, D. Ranasinghe, V. G. Zakrzewski, J. Gao, N. Rega, 
 G. Zheng, W. Liang, M. Hada, M. Ehara, K. Toyota, R. Fukuda, 
 J. Hasegawa, M. Ishida, T. Nakajima, Y. Honda, O. Kitao, H. Nakai, 
 T. Vreven, K. Throssell, J. A. Montgomery, Jr., J. E. Peralta, 
 F. Ogliaro, M. J. Bearpark, J. J. Heyd, E. N. Brothers, K. N. Kudin, 
 V. N. Staroverov, T. A. Keith, R. Kobayashi, J. Normand, 
 K. Raghavachari, A. P. Rendell, J. C. Burant, S. S. Iyengar, 
 J. Tomasi, M. Cossi, J. M. Millam, M. Klene, C. Adamo, R. Cammi, 
 J. W. Ochterski, R. L. Martin, K. Morokuma, O. Farkas, 
 J. B. Foresman, and D. J. Fox, Gaussian, Inc., Wallingford CT, 2016.
 
 ******************************************
 Gaussian 16:  ES64L-G16RevB.01 20-Dec-2017
                 1-Feb-2022 
 ******************************************
 %mem=500mw
 --------------------
 # b3lyp/gen opt freq
 --------------------
 1/18=20,19=15,26=3,38=1/1,3;
 2/9=110,12=2,17=6,18=5,40=1/2;
 3/5=7,11=2,25=1,30=1,71=1,74=-5/1,2,3;
 4//1;
 5/5=2,38=5/2;
 6/7=2,8=2,9=2,10=2,28=1/1;
 7//1,2,3,16;
 1/18=20,19=15,26=3/3(2);
 2/9=110/2;
 99//99;
 2/9=110/2;
 3/5=7,6=1,11=2,25=1,30=1,71=1,74=-5,82=7/1,2,3;
 4/5=5,16=3,69=1/1;
 5/5=2,38=5/2;
 7//1,2,3,16;
 1/18=20,19=15,26=3/3(-5);
 2/9=110/2;
 6/7=2,8=2,9=2,10=2,19=2,28=1/1;
 99/9=1/99;
 ------------------
 CO2, B3LYP/pcseg-2
 ------------------
 Symbolic Z-matrix:
 Charge =  0 Multiplicity = 1
 C                     0.        0.        0. 
 O                     0.        0.        1.3 
 O                     0.        0.       -1.3 
 

 GradGradGradGradGradGradGradGradGradGradGradGradGradGradGradGradGradGrad
 Berny optimization.
 Initialization pass.
                           ----------------------------
                           !    Initial Parameters    !
                           ! (Angstroms and Degrees)  !
 --------------------------                            --------------------------
 ! Name  Definition              Value          Derivative Info.                !
 --------------------------------------------------------------------------------
 ! R1    R(1,2)                  1.3            estimate D2E/DX2                !
 ! R2    R(1,3)                  1.3            estimate D2E/DX2                !
 ! A1    L(2,1,3,-1,-1)        180.0            estimate D2E/DX2                !
 ! A2    L(2,1,3,-2,-2)        180.0            estimate D2E/DX2                !
 --------------------------------------------------------------------------------
 Trust Radius=3.00D-01 FncErr=1.00D-07 GrdErr=1.00D-06 EigMax=2.50D+02 EigMin=1.00D-04
 Number of steps in this run=     20 maximum allowed number of steps=    100.
 GradGradGradGradGradGradGradGradGradGradGradGradGradGradGradGradGradGrad

                          Input orientation:                          
 ---------------------------------------------------------------------
 Center     Atomic      Atomic             Coordinates (Angstroms)
 Number     Number       Type             X           Y           Z
 ---------------------------------------------------------------------
      1          6           0        0.000000    0.000000    0.000000
      2          8           0        0.000000    0.000000    1.300000
      3          8           0        0.000000    0.000000   -1.300000
 ---------------------------------------------------------------------
                    Distance matrix (angstroms):
                    1          2          3
     1  C    0.000000
     2  O    1.300000   0.000000
     3  O    1.300000   2.600000   0.000000
 Stoichiometry    CO2
 Framework group  D*H[O(C),C*(O.O)]
 Deg. of freedom     1
 Full point group                 D*H     NOp   8
 Largest Abelian subgroup         D2H     NOp   8
 Largest concise Abelian subgroup C2      NOp   2
                         Standard orientation:                         
 ---------------------------------------------------------------------
 Center     Atomic      Atomic             Coordinates (Angstroms)
 Number     Number       Type             X           Y           Z
 ---------------------------------------------------------------------
      1          6           0        0.000000    0.000000    0.000000
      2          8           0        0.000000    0.000000    1.300000
      3          8           0        0.000000    0.000000   -1.300000
 ---------------------------------------------------------------------
 Rotational constants (GHZ):           0.0000000           9.3479972           9.3479972
 General basis read from cards:  (5D, 7F)
 There are    26 symmetry adapted cartesian basis functions of AG  symmetry.
 There are     5 symmetry adapted cartesian basis functions of B1G symmetry.
 There are    10 symmetry adapted cartesian basis functions of B2G symmetry.
 There are    10 symmetry adapted cartesian basis functions of B3G symmetry.
 There are     4 symmetry adapted cartesian basis functions of AU  symmetry.
 There are    22 symmetry adapted cartesian basis functions of B1U symmetry.
 There are    14 symmetry adapted cartesian basis functions of B2U symmetry.
 There are    14 symmetry adapted cartesian basis functions of B3U symmetry.
 There are    21 symmetry adapted basis functions of AG  symmetry.
 There are     5 symmetry adapted basis functions of B1G symmetry.
 There are     9 symmetry adapted basis functions of B2G symmetry.
 There are     9 symmetry adapted basis functions of B3G symmetry.
 There are     4 symmetry adapted basis functions of AU  symmetry.
 There are    18 symmetry adapted basis functions of B1U symmetry.
 There are    12 symmetry adapted basis functions of B2U symmetry.
 There are    12 symmetry adapted basis functions of B3U symmetry.
    90 basis functions,   153 primitive gaussians,   105 cartesian basis functions
    11 alpha electrons       11 beta electrons
       nuclear repulsion energy        52.1036023060 Hartrees.
 NAtoms=    3 NActive=    3 NUniq=    2 SFac= 2.25D+00 NAtFMM=   60 NAOKFM=F Big=F
 Integral buffers will be    131072 words long.
 Raffenetti 2 integral format.
 Two-electron integral symmetry is turned on.
 One-electron integrals computed using PRISM.
 NBasis=    90 RedAO= T EigKep=  1.61D-03  NBF=    21     5     9     9     4    18    12    12
 NBsUse=    90 1.00D-06 EigRej= -1.00D+00 NBFU=    21     5     9     9     4    18    12    12
 ExpMin= 8.49D-02 ExpMax= 1.36D+04 ExpMxC= 4.64D+02 IAcc=3 IRadAn=         5 AccDes= 0.00D+00
 Harris functional with IExCor=  402 and IRadAn=       5 diagonalized for initial guess.
 HarFok:  IExCor=  402 AccDes= 0.00D+00 IRadAn=         5 IDoV= 1 UseB2=F ITyADJ=14
 ICtDFT=  3500011 ScaDFX=  1.000000  1.000000  1.000000  1.000000
 FoFCou: FMM=F IPFlag=           0 FMFlag=      100000 FMFlg1=           0
         NFxFlg=           0 DoJE=T BraDBF=F KetDBF=T FulRan=T
         wScrn=  0.000000 ICntrl=       500 IOpCl=  0 I1Cent=   200000004 NGrid=           0
         NMat0=    1 NMatS0=      1 NMatT0=    0 NMatD0=    1 NMtDS0=    0 NMtDT0=    0
 Petite list used in FoFCou.
 Initial guess orbital symmetries:
       Occupied  (SGU) (SGG) (SGG) (SGG) (SGU) (SGG) (SGU) (PIU)
                 (PIU) (PIG) (PIG)
       Virtual   (PIU) (PIU) (SGG) (SGU) (PIU) (PIU) (SGG) (SGG)
                 (SGU) (PIG) (PIG) (PIU) (PIU) (SGU) (SGG) (SGU)
                 (DLTG) (DLTG) (PIG) (PIG) (PIU) (PIU) (SGU) (DLTU)
                 (DLTU) (SGG) (DLTG) (DLTG) (PIU) (PIU) (SGG) (SGU)
                 (PIG) (PIG) (PIU) (PIU) (SGG) (PIG) (PIG) (SGG)
                 (SGU) (DLTU) (DLTU) (PHIU) (PHIU) (PIU) (PIU)
                 (PIG) (PIG) (SGG) (PHIG) (PHIG) (DLTG) (DLTG)
                 (PHIU) (PHIU) (DLTG) (DLTG) (SGU) (SGU) (DLTU)
                 (DLTU) (SGU) (PIG) (PIG) (SGG) (PIU) (PIU) (DLTU)
                 (DLTU) (DLTG) (DLTG) (PIU) (PIU) (SGG) (PIG) (PIG)
                 (SGU) (SGG)
 The electronic state of the initial guess is 1-SGG.
 Keep R1 ints in memory in symmetry-blocked form, NReq=10378786.
 Requested convergence on RMS density matrix=1.00D-08 within 128 cycles.
 Requested convergence on MAX density matrix=1.00D-06.
 Requested convergence on             energy=1.00D-06.
 No special actions if energy rises.
 Integral accuracy reduced to 1.0D-05 until final iterations.
 Initial convergence to 1.0D-05 achieved.  Increase integral accuracy.
 SCF Done:  E(RB3LYP) =  -188.609316053     A.U. after   10 cycles
            NFock= 10  Conv=0.71D-08     -V/T= 2.0079

 **********************************************************************

            Population analysis using the SCF Density.

 **********************************************************************

 Orbital symmetries:
       Occupied  (SGU) (SGG) (SGG) (SGG) (SGU) (SGG) (SGU) (PIU)
                 (PIU) (PIG) (PIG)
       Virtual   (PIU) (PIU) (SGG) (SGU) (PIU) (PIU) (SGG) (SGG)
                 (SGU) (PIG) (PIG) (PIU) (PIU) (SGU) (SGG) (SGU)
                 (DLTG) (DLTG) (PIG) (PIG) (PIU) (PIU) (SGU) (DLTU)
                 (DLTU) (SGG) (DLTG) (DLTG) (PIU) (PIU) (SGG) (SGU)
                 (PIG) (PIG) (PIU) (PIU) (SGG) (PIG) (PIG) (SGG)
                 (SGU) (DLTU) (DLTU) (PHIU) (PHIU) (PIG) (PIG)
                 (PIU) (PIU) (SGG) (DLTG) (DLTG) (PHIG) (PHIG)
                 (PHIU) (PHIU) (DLTG) (DLTG) (SGU) (SGU) (DLTU)
                 (DLTU) (SGU) (PIG) (PIG) (SGG) (PIU) (PIU) (DLTU)
                 (DLTU) (DLTG) (DLTG) (SGG) (PIU) (PIU) (PIG) (PIG)
                 (SGU) (SGG)
 The electronic state is 1-SGG.
 Alpha  occ. eigenvalues --  -19.24116 -19.24115 -10.42341  -1.11224  -1.07511
 Alpha  occ. eigenvalues --   -0.59755  -0.52487  -0.48665  -0.48665  -0.38060
 Alpha  occ. eigenvalues --   -0.38060
 Alpha virt. eigenvalues --   -0.06289  -0.06289  -0.03621   0.12795   0.14775
 Alpha virt. eigenvalues --    0.14775   0.17989   0.29300   0.34472   0.35759
 Alpha virt. eigenvalues --    0.35759   0.47442   0.47442   0.57865   0.69644
 Alpha virt. eigenvalues --    0.73209   0.81320   0.81320   0.99576   0.99576
 Alpha virt. eigenvalues --    1.14791   1.14791   1.30482   1.39843   1.39843
 Alpha virt. eigenvalues --    1.45371   1.58394   1.58394   1.74060   1.74060
 Alpha virt. eigenvalues --    1.87667   1.99918   2.00969   2.00969   2.30476
 Alpha virt. eigenvalues --    2.30476   2.51927   2.65953   2.65953   2.80917
 Alpha virt. eigenvalues --    3.02126   3.09158   3.09158   3.18814   3.18814
 Alpha virt. eigenvalues --    3.68223   3.68223   3.69817   3.69817   3.77242
 Alpha virt. eigenvalues --    3.85149   3.85149   3.92544   3.92544   3.98818
 Alpha virt. eigenvalues --    3.98818   4.04232   4.04232   4.15227   4.17768
 Alpha virt. eigenvalues --    4.66135   4.66135   4.74683   4.90680   4.90680
 Alpha virt. eigenvalues --    5.56745   5.76215   5.76215   5.97377   5.97377
 Alpha virt. eigenvalues --    5.98809   5.98809   6.18982   6.21319   6.21319
 Alpha virt. eigenvalues --    6.56707   6.56707   6.85349   7.13612
          Condensed to atoms (all electrons):
               1          2          3
     1  C    4.326659   0.517717   0.517717
     2  O    0.517717   7.835903  -0.034666
     3  O    0.517717  -0.034666   7.835903
 Mulliken charges:
               1
     1  C    0.637907
     2  O   -0.318954
     3  O   -0.318954
 Sum of Mulliken charges =  -0.00000
 Mulliken charges with hydrogens summed into heavy atoms:
               1
     1  C    0.637907
     2  O   -0.318954
     3  O   -0.318954
 Electronic spatial extent (au):  <R**2>=            134.4394
 Charge=              0.0000 electrons
 Dipole moment (field-independent basis, Debye):
    X=             -0.0000    Y=              0.0000    Z=             -0.0000  Tot=              0.0000
 Quadrupole moment (field-independent basis, Debye-Ang):
   XX=            -15.5274   YY=            -15.5274   ZZ=            -19.8922
   XY=              0.0000   XZ=              0.0000   YZ=              0.0000
 Traceless Quadrupole moment (field-independent basis, Debye-Ang):
   XX=              1.4549   YY=              1.4549   ZZ=             -2.9099
   XY=              0.0000   XZ=              0.0000   YZ=              0.0000
 Octapole moment (field-independent basis, Debye-Ang**2):
  XXX=             -0.0000  YYY=             -0.0000  ZZZ=              0.0000  XYY=             -0.0000
  XXY=             -0.0000  XXZ=              0.0000  XZZ=             -0.0000  YZZ=              0.0000
  YYZ=             -0.0000  XYZ=              0.0000
 Hexadecapole moment (field-independent basis, Debye-Ang**3):
 XXXX=            -13.2991 YYYY=            -13.2991 ZZZZ=           -126.4144 XXXY=              0.0000
 XXXZ=              0.0000 YYYX=              0.0000 YYYZ=              0.0000 ZZZX=              0.0000
 ZZZY=              0.0000 XXYY=             -4.4330 XXZZ=            -23.4654 YYZZ=            -23.4654
 XXYZ=              0.0000 YYXZ=              0.0000 ZZXY=             -0.0000
 N-N= 5.210360230597D+01 E-N=-5.476732061100D+02  KE= 1.871271855775D+02
 Symmetry AG   KE= 1.009213197914D+02
 Symmetry B1G  KE= 2.034915972131D-33
 Symmetry B2G  KE= 4.899060363401D+00
 Symmetry B3G  KE= 4.899060363401D+00
 Symmetry AU   KE= 2.684854163681D-33
 Symmetry B1U  KE= 6.906298009167D+01
 Symmetry B2U  KE= 3.672382483781D+00
 Symmetry B3U  KE= 3.672382483781D+00
 Calling FoFJK, ICntrl=      2127 FMM=F ISym2X=1 I1Cent= 0 IOpClX= 0 NMat=1 NMatS=1 NMatT=0.
 ***** Axes restored to original set *****
 -------------------------------------------------------------------
 Center     Atomic                   Forces (Hartrees/Bohr)
 Number     Number              X              Y              Z
 -------------------------------------------------------------------
      1        6           0.000000000    0.000000000   -0.000000000
      2        8          -0.000000000   -0.000000000   -0.186914059
      3        8          -0.000000000   -0.000000000    0.186914059
 -------------------------------------------------------------------
 Cartesian Forces:  Max     0.186914059 RMS     0.088112133

 GradGradGradGradGradGradGradGradGradGradGradGradGradGradGradGradGradGrad
 Berny optimization.
 FormGI is forming the generalized inverse of G from B-inverse, IUseBI=4.
 Internal  Forces:  Max     0.186914059 RMS     0.132168199
 Search for a local minimum.
 Step number   1 out of a maximum of   20
 All quantities printed in internal units (Hartrees-Bohrs-Radians)
 Mixed Optimization -- RFO/linear search
 Second derivative matrix not updated -- first step.
 The second derivative matrix:
                          R1        R2        A1        A2
           R1           0.67193
           R2           0.00000   0.67193
           A1           0.00000   0.00000   0.03015
           A2           0.00000   0.00000   0.00000   0.03015
 ITU=  0
     Eigenvalues ---    0.03015   0.03015   0.67193   0.67193
 RFO step:  Lambda=-9.15231109D-02 EMin= 3.01458867D-02
 Linear search not attempted -- first point.
 Maximum step size (   0.300) exceeded in Quadratic search.
    -- Step size scaled by   0.866
 Iteration  1 RMS(Cart)=  0.14142136 RMS(Int)=  0.00857864
 Iteration  2 RMS(Cart)=  0.00857864 RMS(Int)=  0.00000000
 Iteration  3 RMS(Cart)=  0.00000000 RMS(Int)=  0.00000000
 ClnCor:  largest displacement from symmetrization is 1.22D-13 for atom     1.
 Variable       Old X    -DE/DX   Delta X   Delta X   Delta X     New X
                                 (Linear)    (Quad)   (Total)
    R1        2.45664  -0.18691   0.00000  -0.21213  -0.21213   2.24451
    R2        2.45664  -0.18691   0.00000  -0.21213  -0.21213   2.24451
    A1        3.14159   0.00000   0.00000   0.00000   0.00000   3.14159
    A2        3.14159  -0.00000   0.00000  -0.00000   0.00000   3.14159
         Item               Value     Threshold  Converged?
 Maximum Force            0.186914     0.000450     NO 
 RMS     Force            0.132168     0.000300     NO 
 Maximum Displacement     0.212132     0.001800     NO 
 RMS     Displacement     0.150000     0.001200     NO 
 Predicted change in Energy=-4.906401D-02
 GradGradGradGradGradGradGradGradGradGradGradGradGradGradGradGradGradGrad

                          Input orientation:                          
 ---------------------------------------------------------------------
 Center     Atomic      Atomic             Coordinates (Angstroms)
 Number     Number       Type             X           Y           Z
 ---------------------------------------------------------------------
      1          6           0        0.000000    0.000000   -0.000000
      2          8           0        0.000000    0.000000    1.187745
      3          8           0        0.000000    0.000000   -1.187745
 ---------------------------------------------------------------------
                    Distance matrix (angstroms):
                    1          2          3
     1  C    0.000000
     2  O    1.187745   0.000000
     3  O    1.187745   2.375489   0.000000
 Stoichiometry    CO2
 Framework group  D*H[O(C),C*(O.O)]
 Deg. of freedom     1
 Full point group                 D*H     NOp   8
 Largest Abelian subgroup         D2H     NOp   8
 Largest concise Abelian subgroup C2      NOp   2
                         Standard orientation:                         
 ---------------------------------------------------------------------
 Center     Atomic      Atomic             Coordinates (Angstroms)
 Number     Number       Type             X           Y           Z
 ---------------------------------------------------------------------
      1          6           0        0.000000    0.000000    0.000000
      2          8           0        0.000000    0.000000    1.187745
      3          8           0        0.000000    0.000000   -1.187745
 ---------------------------------------------------------------------
 Rotational constants (GHZ):           0.0000000          11.1984825          11.1984825
 Basis read from rwf:  (5D, 7F)
 There are    26 symmetry adapted cartesian basis functions of AG  symmetry.
 There are     5 symmetry adapted cartesian basis functions of B1G symmetry.
 There are    10 symmetry adapted cartesian basis functions of B2G symmetry.
 There are    10 symmetry adapted cartesian basis functions of B3G symmetry.
 There are     4 symmetry adapted cartesian basis functions of AU  symmetry.
 There are    22 symmetry adapted cartesian basis functions of B1U symmetry.
 There are    14 symmetry adapted cartesian basis functions of B2U symmetry.
 There are    14 symmetry adapted cartesian basis functions of B3U symmetry.
 There are    21 symmetry adapted basis functions of AG  symmetry.
 There are     5 symmetry adapted basis functions of B1G symmetry.
 There are     9 symmetry adapted basis functions of B2G symmetry.
 There are     9 symmetry adapted basis functions of B3G symmetry.
 There are     4 symmetry adapted basis functions of AU  symmetry.
 There are    18 symmetry adapted basis functions of B1U symmetry.
 There are    12 symmetry adapted basis functions of B2U symmetry.
 There are    12 symmetry adapted basis functions of B3U symmetry.
    90 basis functions,   153 primitive gaussians,   105 cartesian basis functions
    11 alpha electrons       11 beta electrons
       nuclear repulsion energy        57.0279883244 Hartrees.
 NAtoms=    3 NActive=    3 NUniq=    2 SFac= 2.25D+00 NAtFMM=   60 NAOKFM=F Big=F
 Integral buffers will be    131072 words long.
 Raffenetti 2 integral format.
 Two-electron integral symmetry is turned on.
 One-electron integrals computed using PRISM.
 NBasis=    90 RedAO= T EigKep=  1.05D-03  NBF=    21     5     9     9     4    18    12    12
 NBsUse=    90 1.00D-06 EigRej= -1.00D+00 NBFU=    21     5     9     9     4    18    12    12
 Initial guess from the checkpoint file:  "/wrk/irikura/Gau-17666.chk"
 B after Tr=    -0.000000    0.000000    0.000000
         Rot=    1.000000    0.000000    0.000000    0.000000 Ang=   0.00 deg.
 Initial guess orbital symmetries:
       Occupied  (SGU) (SGG) (SGG) (SGG) (SGU) (SGG) (SGU) (PIU)
                 (PIU) (PIG) (PIG)
       Virtual   (PIU) (PIU) (SGG) (SGU) (PIU) (PIU) (SGG) (SGG)
                 (SGU) (PIG) (PIG) (PIU) (PIU) (SGU) (SGG) (SGU)
                 (DLTG) (DLTG) (PIG) (PIG) (PIU) (PIU) (SGU) (DLTU)
                 (DLTU) (SGG) (DLTG) (DLTG) (PIU) (PIU) (SGG) (SGU)
                 (PIG) (PIG) (PIU) (PIU) (SGG) (PIG) (PIG) (SGG)
                 (SGU) (DLTU) (DLTU) (PHIU) (PHIU) (PIG) (PIG)
                 (PIU) (PIU) (SGG) (DLTG) (DLTG) (PHIG) (PHIG)
                 (PHIU) (PHIU) (DLTG) (DLTG) (SGU) (SGU) (DLTU)
                 (DLTU) (SGU) (PIG) (PIG) (SGG) (PIU) (PIU) (DLTU)
                 (DLTU) (DLTG) (DLTG) (SGG) (PIU) (PIU) (PIG) (PIG)
                 (SGU) (SGG)
 ExpMin= 8.49D-02 ExpMax= 1.36D+04 ExpMxC= 4.64D+02 IAcc=3 IRadAn=         5 AccDes= 0.00D+00
 Harris functional with IExCor=  402 and IRadAn=       5 diagonalized for initial guess.
 HarFok:  IExCor=  402 AccDes= 0.00D+00 IRadAn=         5 IDoV= 1 UseB2=F ITyADJ=14
 ICtDFT=  3500011 ScaDFX=  1.000000  1.000000  1.000000  1.000000
 FoFCou: FMM=F IPFlag=           0 FMFlag=      100000 FMFlg1=           0
         NFxFlg=           0 DoJE=T BraDBF=F KetDBF=T FulRan=T
         wScrn=  0.000000 ICntrl=       500 IOpCl=  0 I1Cent=   200000004 NGrid=           0
         NMat0=    1 NMatS0=      1 NMatT0=    0 NMatD0=    1 NMtDS0=    0 NMtDT0=    0
 Petite list used in FoFCou.
 Keep R1 ints in memory in symmetry-blocked form, NReq=10379136.
 Requested convergence on RMS density matrix=1.00D-08 within 128 cycles.
 Requested convergence on MAX density matrix=1.00D-06.
 Requested convergence on             energy=1.00D-06.
 No special actions if energy rises.
 Integral accuracy reduced to 1.0D-05 until final iterations.
 Initial convergence to 1.0D-05 achieved.  Increase integral accuracy.
 SCF Done:  E(RB3LYP) =  -188.664861607     A.U. after   10 cycles
            NFock= 10  Conv=0.21D-08     -V/T= 2.0042
 Calling FoFJK, ICntrl=      2127 FMM=F ISym2X=1 I1Cent= 0 IOpClX= 0 NMat=1 NMatS=1 NMatT=0.
 ***** Axes restored to original set *****
 -------------------------------------------------------------------
 Center     Atomic                   Forces (Hartrees/Bohr)
 Number     Number              X              Y              Z
 -------------------------------------------------------------------
      1        6           0.000000000    0.000000000   -0.000000000
      2        8          -0.000000000   -0.000000000   -0.055234721
      3        8          -0.000000000   -0.000000000    0.055234721
 -------------------------------------------------------------------
 Cartesian Forces:  Max     0.055234721 RMS     0.026037897

 GradGradGradGradGradGradGradGradGradGradGradGradGradGradGradGradGradGrad
 Berny optimization.
 Using GEDIIS/GDIIS optimizer.
 Internal  Forces:  Max     0.055234721 RMS     0.039056846
 Search for a local minimum.
 Step number   2 out of a maximum of   20
 All quantities printed in internal units (Hartrees-Bohrs-Radians)
 Mixed Optimization -- RFO/linear search
 Update second derivatives using D2CorX and points    1    2
 DE= -5.55D-02 DEPred=-4.91D-02 R= 1.13D+00
 TightC=F SS=  1.41D+00  RLast= 3.00D-01 DXNew= 5.0454D-01 9.0000D-01
 Trust test= 1.13D+00 RLast= 3.00D-01 DXMaxT set to 5.05D-01
 The second derivative matrix:
                          R1        R2        A1        A2
           R1           0.64634
           R2          -0.02559   0.64634
           A1           0.00000   0.00000   0.03015
           A2          -0.00000  -0.00000  -0.00000   0.03015
 ITU=  1  0
 Use linear search instead of GDIIS.
     Eigenvalues ---    0.03015   0.03015   0.62074   0.67193
 RFO step:  Lambda= 0.00000000D+00 EMin= 3.01458867D-02
 Quartic linear search produced a step of  0.25745.
 Iteration  1 RMS(Cart)=  0.03861820 RMS(Int)=  0.00000000
 Iteration  2 RMS(Cart)=  0.00000000 RMS(Int)=  0.00000000
 ClnCor:  largest displacement from symmetrization is 3.50D-13 for atom     1.
 Variable       Old X    -DE/DX   Delta X   Delta X   Delta X     New X
                                 (Linear)    (Quad)   (Total)
    R1        2.24451  -0.05523  -0.05461   0.00000  -0.05461   2.18990
    R2        2.24451  -0.05523  -0.05461  -0.00000  -0.05461   2.18990
    A1        3.14159   0.00000   0.00000   0.00000   0.00000   3.14159
    A2        3.14159  -0.00000   0.00000  -0.00000   0.00000   3.14159
         Item               Value     Threshold  Converged?
 Maximum Force            0.055235     0.000450     NO 
 RMS     Force            0.039057     0.000300     NO 
 Maximum Displacement     0.054614     0.001800     NO 
 RMS     Displacement     0.038618     0.001200     NO 
 Predicted change in Energy=-4.181713D-03
 GradGradGradGradGradGradGradGradGradGradGradGradGradGradGradGradGradGrad

                          Input orientation:                          
 ---------------------------------------------------------------------
 Center     Atomic      Atomic             Coordinates (Angstroms)
 Number     Number       Type             X           Y           Z
 ---------------------------------------------------------------------
      1          6           0        0.000000    0.000000   -0.000000
      2          8           0        0.000000    0.000000    1.158844
      3          8           0        0.000000    0.000000   -1.158844
 ---------------------------------------------------------------------
                    Distance matrix (angstroms):
                    1          2          3
     1  C    0.000000
     2  O    1.158844   0.000000
     3  O    1.158844   2.317688   0.000000
 Stoichiometry    CO2
 Framework group  D*H[O(C),C*(O.O)]
 Deg. of freedom     1
 Full point group                 D*H     NOp   8
 Largest Abelian subgroup         D2H     NOp   8
 Largest concise Abelian subgroup C2      NOp   2
                         Standard orientation:                         
 ---------------------------------------------------------------------
 Center     Atomic      Atomic             Coordinates (Angstroms)
 Number     Number       Type             X           Y           Z
 ---------------------------------------------------------------------
      1          6           0        0.000000    0.000000    0.000000
      2          8           0        0.000000    0.000000    1.158844
      3          8           0        0.000000    0.000000   -1.158844
 ---------------------------------------------------------------------
 Rotational constants (GHZ):           0.0000000          11.7640108          11.7640108
 Basis read from rwf:  (5D, 7F)
 There are    26 symmetry adapted cartesian basis functions of AG  symmetry.
 There are     5 symmetry adapted cartesian basis functions of B1G symmetry.
 There are    10 symmetry adapted cartesian basis functions of B2G symmetry.
 There are    10 symmetry adapted cartesian basis functions of B3G symmetry.
 There are     4 symmetry adapted cartesian basis functions of AU  symmetry.
 There are    22 symmetry adapted cartesian basis functions of B1U symmetry.
 There are    14 symmetry adapted cartesian basis functions of B2U symmetry.
 There are    14 symmetry adapted cartesian basis functions of B3U symmetry.
 There are    21 symmetry adapted basis functions of AG  symmetry.
 There are     5 symmetry adapted basis functions of B1G symmetry.
 There are     9 symmetry adapted basis functions of B2G symmetry.
 There are     9 symmetry adapted basis functions of B3G symmetry.
 There are     4 symmetry adapted basis functions of AU  symmetry.
 There are    18 symmetry adapted basis functions of B1U symmetry.
 There are    12 symmetry adapted basis functions of B2U symmetry.
 There are    12 symmetry adapted basis functions of B3U symmetry.
    90 basis functions,   153 primitive gaussians,   105 cartesian basis functions
    11 alpha electrons       11 beta electrons
       nuclear repulsion energy        58.4502229357 Hartrees.
 NAtoms=    3 NActive=    3 NUniq=    2 SFac= 2.25D+00 NAtFMM=   60 NAOKFM=F Big=F
 Integral buffers will be    131072 words long.
 Raffenetti 2 integral format.
 Two-electron integral symmetry is turned on.
 One-electron integrals computed using PRISM.
 NBasis=    90 RedAO= T EigKep=  9.38D-04  NBF=    21     5     9     9     4    18    12    12
 NBsUse=    90 1.00D-06 EigRej= -1.00D+00 NBFU=    21     5     9     9     4    18    12    12
 Initial guess from the checkpoint file:  "/wrk/irikura/Gau-17666.chk"
 B after Tr=    -0.000000    0.000000    0.000000
         Rot=    1.000000    0.000000    0.000000    0.000000 Ang=   0.00 deg.
 Initial guess orbital symmetries:
       Occupied  (SGU) (SGG) (SGG) (SGG) (SGU) (SGG) (SGU) (PIU)
                 (PIU) (PIG) (PIG)
       Virtual   (PIU) (PIU) (SGG) (SGU) (PIU) (PIU) (SGG) (SGG)
                 (SGU) (PIG) (PIG) (PIU) (PIU) (SGG) (SGU) (DLTG)
                 (DLTG) (SGU) (PIG) (PIG) (PIU) (PIU) (SGU) (DLTU)
                 (DLTU) (SGG) (DLTG) (DLTG) (PIU) (PIU) (SGG) (PIG)
                 (PIG) (SGU) (PIU) (PIU) (SGG) (SGG) (PIG) (PIG)
                 (SGU) (DLTU) (DLTU) (PHIU) (PHIU) (PIG) (PIG)
                 (DLTG) (DLTG) (PHIG) (PHIG) (SGG) (SGU) (PIU)
                 (PIU) (PHIU) (PHIU) (DLTG) (DLTG) (SGU) (SGG)
                 (DLTU) (DLTU) (PIU) (PIU) (SGU) (PIG) (PIG) (DLTU)
                 (DLTU) (DLTG) (DLTG) (PIU) (PIU) (SGG) (PIG) (PIG)
                 (SGU) (SGG)
 ExpMin= 8.49D-02 ExpMax= 1.36D+04 ExpMxC= 4.64D+02 IAcc=3 IRadAn=         5 AccDes= 0.00D+00
 Harris functional with IExCor=  402 and IRadAn=       5 diagonalized for initial guess.
 HarFok:  IExCor=  402 AccDes= 0.00D+00 IRadAn=         5 IDoV= 1 UseB2=F ITyADJ=14
 ICtDFT=  3500011 ScaDFX=  1.000000  1.000000  1.000000  1.000000
 FoFCou: FMM=F IPFlag=           0 FMFlag=      100000 FMFlg1=           0
         NFxFlg=           0 DoJE=T BraDBF=F KetDBF=T FulRan=T
         wScrn=  0.000000 ICntrl=       500 IOpCl=  0 I1Cent=   200000004 NGrid=           0
         NMat0=    1 NMatS0=      1 NMatT0=    0 NMatD0=    1 NMtDS0=    0 NMtDT0=    0
 Petite list used in FoFCou.
 Keep R1 ints in memory in symmetry-blocked form, NReq=10379248.
 Requested convergence on RMS density matrix=1.00D-08 within 128 cycles.
 Requested convergence on MAX density matrix=1.00D-06.
 Requested convergence on             energy=1.00D-06.
 No special actions if energy rises.
 Integral accuracy reduced to 1.0D-05 until final iterations.
 Initial convergence to 1.0D-05 achieved.  Increase integral accuracy.
 SCF Done:  E(RB3LYP) =  -188.667915395     A.U. after    9 cycles
            NFock=  9  Conv=0.81D-09     -V/T= 2.0028
 Calling FoFJK, ICntrl=      2127 FMM=F ISym2X=1 I1Cent= 0 IOpClX= 0 NMat=1 NMatS=1 NMatT=0.
 ***** Axes restored to original set *****
 -------------------------------------------------------------------
 Center     Atomic                   Forces (Hartrees/Bohr)
 Number     Number              X              Y              Z
 -------------------------------------------------------------------
      1        6           0.000000000    0.000000000   -0.000000000
      2        8          -0.000000000   -0.000000000    0.001250398
      3        8          -0.000000000   -0.000000000   -0.001250398
 -------------------------------------------------------------------
 Cartesian Forces:  Max     0.001250398 RMS     0.000589443

 GradGradGradGradGradGradGradGradGradGradGradGradGradGradGradGradGradGrad
 Berny optimization.
 Using GEDIIS/GDIIS optimizer.
 Internal  Forces:  Max     0.001250398 RMS     0.000884165
 Search for a local minimum.
 Step number   3 out of a maximum of   20
 All quantities printed in internal units (Hartrees-Bohrs-Radians)
 Mixed Optimization -- En-DIIS/RFO-DIIS
 Update second derivatives using D2CorX and points    1    2    3
 DE= -3.05D-03 DEPred=-4.18D-03 R= 7.30D-01
 TightC=F SS=  1.41D+00  RLast= 7.72D-02 DXNew= 8.4853D-01 2.3171D-01
 Trust test= 7.30D-01 RLast= 7.72D-02 DXMaxT set to 5.05D-01
 The second derivative matrix:
                          R1        R2        A1        A2
           R1           0.85309
           R2           0.18116   0.85309
           A1           0.00000   0.00000   0.03015
           A2          -0.00000  -0.00000  -0.00000   0.03015
 ITU=  1  1  0
 Use linear search instead of GDIIS.
     Eigenvalues ---    0.03015   0.03015   0.67193   1.03425
 RFO step:  Lambda= 0.00000000D+00 EMin= 3.01458867D-02
 Quartic linear search produced a step of -0.02008.
 Iteration  1 RMS(Cart)=  0.00077565 RMS(Int)=  0.00000000
 Iteration  2 RMS(Cart)=  0.00000000 RMS(Int)=  0.00000000
 ClnCor:  largest displacement from symmetrization is 3.45D-13 for atom     1.
 Variable       Old X    -DE/DX   Delta X   Delta X   Delta X     New X
                                 (Linear)    (Quad)   (Total)
    R1        2.18990   0.00125   0.00110  -0.00000   0.00110   2.19099
    R2        2.18990   0.00125   0.00110   0.00000   0.00110   2.19099
    A1        3.14159   0.00000   0.00000   0.00000   0.00000   3.14159
    A2        3.14159  -0.00000   0.00000  -0.00000   0.00000   3.14159
         Item               Value     Threshold  Converged?
 Maximum Force            0.001250     0.000450     NO 
 RMS     Force            0.000884     0.000300     NO 
 Maximum Displacement     0.001097     0.001800     YES
 RMS     Displacement     0.000776     0.001200     YES
 Predicted change in Energy=-1.498727D-06
 GradGradGradGradGradGradGradGradGradGradGradGradGradGradGradGradGradGrad

                          Input orientation:                          
 ---------------------------------------------------------------------
 Center     Atomic      Atomic             Coordinates (Angstroms)
 Number     Number       Type             X           Y           Z
 ---------------------------------------------------------------------
      1          6           0        0.000000    0.000000   -0.000000
      2          8           0        0.000000    0.000000    1.159424
      3          8           0        0.000000    0.000000   -1.159424
 ---------------------------------------------------------------------
                    Distance matrix (angstroms):
                    1          2          3
     1  C    0.000000
     2  O    1.159424   0.000000
     3  O    1.159424   2.318849   0.000000
 Stoichiometry    CO2
 Framework group  D*H[O(C),C*(O.O)]
 Deg. of freedom     1
 Full point group                 D*H     NOp   8
 Largest Abelian subgroup         D2H     NOp   8
 Largest concise Abelian subgroup C2      NOp   2
                         Standard orientation:                         
 ---------------------------------------------------------------------
 Center     Atomic      Atomic             Coordinates (Angstroms)
 Number     Number       Type             X           Y           Z
 ---------------------------------------------------------------------
      1          6           0        0.000000    0.000000    0.000000
      2          8           0        0.000000    0.000000    1.159424
      3          8           0        0.000000    0.000000   -1.159424
 ---------------------------------------------------------------------
 Rotational constants (GHZ):           0.0000000          11.7522344          11.7522344
 Basis read from rwf:  (5D, 7F)
 There are    26 symmetry adapted cartesian basis functions of AG  symmetry.
 There are     5 symmetry adapted cartesian basis functions of B1G symmetry.
 There are    10 symmetry adapted cartesian basis functions of B2G symmetry.
 There are    10 symmetry adapted cartesian basis functions of B3G symmetry.
 There are     4 symmetry adapted cartesian basis functions of AU  symmetry.
 There are    22 symmetry adapted cartesian basis functions of B1U symmetry.
 There are    14 symmetry adapted cartesian basis functions of B2U symmetry.
 There are    14 symmetry adapted cartesian basis functions of B3U symmetry.
 There are    21 symmetry adapted basis functions of AG  symmetry.
 There are     5 symmetry adapted basis functions of B1G symmetry.
 There are     9 symmetry adapted basis functions of B2G symmetry.
 There are     9 symmetry adapted basis functions of B3G symmetry.
 There are     4 symmetry adapted basis functions of AU  symmetry.
 There are    18 symmetry adapted basis functions of B1U symmetry.
 There are    12 symmetry adapted basis functions of B2U symmetry.
 There are    12 symmetry adapted basis functions of B3U symmetry.
    90 basis functions,   153 primitive gaussians,   105 cartesian basis functions
    11 alpha electrons       11 beta electrons
       nuclear repulsion energy        58.4209596398 Hartrees.
 NAtoms=    3 NActive=    3 NUniq=    2 SFac= 2.25D+00 NAtFMM=   60 NAOKFM=F Big=F
 Integral buffers will be    131072 words long.
 Raffenetti 2 integral format.
 Two-electron integral symmetry is turned on.
 One-electron integrals computed using PRISM.
 NBasis=    90 RedAO= T EigKep=  9.40D-04  NBF=    21     5     9     9     4    18    12    12
 NBsUse=    90 1.00D-06 EigRej= -1.00D+00 NBFU=    21     5     9     9     4    18    12    12
 Initial guess from the checkpoint file:  "/wrk/irikura/Gau-17666.chk"
 B after Tr=     0.000000    0.000000    0.000000
         Rot=    1.000000    0.000000    0.000000    0.000000 Ang=   0.00 deg.
 Initial guess orbital symmetries:
       Occupied  (SGU) (SGG) (SGG) (SGG) (SGU) (SGG) (SGU) (PIU)
                 (PIU) (PIG) (PIG)
       Virtual   (SGG) (PIU) (PIU) (SGU) (PIU) (PIU) (SGG) (SGG)
                 (SGU) (PIG) (PIG) (PIU) (PIU) (SGG) (SGU) (DLTG)
                 (DLTG) (SGU) (PIG) (PIG) (PIU) (PIU) (SGU) (DLTU)
                 (DLTU) (SGG) (DLTG) (DLTG) (PIU) (PIU) (SGG) (PIG)
                 (PIG) (SGU) (PIU) (PIU) (SGG) (PIG) (PIG) (SGG)
                 (SGU) (PHIU) (PHIU) (DLTU) (DLTU) (PIG) (PIG)
                 (DLTG) (DLTG) (SGU) (PHIG) (PHIG) (SGG) (PIU)
                 (PIU) (PHIU) (PHIU) (DLTG) (DLTG) (SGG) (SGU)
                 (DLTU) (DLTU) (PIU) (PIU) (PIG) (PIG) (SGU) (DLTU)
                 (DLTU) (DLTG) (DLTG) (PIU) (PIU) (SGG) (PIG) (PIG)
                 (SGU) (SGG)
 Keep R1 ints in memory in symmetry-blocked form, NReq=10379248.
 Requested convergence on RMS density matrix=1.00D-08 within 128 cycles.
 Requested convergence on MAX density matrix=1.00D-06.
 Requested convergence on             energy=1.00D-06.
 No special actions if energy rises.
 SCF Done:  E(RB3LYP) =  -188.667916765     A.U. after    6 cycles
            NFock=  6  Conv=0.15D-08     -V/T= 2.0028
 Calling FoFJK, ICntrl=      2127 FMM=F ISym2X=1 I1Cent= 0 IOpClX= 0 NMat=1 NMatS=1 NMatT=0.
 ***** Axes restored to original set *****
 -------------------------------------------------------------------
 Center     Atomic                   Forces (Hartrees/Bohr)
 Number     Number              X              Y              Z
 -------------------------------------------------------------------
      1        6           0.000000000    0.000000000   -0.000000000
      2        8          -0.000000000   -0.000000000   -0.000001107
      3        8          -0.000000000   -0.000000000    0.000001107
 -------------------------------------------------------------------
 Cartesian Forces:  Max     0.000001107 RMS     0.000000522

 GradGradGradGradGradGradGradGradGradGradGradGradGradGradGradGradGradGrad
 Berny optimization.
 Using GEDIIS/GDIIS optimizer.
 Internal  Forces:  Max     0.000001107 RMS     0.000000783
 Search for a local minimum.
 Step number   4 out of a maximum of   20
 All quantities printed in internal units (Hartrees-Bohrs-Radians)
 Mixed Optimization -- En-DIIS/RFO-DIIS
 Swapping is turned off.
 Update second derivatives using D2CorX and points    1    2    3    4
 DE= -1.37D-06 DEPred=-1.50D-06 R= 9.14D-01
 TightC=F SS=  1.41D+00  RLast= 1.55D-03 DXNew= 8.4853D-01 4.6539D-03
 Trust test= 9.14D-01 RLast= 1.55D-03 DXMaxT set to 5.05D-01
 The second derivative matrix:
                          R1        R2        A1        A2
           R1           0.90642
           R2           0.23449   0.90642
           A1           0.00000   0.00000   0.03015
           A2          -0.00000  -0.00000  -0.00000   0.03015
 ITU=  1  1  1  0
     Eigenvalues ---    0.03015   0.03015   0.67193   1.14092
 En-DIIS/RFO-DIIS/Sim-DIIS IScMMF=       -3 using points:     4    3
 RFO step:  Lambda=-2.11221262D-12.
 DidBck=F Rises=F RFO-DIIS coefs:    0.99912    0.00088
 Iteration  1 RMS(Cart)=  0.00000069 RMS(Int)=  0.00000000
 ClnCor:  largest displacement from symmetrization is 2.60D-13 for atom     1.
 Variable       Old X    -DE/DX   Delta X   Delta X   Delta X     New X
                                 (Linear)    (Quad)   (Total)
    R1        2.19099  -0.00000  -0.00000  -0.00000  -0.00000   2.19099
    R2        2.19099  -0.00000  -0.00000   0.00000  -0.00000   2.19099
    A1        3.14159   0.00000  -0.00000   0.00000   0.00000   3.14159
    A2        3.14159  -0.00000  -0.00000  -0.00000   0.00000   3.14159
         Item               Value     Threshold  Converged?
 Maximum Force            0.000001     0.000450     YES
 RMS     Force            0.000001     0.000300     YES
 Maximum Displacement     0.000001     0.001800     YES
 RMS     Displacement     0.000001     0.001200     YES
 Predicted change in Energy=-1.074484D-12
 Optimization completed.
    -- Stationary point found.
                           ----------------------------
                           !   Optimized Parameters   !
                           ! (Angstroms and Degrees)  !
 --------------------------                            --------------------------
 ! Name  Definition              Value          Derivative Info.                !
 --------------------------------------------------------------------------------
 ! R1    R(1,2)                  1.1594         -DE/DX =    0.0                 !
 ! R2    R(1,3)                  1.1594         -DE/DX =    0.0                 !
 ! A1    L(2,1,3,-1,-1)        180.0            -DE/DX =    0.0                 !
 ! A2    L(2,1,3,-2,-2)        180.0            -DE/DX =    0.0                 !
 --------------------------------------------------------------------------------
 GradGradGradGradGradGradGradGradGradGradGradGradGradGradGradGradGradGrad

                          Input orientation:                          
 ---------------------------------------------------------------------
 Center     Atomic      Atomic             Coordinates (Angstroms)
 Number     Number       Type             X           Y           Z
 ---------------------------------------------------------------------
      1          6           0        0.000000    0.000000    0.000000
      2          8           0        0.000000    0.000000    1.159424
      3          8           0        0.000000    0.000000   -1.159424
 ---------------------------------------------------------------------
                    Distance matrix (angstroms):
                    1          2          3
     1  C    0.000000
     2  O    1.159424   0.000000
     3  O    1.159424   2.318849   0.000000
 Stoichiometry    CO2
 Framework group  D*H[O(C),C*(O.O)]
 Deg. of freedom     1
 Full point group                 D*H     NOp   8
 Largest Abelian subgroup         D2H     NOp   8
 Largest concise Abelian subgroup C2      NOp   2
                         Standard orientation:                         
 ---------------------------------------------------------------------
 Center     Atomic      Atomic             Coordinates (Angstroms)
 Number     Number       Type             X           Y           Z
 ---------------------------------------------------------------------
      1          6           0        0.000000    0.000000    0.000000
      2          8           0        0.000000    0.000000    1.159424
      3          8           0        0.000000    0.000000   -1.159424
 ---------------------------------------------------------------------
 Rotational constants (GHZ):           0.0000000          11.7522344          11.7522344

 **********************************************************************

            Population analysis using the SCF Density.

 **********************************************************************

 Orbital symmetries:
       Occupied  (SGU) (SGG) (SGG) (SGG) (SGU) (SGG) (SGU) (PIU)
                 (PIU) (PIG) (PIG)
       Virtual   (SGG) (PIU) (PIU) (SGU) (PIU) (PIU) (SGG) (SGG)
                 (SGU) (PIG) (PIG) (PIU) (PIU) (SGG) (SGU) (DLTG)
                 (DLTG) (SGU) (PIG) (PIG) (PIU) (PIU) (SGU) (DLTU)
                 (DLTU) (SGG) (DLTG) (DLTG) (PIU) (PIU) (SGG) (PIG)
                 (PIG) (SGU) (PIU) (PIU) (SGG) (PIG) (PIG) (SGG)
                 (SGU) (PHIU) (PHIU) (DLTU) (DLTU) (PIG) (PIG)
                 (DLTG) (DLTG) (SGU) (PHIG) (PHIG) (SGG) (PIU)
                 (PIU) (PHIU) (PHIU) (DLTG) (DLTG) (SGG) (SGU)
                 (DLTU) (DLTU) (PIU) (PIU) (PIG) (PIG) (SGU) (DLTU)
                 (DLTU) (DLTG) (DLTG) (PIU) (PIU) (SGG) (PIG) (PIG)
                 (SGU) (SGG)
 The electronic state is 1-SGG.
 Alpha  occ. eigenvalues --  -19.21249 -19.21247 -10.36803  -1.17262  -1.13320
 Alpha  occ. eigenvalues --   -0.57329  -0.53180  -0.52922  -0.52922  -0.38477
 Alpha  occ. eigenvalues --   -0.38477
 Alpha virt. eigenvalues --    0.00922   0.02137   0.02137   0.13149   0.14031
 Alpha virt. eigenvalues --    0.14031   0.28063   0.30370   0.36204   0.36311
 Alpha virt. eigenvalues --    0.36311   0.49354   0.49354   0.71505   0.72186
 Alpha virt. eigenvalues --    0.80298   0.80298   0.91813   1.11538   1.11538
 Alpha virt. eigenvalues --    1.12322   1.12322   1.24618   1.39456   1.39456
 Alpha virt. eigenvalues --    1.48539   1.66719   1.66719   1.87446   1.87446
 Alpha virt. eigenvalues --    1.95913   2.05009   2.05009   2.16982   2.37621
 Alpha virt. eigenvalues --    2.37621   2.60557   2.94077   2.94077   2.95600
 Alpha virt. eigenvalues --    3.06084   3.15386   3.15386   3.18559   3.18559
 Alpha virt. eigenvalues --    3.52108   3.52108   3.79192   3.79192   3.88903
 Alpha virt. eigenvalues --    3.91495   3.91495   3.94840   4.02218   4.02218
 Alpha virt. eigenvalues --    4.06282   4.06282   4.20833   4.20833   4.64007
 Alpha virt. eigenvalues --    4.79000   5.08055   5.08055   5.15302   5.15302
 Alpha virt. eigenvalues --    5.54175   5.54175   5.57566   5.97170   5.97170
 Alpha virt. eigenvalues --    6.03904   6.03904   6.47805   6.47805   6.70172
 Alpha virt. eigenvalues --    6.89114   6.89114   7.61807   9.02053
          Condensed to atoms (all electrons):
               1          2          3
     1  C    4.170915   0.616994   0.616994
     2  O    0.616994   7.731280  -0.050725
     3  O    0.616994  -0.050725   7.731280
 Mulliken charges:
               1
     1  C    0.595096
     2  O   -0.297548
     3  O   -0.297548
 Sum of Mulliken charges =   0.00000
 Mulliken charges with hydrogens summed into heavy atoms:
               1
     1  C    0.595096
     2  O   -0.297548
     3  O   -0.297548
 Electronic spatial extent (au):  <R**2>=            113.4134
 Charge=             -0.0000 electrons
 Dipole moment (field-independent basis, Debye):
    X=             -0.0000    Y=              0.0000    Z=              0.0000  Tot=              0.0000
 Quadrupole moment (field-independent basis, Debye-Ang):
   XX=            -14.8398   YY=            -14.8398   ZZ=            -19.5570
   XY=              0.0000   XZ=              0.0000   YZ=              0.0000
 Traceless Quadrupole moment (field-independent basis, Debye-Ang):
   XX=              1.5724   YY=              1.5724   ZZ=             -3.1448
   XY=              0.0000   XZ=              0.0000   YZ=              0.0000
 Octapole moment (field-independent basis, Debye-Ang**2):
  XXX=             -0.0000  YYY=              0.0000  ZZZ=             -0.0000  XYY=             -0.0000
  XXY=              0.0000  XXZ=              0.0000  XZZ=             -0.0000  YZZ=              0.0000
  YYZ=             -0.0000  XYZ=             -0.0000
 Hexadecapole moment (field-independent basis, Debye-Ang**3):
 XXXX=            -12.0508 YYYY=            -12.0508 ZZZZ=           -104.7935 XXXY=              0.0000
 XXXZ=              0.0000 YYYX=              0.0000 YYYZ=              0.0000 ZZZX=              0.0000
 ZZZY=              0.0000 XXYY=             -4.0169 XXZZ=            -19.1396 YYZZ=            -19.1396
 XXYZ=              0.0000 YYXZ=              0.0000 ZZXY=             -0.0000
 N-N= 5.842095963984D+01 E-N=-5.611387816700D+02  KE= 1.881403690622D+02
 Symmetry AG   KE= 1.013745274230D+02
 Symmetry B1G  KE= 3.598418983726D-33
 Symmetry B2G  KE= 4.956924078905D+00
 Symmetry B3G  KE= 4.956924078905D+00
 Symmetry AU   KE= 7.013407495998D-33
 Symmetry B1U  KE= 6.946068915563D+01
 Symmetry B2U  KE= 3.695652162880D+00
 Symmetry B3U  KE= 3.695652162880D+00
 1\1\GINC-GAMBA\FOpt\RB3LYP\Gen\C1O2\IRIKURA\01-Feb-2022\0\\# b3lyp/gen
  opt freq\\CO2, B3LYP/pcseg-2\\0,1\C,0.,0.,0.\O,0.,0.,1.1594243473\O,0
 .,0.,-1.1594243473\\Version=ES64L-G16RevB.01\State=1-SGG\HF=-188.66791
 68\RMSD=1.513e-09\RMSF=5.219e-07\Dipole=0.,0.,0.\Quadrupole=1.1690337,
 1.1690337,-2.3380673,0.,0.,0.\PG=D*H [O(C1),C*(O1.O1)]\\@


 A COMPUTER IS LIKE A HORSE, IT WILL SENSE WEAKNESS.
     -- GREG WETTSTEIN
 Job cpu time:       0 days  0 hours  0 minutes 17.3 seconds.
 Elapsed time:       0 days  0 hours  0 minutes 16.9 seconds.
 File lengths (MBytes):  RWF=     10 Int=      0 D2E=      0 Chk=      2 Scr=      1
 Normal termination of Gaussian 16 at Tue Feb  1 13:41:24 2022.
 Link1:  Proceeding to internal job step number  2.
 ------------------------------------------------------------------
 #N Geom=AllCheck Guess=TCheck SCRF=Check GenChk RB3LYP/ChkBas Freq
 ------------------------------------------------------------------
 1/10=4,29=7,30=1,38=1,40=1/1,3;
 2/12=2,40=1/2;
 3/5=7,6=2,11=2,14=-4,25=1,30=1,67=1,70=2,71=2,74=-5,82=7,116=1,140=1/1,2,3;
 4/5=101/1;
 5/5=2,38=6,98=1/2;
 8/6=4,10=90,11=11/1;
 11/6=1,8=1,9=11,15=111,16=1/1,2,10;
 10/6=1/2;
 6/7=2,8=2,9=2,10=2,28=1/1;
 7/8=1,10=1,25=1/1,2,3,16;
 1/10=4,30=1/3;
 99//99;
 Structure from the checkpoint file:  "/wrk/irikura/Gau-17666.chk"
 ------------------
 CO2, B3LYP/pcseg-2
 ------------------
 Charge =  0 Multiplicity = 1
 Redundant internal coordinates found in file.  (old form).
 C,0,0.,0.,0.
 O,0,0.,0.,1.1594243473
 O,0,0.,0.,-1.1594243473
 Recover connectivity data from disk.

 GradGradGradGradGradGradGradGradGradGradGradGradGradGradGradGradGradGrad
 Berny optimization.
 Initialization pass.
                           ----------------------------
                           !    Initial Parameters    !
                           ! (Angstroms and Degrees)  !
 --------------------------                            --------------------------
 ! Name  Definition              Value          Derivative Info.                !
 --------------------------------------------------------------------------------
 ! R1    R(1,2)                  1.1594         calculate D2E/DX2 analytically  !
 ! R2    R(1,3)                  1.1594         calculate D2E/DX2 analytically  !
 ! A1    L(2,1,3,-1,-1)        180.0            calculate D2E/DX2 analytically  !
 ! A2    L(2,1,3,-2,-2)        180.0            calculate D2E/DX2 analytically  !
 --------------------------------------------------------------------------------
 Trust Radius=3.00D-01 FncErr=1.00D-07 GrdErr=1.00D-07 EigMax=2.50D+02 EigMin=1.00D-04
 Number of steps in this run=      2 maximum allowed number of steps=      2.
 GradGradGradGradGradGradGradGradGradGradGradGradGradGradGradGradGradGrad

                          Input orientation:                          
 ---------------------------------------------------------------------
 Center     Atomic      Atomic             Coordinates (Angstroms)
 Number     Number       Type             X           Y           Z
 ---------------------------------------------------------------------
      1          6           0        0.000000    0.000000    0.000000
      2          8           0        0.000000    0.000000    1.159424
      3          8           0        0.000000    0.000000   -1.159424
 ---------------------------------------------------------------------
                    Distance matrix (angstroms):
                    1          2          3
     1  C    0.000000
     2  O    1.159424   0.000000
     3  O    1.159424   2.318849   0.000000
 Stoichiometry    CO2
 Framework group  D*H[O(C),C*(O.O)]
 Deg. of freedom     1
 Full point group                 D*H     NOp   8
 Largest Abelian subgroup         D2H     NOp   8
 Largest concise Abelian subgroup C2      NOp   2
                         Standard orientation:                         
 ---------------------------------------------------------------------
 Center     Atomic      Atomic             Coordinates (Angstroms)
 Number     Number       Type             X           Y           Z
 ---------------------------------------------------------------------
      1          6           0        0.000000    0.000000    0.000000
      2          8           0        0.000000    0.000000    1.159424
      3          8           0        0.000000    0.000000   -1.159424
 ---------------------------------------------------------------------
 Rotational constants (GHZ):           0.0000000          11.7522344          11.7522344
 Basis read from chk: "/wrk/irikura/Gau-17666.chk" (5D, 7F)
 There are    26 symmetry adapted cartesian basis functions of AG  symmetry.
 There are     5 symmetry adapted cartesian basis functions of B1G symmetry.
 There are    10 symmetry adapted cartesian basis functions of B2G symmetry.
 There are    10 symmetry adapted cartesian basis functions of B3G symmetry.
 There are     4 symmetry adapted cartesian basis functions of AU  symmetry.
 There are    22 symmetry adapted cartesian basis functions of B1U symmetry.
 There are    14 symmetry adapted cartesian basis functions of B2U symmetry.
 There are    14 symmetry adapted cartesian basis functions of B3U symmetry.
 There are    21 symmetry adapted basis functions of AG  symmetry.
 There are     5 symmetry adapted basis functions of B1G symmetry.
 There are     9 symmetry adapted basis functions of B2G symmetry.
 There are     9 symmetry adapted basis functions of B3G symmetry.
 There are     4 symmetry adapted basis functions of AU  symmetry.
 There are    18 symmetry adapted basis functions of B1U symmetry.
 There are    12 symmetry adapted basis functions of B2U symmetry.
 There are    12 symmetry adapted basis functions of B3U symmetry.
    90 basis functions,   153 primitive gaussians,   105 cartesian basis functions
    11 alpha electrons       11 beta electrons
       nuclear repulsion energy        58.4209596398 Hartrees.
 NAtoms=    3 NActive=    3 NUniq=    2 SFac= 2.25D+00 NAtFMM=   60 NAOKFM=F Big=F
 Integral buffers will be    131072 words long.
 Raffenetti 2 integral format.
 Two-electron integral symmetry is turned on.
 One-electron integrals computed using PRISM.
 NBasis=    90 RedAO= T EigKep=  9.40D-04  NBF=    21     5     9     9     4    18    12    12
 NBsUse=    90 1.00D-06 EigRej= -1.00D+00 NBFU=    21     5     9     9     4    18    12    12
 Initial guess from the checkpoint file:  "/wrk/irikura/Gau-17666.chk"
 B after Tr=     0.000000    0.000000    0.000000
         Rot=    1.000000    0.000000    0.000000    0.000000 Ang=   0.00 deg.
 Initial guess orbital symmetries:
       Occupied  (SGU) (SGG) (SGG) (SGG) (SGU) (SGG) (SGU) (PIU)
                 (PIU) (PIG) (PIG)
       Virtual   (SGG) (PIU) (PIU) (SGU) (PIU) (PIU) (SGG) (SGG)
                 (SGU) (PIG) (PIG) (PIU) (PIU) (SGG) (SGU) (DLTG)
                 (DLTG) (SGU) (PIG) (PIG) (PIU) (PIU) (SGU) (DLTU)
                 (DLTU) (SGG) (DLTG) (DLTG) (PIU) (PIU) (SGG) (PIG)
                 (PIG) (SGU) (PIU) (PIU) (SGG) (PIG) (PIG) (SGG)
                 (SGU) (PHIU) (PHIU) (DLTU) (DLTU) (PIG) (PIG)
                 (DLTG) (DLTG) (SGU) (PHIG) (PHIG) (SGG) (PIU)
                 (PIU) (PHIU) (PHIU) (DLTG) (DLTG) (SGG) (SGU)
                 (DLTU) (DLTU) (PIU) (PIU) (PIG) (PIG) (SGU) (DLTU)
                 (DLTU) (DLTG) (DLTG) (PIU) (PIU) (SGG) (PIG) (PIG)
                 (SGU) (SGG)
 Keep R1 ints in memory in symmetry-blocked form, NReq=10379248.
 Requested convergence on RMS density matrix=1.00D-08 within 128 cycles.
 Requested convergence on MAX density matrix=1.00D-06.
 Requested convergence on             energy=1.00D-06.
 No special actions if energy rises.
 SCF Done:  E(RB3LYP) =  -188.667916765     A.U. after    1 cycles
            NFock=  1  Conv=0.29D-09     -V/T= 2.0028
 DoSCS=F DFT=T ScalE2(SS,OS)=  1.000000  1.000000
 Range of M.O.s used for correlation:     1    90
 NBasis=    90 NAE=    11 NBE=    11 NFC=     0 NFV=     0
 NROrb=     90 NOA=    11 NOB=    11 NVA=    79 NVB=    79

 **** Warning!!: The largest alpha MO coefficient is  0.16305317D+02

 Symmetrizing basis deriv contribution to polar:
 IMax=3 JMax=2 DiffMx= 0.00D+00
 G2DrvN: will do     4 centers at a time, making    1 passes.
 Calling FoFCou, ICntrl=  3107 FMM=F I1Cent=   0 AccDes= 0.00D+00.
 End of G2Drv F.D. properties file   721 does not exist.
 End of G2Drv F.D. properties file   722 does not exist.
 End of G2Drv F.D. properties file   788 does not exist.
          IDoAtm=111
          Differentiating once with respect to electric field.
                with respect to dipole field.
          Differentiating once with respect to nuclear coordinates.
 Keep R1 ints in memory in symmetry-blocked form, NReq=10380701.
          There are     9 degrees of freedom in the 1st order CPHF.  IDoFFX=4 NUNeed=     9.
      9 vectors produced by pass  0 Test12= 9.66D-15 1.11D-08 XBig12= 2.57D+01 3.33D+00.
 AX will form     9 AO Fock derivatives at one time.
      9 vectors produced by pass  1 Test12= 9.66D-15 1.11D-08 XBig12= 1.41D+01 1.73D+00.
      9 vectors produced by pass  2 Test12= 9.66D-15 1.11D-08 XBig12= 6.92D-02 7.67D-02.
      9 vectors produced by pass  3 Test12= 9.66D-15 1.11D-08 XBig12= 3.44D-04 7.30D-03.
      9 vectors produced by pass  4 Test12= 9.66D-15 1.11D-08 XBig12= 1.06D-06 3.11D-04.
      7 vectors produced by pass  5 Test12= 9.66D-15 1.11D-08 XBig12= 1.67D-09 1.53D-05.
      6 vectors produced by pass  6 Test12= 9.66D-15 1.11D-08 XBig12= 6.84D-12 8.81D-07.
      1 vectors produced by pass  7 Test12= 9.66D-15 1.11D-08 XBig12= 1.10D-13 1.05D-07.
 InvSVY:  IOpt=1 It=  1 EMax= 8.88D-16
 Solved reduced A of dimension    59 with     9 vectors.
 Isotropic polarizability for W=    0.000000       15.11 Bohr**3.
 End of Minotr F.D. properties file   721 does not exist.
 End of Minotr F.D. properties file   722 does not exist.
 End of Minotr F.D. properties file   788 does not exist.

 **********************************************************************

            Population analysis using the SCF Density.

 **********************************************************************

 Orbital symmetries:
       Occupied  (SGU) (SGG) (SGG) (SGG) (SGU) (SGG) (SGU) (PIU)
                 (PIU) (PIG) (PIG)
       Virtual   (SGG) (PIU) (PIU) (SGU) (PIU) (PIU) (SGG) (SGG)
                 (SGU) (PIG) (PIG) (PIU) (PIU) (SGG) (SGU) (DLTG)
                 (DLTG) (SGU) (PIG) (PIG) (PIU) (PIU) (SGU) (DLTU)
                 (DLTU) (SGG) (DLTG) (DLTG) (PIU) (PIU) (SGG) (PIG)
                 (PIG) (SGU) (PIU) (PIU) (SGG) (PIG) (PIG) (SGG)
                 (SGU) (PHIU) (PHIU) (DLTU) (DLTU) (PIG) (PIG)
                 (DLTG) (DLTG) (SGU) (PHIG) (PHIG) (SGG) (PIU)
                 (PIU) (PHIU) (PHIU) (DLTG) (DLTG) (SGG) (SGU)
                 (DLTU) (DLTU) (PIU) (PIU) (PIG) (PIG) (SGU) (DLTU)
                 (DLTU) (DLTG) (DLTG) (PIU) (PIU) (SGG) (PIG) (PIG)
                 (SGU) (SGG)
 The electronic state is 1-SGG.
 Alpha  occ. eigenvalues --  -19.21249 -19.21247 -10.36803  -1.17262  -1.13320
 Alpha  occ. eigenvalues --   -0.57329  -0.53180  -0.52922  -0.52922  -0.38477
 Alpha  occ. eigenvalues --   -0.38477
 Alpha virt. eigenvalues --    0.00922   0.02137   0.02137   0.13149   0.14031
 Alpha virt. eigenvalues --    0.14031   0.28063   0.30370   0.36204   0.36311
 Alpha virt. eigenvalues --    0.36311   0.49354   0.49354   0.71505   0.72186
 Alpha virt. eigenvalues --    0.80298   0.80298   0.91813   1.11538   1.11538
 Alpha virt. eigenvalues --    1.12322   1.12322   1.24618   1.39456   1.39456
 Alpha virt. eigenvalues --    1.48539   1.66719   1.66719   1.87446   1.87446
 Alpha virt. eigenvalues --    1.95913   2.05009   2.05009   2.16982   2.37621
 Alpha virt. eigenvalues --    2.37621   2.60557   2.94077   2.94077   2.95600
 Alpha virt. eigenvalues --    3.06084   3.15386   3.15386   3.18559   3.18559
 Alpha virt. eigenvalues --    3.52108   3.52108   3.79192   3.79192   3.88903
 Alpha virt. eigenvalues --    3.91495   3.91495   3.94840   4.02218   4.02218
 Alpha virt. eigenvalues --    4.06282   4.06282   4.20833   4.20833   4.64007
 Alpha virt. eigenvalues --    4.79000   5.08055   5.08055   5.15302   5.15302
 Alpha virt. eigenvalues --    5.54175   5.54175   5.57566   5.97170   5.97170
 Alpha virt. eigenvalues --    6.03904   6.03904   6.47805   6.47805   6.70172
 Alpha virt. eigenvalues --    6.89114   6.89114   7.61807   9.02053
          Condensed to atoms (all electrons):
               1          2          3
     1  C    4.170915   0.616994   0.616994
     2  O    0.616994   7.731280  -0.050726
     3  O    0.616994  -0.050726   7.731280
 Mulliken charges:
               1
     1  C    0.595096
     2  O   -0.297548
     3  O   -0.297548
 Sum of Mulliken charges =  -0.00000
 Mulliken charges with hydrogens summed into heavy atoms:
               1
     1  C    0.595096
     2  O   -0.297548
     3  O   -0.297548
 APT charges:
               1
     1  C    1.190268
     2  O   -0.595134
     3  O   -0.595134
 Sum of APT charges =  -0.00000
 APT charges with hydrogens summed into heavy atoms:
               1
     1  C    1.190268
     2  O   -0.595134
     3  O   -0.595134
 Electronic spatial extent (au):  <R**2>=            113.4134
 Charge=              0.0000 electrons
 Dipole moment (field-independent basis, Debye):
    X=             -0.0000    Y=             -0.0000    Z=             -0.0000  Tot=              0.0000
 Quadrupole moment (field-independent basis, Debye-Ang):
   XX=            -14.8398   YY=            -14.8398   ZZ=            -19.5570
   XY=              0.0000   XZ=              0.0000   YZ=              0.0000
 Traceless Quadrupole moment (field-independent basis, Debye-Ang):
   XX=              1.5724   YY=              1.5724   ZZ=             -3.1448
   XY=              0.0000   XZ=              0.0000   YZ=              0.0000
 Octapole moment (field-independent basis, Debye-Ang**2):
  XXX=             -0.0000  YYY=              0.0000  ZZZ=             -0.0000  XYY=             -0.0000
  XXY=              0.0000  XXZ=             -0.0000  XZZ=             -0.0000  YZZ=              0.0000
  YYZ=             -0.0000  XYZ=             -0.0000
 Hexadecapole moment (field-independent basis, Debye-Ang**3):
 XXXX=            -12.0508 YYYY=            -12.0508 ZZZZ=           -104.7935 XXXY=              0.0000
 XXXZ=              0.0000 YYYX=              0.0000 YYYZ=              0.0000 ZZZX=              0.0000
 ZZZY=              0.0000 XXYY=             -4.0169 XXZZ=            -19.1396 YYZZ=            -19.1396
 XXYZ=              0.0000 YYXZ=              0.0000 ZZXY=             -0.0000
 N-N= 5.842095963984D+01 E-N=-5.611387811219D+02  KE= 1.881403687557D+02
 Symmetry AG   KE= 1.013745273664D+02
 Symmetry B1G  KE= 3.598419018325D-33
 Symmetry B2G  KE= 4.956924035226D+00
 Symmetry B3G  KE= 4.956924035226D+00
 Symmetry AU   KE= 7.013407511285D-33
 Symmetry B1U  KE= 6.946068908715D+01
 Symmetry B2U  KE= 3.695652115862D+00
 Symmetry B3U  KE= 3.695652115862D+00
  Exact polarizability:   9.996   0.000   9.996  -0.000  -0.000  25.332
 Approx polarizability:  12.830  -0.000  12.830  -0.000  -0.000  46.753
 Calling FoFJK, ICntrl=    100127 FMM=F ISym2X=1 I1Cent= 0 IOpClX= 0 NMat=1 NMatS=1 NMatT=0.
 Full mass-weighted force constant matrix:
 Low frequencies ---   -1.2806   -1.2806   -0.0010    0.0004    0.0006  673.6117
 Low frequencies ---  673.6117 1371.5136 2404.7136
 Diagonal vibrational polarizability:
        1.9910612       1.9910612       3.1832159
 Harmonic frequencies (cm**-1), IR intensities (KM/Mole), Raman scattering
 activities (A**4/AMU), depolarization ratios for plane and unpolarized
 incident light, reduced masses (AMU), force constants (mDyne/A),
 and normal coordinates:
                      1                      2                      3
                     PIU                    PIU                    SGG
 Frequencies --    673.6117               673.6117              1371.5136
 Red. masses --     12.8774                12.8774                15.9949
 Frc consts  --      3.4427                 3.4427                17.7269
 IR Inten    --     33.5715                33.5715                 0.0000
  Atom  AN      X      Y      Z        X      Y      Z        X      Y      Z
     1   6    -0.00   0.88  -0.00     0.88   0.00  -0.00     0.00  -0.00  -0.00
     2   8     0.00  -0.33   0.00    -0.33  -0.00   0.00    -0.00   0.00   0.71
     3   8     0.00  -0.33  -0.00    -0.33  -0.00   0.00    -0.00   0.00  -0.71
                      4
                     SGU
 Frequencies --   2404.7136
 Red. masses --     12.8774
 Frc consts  --     43.8737
 IR Inten    --    684.0056
  Atom  AN      X      Y      Z
     1   6     0.00   0.00   0.88
     2   8    -0.00  -0.00  -0.33
     3   8    -0.00  -0.00  -0.33

 -------------------
 - Thermochemistry -
 -------------------
 Temperature   298.150 Kelvin.  Pressure   1.00000 Atm.
 Atom     1 has atomic number  6 and mass  12.00000
 Atom     2 has atomic number  8 and mass  15.99491
 Atom     3 has atomic number  8 and mass  15.99491
 Molecular mass:    43.98983 amu.
 Principal axes and moments of inertia in atomic units:
                           1         2         3
     Eigenvalues --     0.00000 153.56579 153.56579
           X           -0.00000   1.00000  -0.00000
           Y            0.00000   0.00000   1.00000
           Z            1.00000   0.00000  -0.00000
 This molecule is a prolate symmetric top.
 Rotational symmetry number  2.
 Rotational temperature (Kelvin)      0.56402
 Rotational constant (GHZ):          11.752234
 Zero-point vibrational energy      30645.0 (Joules/Mol)
                                    7.32434 (Kcal/Mol)
 Vibrational temperatures:    969.18   969.18  1973.30  3459.85
          (Kelvin)
 
 Zero-point correction=                           0.011672 (Hartree/Particle)
 Thermal correction to Energy=                    0.014288
 Thermal correction to Enthalpy=                  0.015233
 Thermal correction to Gibbs Free Energy=        -0.009017
 Sum of electronic and zero-point Energies=           -188.656245
 Sum of electronic and thermal Energies=              -188.653628
 Sum of electronic and thermal Enthalpies=            -188.652684
 Sum of electronic and thermal Free Energies=         -188.676934
 
                     E (Thermal)             CV                S
                      KCal/Mol        Cal/Mol-Kelvin    Cal/Mol-Kelvin
 Total                    8.966              6.848             51.039
 Electronic               0.000              0.000              0.000
 Translational            0.889              2.981             37.270
 Rotational               0.592              1.987             13.070
 Vibrational              7.485              1.880              0.698
                       Q            Log10(Q)             Ln(Q)
 Total Bot       0.140516D+05          4.147726          9.550492
 Total V=0       0.328477D+10          9.516505         21.912563
 Vib (Bot)       0.463588D-05         -5.333868        -12.281684
 Vib (V=0)       0.108371D+01          0.034911          0.080386
 Electronic      0.100000D+01          0.000000          0.000000
 Translational   0.114679D+08          7.059482         16.255059
 Rotational      0.264309D+03          2.422112          5.577118
 ***** Axes restored to original set *****
 -------------------------------------------------------------------
 Center     Atomic                   Forces (Hartrees/Bohr)
 Number     Number              X              Y              Z
 -------------------------------------------------------------------
      1        6           0.000000000    0.000000000    0.000000000
      2        8           0.000000000    0.000000000   -0.000001102
      3        8          -0.000000000   -0.000000000    0.000001102
 -------------------------------------------------------------------
 Cartesian Forces:  Max     0.000001102 RMS     0.000000520
 FormGI is forming the generalized inverse of G from B-inverse, IUseBI=4.

 GradGradGradGradGradGradGradGradGradGradGradGradGradGradGradGradGradGrad
 Berny optimization.
 Internal  Forces:  Max     0.000001102 RMS     0.000000779
 Search for a local minimum.
 Step number   1 out of a maximum of    2
 All quantities printed in internal units (Hartrees-Bohrs-Radians)
 Second derivative matrix not updated -- analytic derivatives used.
 The second derivative matrix:
                          R1        R2        A1        A2
           R1           1.04672
           R2           0.09188   1.04672
           A1          -0.00000  -0.00000   0.17983
           A2           0.00000  -0.00000   0.00000   0.17983
 ITU=  0
     Eigenvalues ---    0.17983   0.17983   0.95484   1.13861
 Angle between quadratic step and forces=   0.00 degrees.
 Linear search not attempted -- first point.
 Iteration  1 RMS(Cart)=  0.00000068 RMS(Int)=  0.00000000
 ClnCor:  largest displacement from symmetrization is 3.22D-14 for atom     1.
 Variable       Old X    -DE/DX   Delta X   Delta X   Delta X     New X
                                 (Linear)    (Quad)   (Total)
    R1        2.19099  -0.00000   0.00000  -0.00000  -0.00000   2.19099
    R2        2.19099  -0.00000   0.00000  -0.00000  -0.00000   2.19099
    A1        3.14159   0.00000   0.00000   0.00000   0.00000   3.14159
    A2        3.14159  -0.00000   0.00000  -0.00000   0.00000   3.14159
         Item               Value     Threshold  Converged?
 Maximum Force            0.000001     0.000450     YES
 RMS     Force            0.000001     0.000300     YES
 Maximum Displacement     0.000001     0.001800     YES
 RMS     Displacement     0.000001     0.001200     YES
 Predicted change in Energy=-1.067266D-12
 Optimization completed.
    -- Stationary point found.
                           ----------------------------
                           !   Optimized Parameters   !
                           ! (Angstroms and Degrees)  !
 --------------------------                            --------------------------
 ! Name  Definition              Value          Derivative Info.                !
 --------------------------------------------------------------------------------
 ! R1    R(1,2)                  1.1594         -DE/DX =    0.0                 !
 ! R2    R(1,3)                  1.1594         -DE/DX =    0.0                 !
 ! A1    L(2,1,3,-1,-1)        180.0            -DE/DX =    0.0                 !
 ! A2    L(2,1,3,-2,-2)        180.0            -DE/DX =    0.0                 !
 --------------------------------------------------------------------------------
 GradGradGradGradGradGradGradGradGradGradGradGradGradGradGradGradGradGrad

 Dipole is zero, so no output in dipole orientation.

 ----------------------------------------------------------------------

 Electric dipole moment (input orientation):
 (Debye = 10**-18 statcoulomb cm , SI units = C m)
                  (au)            (Debye)         (10**-30 SI)
   Tot        0.000000D+00      0.000000D+00      0.000000D+00
   x          0.000000D+00      0.000000D+00      0.000000D+00
   y          0.000000D+00      0.000000D+00      0.000000D+00
   z          0.000000D+00      0.000000D+00      0.000000D+00

 Dipole polarizability, Alpha (input orientation).
 (esu units = cm**3 , SI units = C**2 m**2 J**-1)
 Alpha(0;0):
               (au)            (10**-24 esu)      (10**-40 SI)
   iso        0.151081D+02      0.223880D+01      0.249100D+01
   aniso      0.153353D+02      0.227246D+01      0.252845D+01
   xx         0.999637D+01      0.148131D+01      0.164818D+01
   yx         0.000000D+00      0.000000D+00      0.000000D+00
   yy         0.999637D+01      0.148131D+01      0.164818D+01
   zx         0.000000D+00      0.000000D+00      0.000000D+00
   zy         0.000000D+00      0.000000D+00      0.000000D+00
   zz         0.253317D+02      0.375377D+01      0.417663D+01

 ----------------------------------------------------------------------
 1\1\GINC-GAMBA\Freq\RB3LYP\Gen\C1O2\IRIKURA\01-Feb-2022\0\\#N Geom=All
 Check Guess=TCheck SCRF=Check GenChk RB3LYP/ChkBas Freq\\CO2, B3LYP/pc
 seg-2\\0,1\C,0.,0.,0.\O,0.,0.,1.1594243473\O,0.,0.,-1.1594243473\\Vers
 ion=ES64L-G16RevB.01\State=1-SGG\HF=-188.6679168\RMSD=2.879e-10\RMSF=5
 .197e-07\ZeroPoint=0.0116721\Thermal=0.0142884\Dipole=0.,0.,0.\DipoleD
 eriv=0.5481888,0.,0.,0.,0.5481888,0.,0.,0.,2.4744271,-0.2740944,0.,0.,
 0.,-0.2740944,0.,0.,0.,-1.2372135,-0.2740944,0.,0.,0.,-0.2740944,0.,0.
 ,0.,-1.2372135\Polar=9.9963725,0.,9.9963725,0.,0.,25.3316993\Quadrupol
 e=1.1690335,1.1690335,-2.3380671,0.,0.,0.\PG=D*H [O(C1),C*(O1.O1)]\NIm
 ag=0\\0.14984821,0.,0.14984821,0.,0.,1.90967320,-0.07492411,0.,0.,0.03
 746156,0.,-0.07492411,0.,0.,0.03746156,0.,0.,-0.95483660,0.,0.,1.04672
 147,-0.07492411,0.,0.,0.03746255,0.,0.,0.03746156,0.,-0.07492411,0.,0.
 ,0.03746255,0.,0.,0.03746156,0.,0.,-0.95483660,0.,0.,-0.09188487,0.,0.
 ,1.04672147\\0.,0.,0.,0.,0.,0.00000110,0.,0.,-0.00000110\\\@


 In the beginning the Universe was created.
 This has made a lot of people very angry
 and been widely regarded as a bad move.
                               -D.Adams
 Job cpu time:       0 days  0 hours  0 minutes 22.6 seconds.
 Elapsed time:       0 days  0 hours  0 minutes 22.4 seconds.
 File lengths (MBytes):  RWF=     10 Int=      0 D2E=      0 Chk=      2 Scr=      1
 Normal termination of Gaussian 16 at Tue Feb  1 13:41:46 2022.
