 Entering Gaussian System, Link 0=g16
 AtFile(1): pcseg2.gbs
            -H     0
            S   4   1.00
                  0.754732D+02           0.427821D-02
                  0.113575D+02           0.328672D-01
                  0.260081D+01           0.159578D+00
                  0.735503D+00           0.500000D+00
            S   1   1.00
                  0.231761D+00           1.0000000
            S   1   1.00
                  0.741675D-01           1.0000000
            P   1   1.00
                  0.160000D+01           1.0000000
            P   1   1.00
                  0.450000D+00           1.0000000
            D   1   1.00
                  0.125000D+01           1.0000000
            ****
            -C     0
            S   7   1.00
                  0.731999D+04           0.695369D-03
                  0.109818D+04           0.537138D-02
                  0.250014D+03           0.274734D-01
                  0.707586D+02           0.105078D+00
                  0.228595D+02           0.291262D+00
                  0.803936D+01           0.500000D+00
                  0.289309D+01           0.362224D+00
            S   2   1.00
                  0.521640D+01          -0.957844D-01
                  0.556124D+00           0.500000D+00
            S   1   1.00
                  0.228813D+00           1.0000000
            S   1   1.00
                  0.936338D-01           1.0000000
            P   4   1.00
                  0.339855D+02           0.818395D-02
                  0.772957D+01           0.586921D-01
                  0.224954D+01           0.222514D+00
                  0.767681D+00           0.500000D+00
            P   1   1.00
                  0.263283D+00           1.0000000
            P   1   1.00
                  0.848744D-01           1.0000000
            D   1   1.00
                  0.140000D+01           1.0000000
            D   1   1.00
                  0.450000D+00           1.0000000
            F   1   1.00
                  0.950000D+00           1.0000000
            ****
            -O     0
            S   7   1.00
                  0.135887D+05           0.665492D-03
                  0.203847D+04           0.514222D-02
                  0.464041D+03           0.263472D-01
                  0.131339D+03           0.101500D+00
                  0.425340D+02           0.285877D+00
                  0.150429D+02           0.500000D+00
                  0.546616D+01           0.368211D+00
            S   2   1.00
                  0.100915D+02          -0.100084D+00
                  0.110429D+01           0.500000D+00
            S   1   1.00
                  0.448082D+00           1.0000000
            S   1   1.00
                  0.175325D+00           1.0000000
            P   4   1.00
                  0.608220D+02           0.908253D-02
                  0.140332D+02           0.645878D-01
                  0.418244D+01           0.241502D+00
                  0.142490D+01           0.500000D+00
            P   1   1.00
                  0.478741D+00           1.0000000
            P   1   1.00
                  0.146257D+00           1.0000000
            D   1   1.00
                  0.220000D+01           1.0000000
            D   1   1.00
                  0.650000D+00           1.0000000
            F   1   1.00
                  0.110000D+01           1.0000000
            ****
            -N     0
            S   7   1.00
                  0.101643D+05           0.682757D-03
                  0.152481D+04           0.527488D-02
                  0.347119D+03           0.270037D-01
                  0.982389D+02           0.103673D+00
                  0.317799D+02           0.289575D+00
                  0.112240D+02           0.500000D+00
                  0.406611D+01           0.364621D+00
            S   2   1.00
                  0.747898D+01          -0.975681D-01
                  0.805040D+00           0.500000D+00
            S   1   1.00
                  0.324626D+00           1.0000000
            S   1   1.00
                  0.128132D+00           1.0000000
            P   4   1.00
                  0.482704D+02           0.829547D-02
                  0.110815D+02           0.596223D-01
                  0.326643D+01           0.227889D+00
                  0.111680D+01           0.500000D+00
            P   1   1.00
                  0.382049D+00           1.0000000
            P   1   1.00
                  0.121222D+00           1.0000000
            D   1   1.00
                  0.180000D+01           1.0000000
            D   1   1.00
                  0.550000D+00           1.0000000
            F   1   1.00
                  0.102000D+01           1.0000000
            ****
            -F     0
            S   7   1.00
                  0.174507D+05           0.655972D-03
                  0.261768D+04           0.506944D-02
                  0.595857D+03           0.259899D-01
                  0.168651D+03           0.100353D+00
                  0.546654D+02           0.284095D+00
                  0.193717D+02           0.500000D+00
                  0.706202D+01           0.370721D+00
            S   2   1.00
                  0.131197D+02          -0.101997D+00
                  0.145046D+01           0.500000D+00
            S   1   1.00
                  0.588255D+00           1.0000000
            S   1   1.00
                  0.227960D+00           1.0000000
            P   4   1.00
                  0.779407D+02           0.931135D-02
                  0.180425D+02           0.663964D-01
                  0.542342D+01           0.246386D+00
                  0.184876D+01           0.500000D+00
            P   1   1.00
                  0.617455D+00           1.0000000
            P   1   1.00
                  0.185496D+00           1.0000000
            D   1   1.00
                  0.280000D+01           1.0000000
            D   1   1.00
                  0.800000D+00           1.0000000
            F   1   1.00
                  0.120000D+01           1.0000000
            ****
            -Cl     0
            S   8   1.00
                  0.154272D+06           0.222473D-03
                  0.231232D+05           0.172590D-02
                  0.526257D+04           0.899286D-02
                  0.148995D+04           0.367724D-01
                  0.485417D+03           0.121446D+00
                  0.174634D+03           0.304148D+00
                  0.672393D+02           0.500000D+00
                  0.265780D+02           0.360252D+00
            S   3   1.00
                  0.131826D+03          -0.531330D-01
                  0.400703D+02          -0.233346D+00
                  0.789448D+01           0.500000D+00
            S   2   1.00
                  0.427711D+01           0.500000D+00
                  0.196233D+01           0.370517D+00
            S   1   1.00
                  0.520793D+00           1.0000000
            S   1   1.00
                  0.181633D+00           1.0000000
            P   7   1.00
                  0.124440D+04           0.988206D-03
                  0.295109D+03           0.829674D-02
                  0.947224D+02           0.430906D-01
                  0.352588D+02           0.148443D+00
                  0.144211D+02           0.344744D+00
                  0.610371D+01           0.500000D+00
                  0.258886D+01           0.348278D+00
            P   2   1.00
                  0.109447D+02          -0.196768D-01
                  0.104413D+01           0.500000D+00
            P   1   1.00
                  0.376184D+00           1.0000000
            P   1   1.00
                  0.120613D+00           1.0000000
            D   1   1.00
                  0.231000D+01           1.0000000
            D   1   1.00
                  0.520000D+00           1.0000000
            F   1   1.00
                  0.720000D+00           1.0000000
            ****
            -S     0
            S   8   1.00
                  0.134700D+06           0.226231D-03
                  0.201904D+05           0.175488D-02
                  0.459528D+04           0.914190D-02
                  0.130109D+04           0.373551D-01
                  0.423902D+03           0.123121D+00
                  0.152485D+03           0.306801D+00
                  0.586925D+02           0.500000D+00
                  0.231461D+02           0.354358D+00
            S   3   1.00
                  0.116327D+03          -0.491772D-01
                  0.352841D+02          -0.215962D+00
                  0.677831D+01           0.500000D+00
            S   2   1.00
                  0.360404D+01           0.500000D+00
                  0.164871D+01           0.366278D+00
            S   1   1.00
                  0.421821D+00           1.0000000
            S   1   1.00
                  0.147554D+00           1.0000000
            P   7   1.00
                  0.104863D+04           0.105273D-02
                  0.248717D+03           0.879338D-02
                  0.797887D+02           0.453358D-01
                  0.296023D+02           0.154476D+00
                  0.120627D+02           0.352366D+00
                  0.507628D+01           0.500000D+00
                  0.213375D+01           0.346429D+00
            P   2   1.00
                  0.928958D+01          -0.185932D-01
                  0.837819D+00           0.500000D+00
            P   1   1.00
                  0.301495D+00           1.0000000
            P   1   1.00
                  0.974740D-01           1.0000000
            D   1   1.00
                  0.210000D+01           1.0000000
            D   1   1.00
                  0.480000D+00           1.0000000
            F   1   1.00
                  0.660000D+00           1.0000000
            ****
            -Br     0
            S    10   1.00
                  0.233625D+07           0.532336D-04
                  0.349961D+06           0.413715D-03
                  0.796444D+05           0.217123D-02
                  0.225555D+05           0.910109D-02
                  0.735546D+04           0.323789D-01
                  0.265352D+04           0.988755D-01
                  0.103517D+04           0.248138D+00
                  0.422205D+03           0.474328D+00
                  0.180035D+03           0.500000D+00
                  0.793308D+02           0.187769D+00
            S    4   1.00
                  0.620834D+03          -0.226511D-01
                  0.190829D+03          -0.109497D+00
                  0.312505D+02           0.500000D+00
                  0.135270D+02           0.492812D+00
            S    2   1.00
                  0.216097D+02          -0.165418D+00
                  0.372566D+01           0.500000D+00
            S    1   1.00
                  0.169770D+01           1.0000000
            S    1   1.00
                  0.489332D+00           1.0000000
            S    1   1.00
                  0.175712D+00           1.0000000
            P    8   1.00
                  0.960829D+04           0.478974D-03
                  0.227618D+04           0.417853D-02
                  0.736723D+03           0.229315D-01
                  0.281579D+03           0.892653D-01
                  0.118395D+03           0.255288D+00
                  0.527481D+02           0.479074D+00
                  0.245098D+02           0.500000D+00
                  0.112009D+02           0.200944D+00
            P    4   1.00
                  0.587849D+02          -0.189674D-01
                  0.918962D+01           0.264104D+00
                  0.413895D+01           0.500000D+00
                  0.184225D+01           0.319316D+00
            P    1   1.00
                  0.713862D+00           1.0000000
            P    1   1.00
                  0.274232D+00           1.0000000
            P    1   1.00
                  0.944411D-01           1.0000000
            D    7   1.00
                  0.398470D+03           0.204066D-02
                  0.118967D+03           0.175171D-01
                  0.450197D+02           0.829708D-01
                  0.190320D+02           0.236284D+00
                  0.855686D+01           0.428468D+00
                  0.382950D+01           0.500000D+00
                  0.166291D+01           0.349360D+00
            D    1   1.00
                  0.672953D+00           1.0000000
            D    1   1.00
                  0.252000D+00           1.0000000
            F    1   1.00
                  0.530000D+00           1.0000000
            ****
            -Si     0
            S    8   1.00
                  0.996133D+05           0.235546D-03
                  0.149311D+05           0.182707D-02
                  0.339820D+04           0.951425D-02
                  0.962140D+03           0.388172D-01
                  0.313430D+03           0.127328D+00
                  0.112683D+03           0.313522D+00
                  0.433372D+02           0.500000D+00
                  0.170029D+02           0.340347D+00
            S    3   1.00
                  0.884208D+02          -0.404451D-01
                  0.266756D+02          -0.178059D+00
                  0.479640D+01           0.500000D+00
            S    2   1.00
                  0.239385D+01           0.500000D+00
                  0.108333D+01           0.338016D+00
            S    1   1.00
                  0.252420D+00           1.0000000
            S    1   1.00
                  0.891210D-01           1.0000000
            P    7   1.00
                  0.709901D+03           0.123028D-02
                  0.168426D+03           0.101366D-01
                  0.539946D+02           0.511840D-01
                  0.198646D+02           0.169967D+00
                  0.801369D+01           0.370717D+00
                  0.331870D+01           0.500000D+00
                  0.136112D+01           0.344128D+00
            P    2   1.00
                  0.622158D+01          -0.166609D-01
                  0.503049D+00           0.500000D+00
            P    1   1.00
                  0.179848D+00           1.0000000
            P    1   1.00
                  0.591912D-01           1.0000000
            D    1   1.00
                  0.168000D+01           1.0000000
            D    1   1.00
                  0.380000D+00           1.0000000
            F    1   1.00
                  0.540000D+00           1.0000000
            ****
            -P     0
            S    8   1.00
                  0.116416D+06           0.230715D-03
                  0.174500D+05           0.178960D-02
                  0.397149D+04           0.932116D-02
                  0.112447D+04           0.380591D-01
                  0.366347D+03           0.125148D+00
                  0.131757D+03           0.310022D+00
                  0.506988D+02           0.500000D+00
                  0.199436D+02           0.347528D+00
            S    3   1.00
                  0.101878D+03          -0.446755D-01
                  0.308249D+02          -0.196376D+00
                  0.573688D+01           0.500000D+00
            S    2   1.00
                  0.296868D+01           0.500000D+00
                  0.135315D+01           0.355098D+00
            S    1   1.00
                  0.332196D+00           1.0000000
            S    1   1.00
                  0.116229D+00           1.0000000
            P    7   1.00
                  0.873928D+03           0.112375D-02
                  0.207298D+03           0.933330D-02
                  0.664628D+02           0.477213D-01
                  0.245665D+02           0.160733D+00
                  0.996820D+01           0.359760D+00
                  0.416536D+01           0.500000D+00
                  0.173022D+01           0.346593D+00
            P    2   1.00
                  0.772530D+01          -0.175718D-01
                  0.657252D+00           0.500000D+00
            P    1   1.00
                  0.239903D+00           1.0000000
            P    1   1.00
                  0.800988D-01           1.0000000
            D    1   1.00
                  0.189000D+01           1.0000000
            D    1   1.00
                  0.430000D+00           1.0000000
            F    1   1.00
                  0.600000D+00           1.0000000
            ****
            
 Initial command:
 /usr/local/apps/g16_b01_avx/g16/l1.exe "/wrk/irikura/Gau-452256.inp" -scrdir="/wrk/irikura/"
 Entering Link 1 = /usr/local/apps/g16_b01_avx/g16/l1.exe PID=    452258.
  
 Copyright (c) 1988-2017, Gaussian, Inc.  All Rights Reserved.
  
 This is part of the Gaussian(R) 16 program.  It is based on
 the Gaussian(R) 09 system (copyright 2009, Gaussian, Inc.),
 the Gaussian(R) 03 system (copyright 2003, Gaussian, Inc.),
 the Gaussian(R) 98 system (copyright 1998, Gaussian, Inc.),
 the Gaussian(R) 94 system (copyright 1995, Gaussian, Inc.),
 the Gaussian 92(TM) system (copyright 1992, Gaussian, Inc.),
 the Gaussian 90(TM) system (copyright 1990, Gaussian, Inc.),
 the Gaussian 88(TM) system (copyright 1988, Gaussian, Inc.),
 the Gaussian 86(TM) system (copyright 1986, Carnegie Mellon
 University), and the Gaussian 82(TM) system (copyright 1983,
 Carnegie Mellon University). Gaussian is a federally registered
 trademark of Gaussian, Inc.
  
 This software contains proprietary and confidential information,
 including trade secrets, belonging to Gaussian, Inc.
  
 This software is provided under written license and may be
 used, copied, transmitted, or stored only in accord with that
 written license.
  
 The following legend is applicable only to US Government
 contracts under FAR:
  
                    RESTRICTED RIGHTS LEGEND
  
 Use, reproduction and disclosure by the US Government is
 subject to restrictions as set forth in subparagraphs (a)
 and (c) of the Commercial Computer Software - Restricted
 Rights clause in FAR 52.227-19.
  
 Gaussian, Inc.
 340 Quinnipiac St., Bldg. 40, Wallingford CT 06492
  
  
 ---------------------------------------------------------------
 Warning -- This program may not be used in any manner that
 competes with the business of Gaussian, Inc. or will provide
 assistance to any competitor of Gaussian, Inc.  The licensee
 of this program is prohibited from giving any competitor of
 Gaussian, Inc. access to this program.  By using this program,
 the user acknowledges that Gaussian, Inc. is engaged in the
 business of creating and licensing software in the field of
 computational chemistry and represents and warrants to the
 licensee that it is not a competitor of Gaussian, Inc. and that
 it will not use this program in any manner prohibited above.
 ---------------------------------------------------------------
  

 Cite this work as:
 Gaussian 16, Revision B.01,
 M. J. Frisch, G. W. Trucks, H. B. Schlegel, G. E. Scuseria, 
 M. A. Robb, J. R. Cheeseman, G. Scalmani, V. Barone, 
 G. A. Petersson, H. Nakatsuji, X. Li, M. Caricato, A. V. Marenich, 
 J. Bloino, B. G. Janesko, R. Gomperts, B. Mennucci, H. P. Hratchian, 
 J. V. Ortiz, A. F. Izmaylov, J. L. Sonnenberg, D. Williams-Young, 
 F. Ding, F. Lipparini, F. Egidi, J. Goings, B. Peng, A. Petrone, 
 T. Henderson, D. Ranasinghe, V. G. Zakrzewski, J. Gao, N. Rega, 
 G. Zheng, W. Liang, M. Hada, M. Ehara, K. Toyota, R. Fukuda, 
 J. Hasegawa, M. Ishida, T. Nakajima, Y. Honda, O. Kitao, H. Nakai, 
 T. Vreven, K. Throssell, J. A. Montgomery, Jr., J. E. Peralta, 
 F. Ogliaro, M. J. Bearpark, J. J. Heyd, E. N. Brothers, K. N. Kudin, 
 V. N. Staroverov, T. A. Keith, R. Kobayashi, J. Normand, 
 K. Raghavachari, A. P. Rendell, J. C. Burant, S. S. Iyengar, 
 J. Tomasi, M. Cossi, J. M. Millam, M. Klene, C. Adamo, R. Cammi, 
 J. W. Ochterski, R. L. Martin, K. Morokuma, O. Farkas, 
 J. B. Foresman, and D. J. Fox, Gaussian, Inc., Wallingford CT, 2016.
 
 ******************************************
 Gaussian 16:  ES64L-G16RevB.01 20-Dec-2017
                30-Sep-2023 
 ******************************************
 %chk=cyc3.chk
 %mem=500mw
 %nprocs=4
 Will use up to    4 processors via shared memory.
 ---------------------------------------
 # b3lyp/gen opt freq CPHF(Grid=OneStep)
 ---------------------------------------
 1/18=20,19=15,26=3,38=1/1,3;
 2/9=110,12=2,17=6,18=5,40=1/2;
 3/5=7,11=2,25=1,30=1,71=1,74=-5/1,2,3;
 4//1;
 5/5=2,38=5/2;
 6/7=2,8=2,9=2,10=2,28=1/1;
 7//1,2,3,16;
 1/18=20,19=15,26=3/3(2);
 2/9=110/2;
 99//99;
 2/9=110/2;
 3/5=7,6=1,11=2,25=1,30=1,71=1,74=-5,82=7/1,2,3;
 4/5=5,16=3,69=1/1;
 5/5=2,38=5/2;
 7//1,2,3,16;
 1/18=20,19=15,26=3/3(-5);
 2/9=110/2;
 6/7=2,8=2,9=2,10=2,19=2,28=1/1;
 99/9=1/99;
 ---------------------------
 cyclopropane, B3LYP/pcseg-2
 ---------------------------
 Symbolic Z-matrix:
 Charge =  0 Multiplicity = 1
 C                     0.        0.86851   0. 
 C                     0.75215  -0.43425   0. 
 C                    -0.75215  -0.43425   0. 
 H                     0.        1.45647   0.90689 
 H                     1.26134  -0.72823   0.90689 
 H                    -1.26134  -0.72823   0.90689 
 H                     0.        1.45647  -0.90689 
 H                     1.26134  -0.72823  -0.90689 
 H                    -1.26134  -0.72823  -0.90689 
 

 GradGradGradGradGradGradGradGradGradGradGradGradGradGradGradGradGradGrad
 Berny optimization.
 Initialization pass.
                           ----------------------------
                           !    Initial Parameters    !
                           ! (Angstroms and Degrees)  !
 --------------------------                            --------------------------
 ! Name  Definition              Value          Derivative Info.                !
 --------------------------------------------------------------------------------
 ! R1    R(1,2)                  1.5043         estimate D2E/DX2                !
 ! R2    R(1,3)                  1.5043         estimate D2E/DX2                !
 ! R3    R(1,4)                  1.0808         estimate D2E/DX2                !
 ! R4    R(1,7)                  1.0808         estimate D2E/DX2                !
 ! R5    R(2,3)                  1.5043         estimate D2E/DX2                !
 ! R6    R(2,5)                  1.0808         estimate D2E/DX2                !
 ! R7    R(2,8)                  1.0808         estimate D2E/DX2                !
 ! R8    R(3,6)                  1.0808         estimate D2E/DX2                !
 ! R9    R(3,9)                  1.0808         estimate D2E/DX2                !
 ! A1    A(2,1,4)              118.107          estimate D2E/DX2                !
 ! A2    A(2,1,7)              118.107          estimate D2E/DX2                !
 ! A3    A(3,1,4)              118.107          estimate D2E/DX2                !
 ! A4    A(3,1,7)              118.107          estimate D2E/DX2                !
 ! A5    A(4,1,7)              114.087          estimate D2E/DX2                !
 ! A6    A(1,2,5)              118.107          estimate D2E/DX2                !
 ! A7    A(1,2,8)              118.107          estimate D2E/DX2                !
 ! A8    A(3,2,5)              118.107          estimate D2E/DX2                !
 ! A9    A(3,2,8)              118.107          estimate D2E/DX2                !
 ! A10   A(5,2,8)              114.087          estimate D2E/DX2                !
 ! A11   A(1,3,6)              118.107          estimate D2E/DX2                !
 ! A12   A(1,3,9)              118.107          estimate D2E/DX2                !
 ! A13   A(2,3,6)              118.107          estimate D2E/DX2                !
 ! A14   A(2,3,9)              118.107          estimate D2E/DX2                !
 ! A15   A(6,3,9)              114.087          estimate D2E/DX2                !
 ! D1    D(4,1,2,5)              0.0            estimate D2E/DX2                !
 ! D2    D(4,1,2,8)           -144.0783         estimate D2E/DX2                !
 ! D3    D(7,1,2,5)            144.0783         estimate D2E/DX2                !
 ! D4    D(7,1,2,8)              0.0            estimate D2E/DX2                !
 ! D5    D(4,1,3,6)              0.0            estimate D2E/DX2                !
 ! D6    D(4,1,3,9)            144.0783         estimate D2E/DX2                !
 ! D7    D(7,1,3,6)           -144.0783         estimate D2E/DX2                !
 ! D8    D(7,1,3,9)              0.0            estimate D2E/DX2                !
 ! D9    D(5,2,3,6)              0.0            estimate D2E/DX2                !
 ! D10   D(5,2,3,9)           -144.0784         estimate D2E/DX2                !
 ! D11   D(8,2,3,6)            144.0784         estimate D2E/DX2                !
 ! D12   D(8,2,3,9)              0.0            estimate D2E/DX2                !
 --------------------------------------------------------------------------------
 Trust Radius=3.00D-01 FncErr=1.00D-07 GrdErr=1.00D-06 EigMax=2.50D+02 EigMin=1.00D-04
 Number of steps in this run=     46 maximum allowed number of steps=    100.
 GradGradGradGradGradGradGradGradGradGradGradGradGradGradGradGradGradGrad

                          Input orientation:                          
 ---------------------------------------------------------------------
 Center     Atomic      Atomic             Coordinates (Angstroms)
 Number     Number       Type             X           Y           Z
 ---------------------------------------------------------------------
      1          6           0        0.000000    0.868507    0.000000
      2          6           0        0.752149   -0.434254    0.000000
      3          6           0       -0.752149   -0.434254    0.000000
      4          1           0        0.000000    1.456469    0.906888
      5          1           0        1.261339   -0.728234    0.906888
      6          1           0       -1.261339   -0.728234    0.906888
      7          1           0        0.000000    1.456469   -0.906888
      8          1           0        1.261339   -0.728234   -0.906888
      9          1           0       -1.261339   -0.728234   -0.906888
 ---------------------------------------------------------------------
                    Distance matrix (angstroms):
                    1          2          3          4          5
     1  C    0.000000
     2  C    1.504299   0.000000
     3  C    1.504299   1.504298   0.000000
     4  H    1.080808   2.227781   2.227781   0.000000
     5  H    2.227780   1.080807   2.227780   2.522678   0.000000
     6  H    2.227780   2.227780   1.080807   2.522678   2.522678
     7  H    1.080808   2.227781   2.227781   1.813776   3.107038
     8  H    2.227780   1.080807   2.227780   3.107038   1.813776
     9  H    2.227780   2.227780   1.080807   3.107038   3.107038
                    6          7          8          9
     6  H    0.000000
     7  H    3.107038   0.000000
     8  H    3.107038   2.522678   0.000000
     9  H    1.813776   2.522678   2.522678   0.000000
 Stoichiometry    C3H6
 Framework group  D3H[3C2(C),3SGV(H2)]
 Deg. of freedom     3
 Full point group                 D3H     NOp  12
 Largest Abelian subgroup         C2V     NOp   4
 Largest concise Abelian subgroup C2V     NOp   4
                         Standard orientation:                         
 ---------------------------------------------------------------------
 Center     Atomic      Atomic             Coordinates (Angstroms)
 Number     Number       Type             X           Y           Z
 ---------------------------------------------------------------------
      1          6           0       -0.000000    0.868507    0.000000
      2          6           0        0.752149   -0.434254    0.000000
      3          6           0       -0.752149   -0.434254    0.000000
      4          1           0       -0.000000    1.456469    0.906888
      5          1           0        1.261339   -0.728235    0.906888
      6          1           0       -1.261339   -0.728235    0.906888
      7          1           0        0.000000    1.456469   -0.906888
      8          1           0        1.261339   -0.728235   -0.906888
      9          1           0       -1.261339   -0.728235   -0.906888
 ---------------------------------------------------------------------
 Rotational constants (GHZ):          20.2439239          20.2439239          12.6400434
 General basis read from cards:  (5D, 7F)
 There are    66 symmetry adapted cartesian basis functions of A1  symmetry.
 There are    33 symmetry adapted cartesian basis functions of A2  symmetry.
 There are    51 symmetry adapted cartesian basis functions of B1  symmetry.
 There are    45 symmetry adapted cartesian basis functions of B2  symmetry.
 There are    57 symmetry adapted basis functions of A1  symmetry.
 There are    31 symmetry adapted basis functions of A2  symmetry.
 There are    45 symmetry adapted basis functions of B1  symmetry.
 There are    41 symmetry adapted basis functions of B2  symmetry.
   174 basis functions,   261 primitive gaussians,   195 cartesian basis functions
    12 alpha electrons       12 beta electrons
       nuclear repulsion energy        75.8762729803 Hartrees.
 NAtoms=    9 NActive=    9 NUniq=    2 SFac= 4.00D+00 NAtFMM=   60 NAOKFM=F Big=F
 Integral buffers will be    131072 words long.
 Raffenetti 2 integral format.
 Two-electron integral symmetry is turned on.
 One-electron integrals computed using PRISM.
 NBasis=   174 RedAO= T EigKep=  6.40D-04  NBF=    57    31    45    41
 NBsUse=   174 1.00D-06 EigRej= -1.00D+00 NBFU=    57    31    45    41
 ExpMin= 7.42D-02 ExpMax= 7.32D+03 ExpMxC= 2.50D+02 IAcc=3 IRadAn=         5 AccDes= 0.00D+00
 Harris functional with IExCor=  402 and IRadAn=       5 diagonalized for initial guess.
 HarFok:  IExCor=  402 AccDes= 0.00D+00 IRadAn=         5 IDoV= 1 UseB2=F ITyADJ=14
 ICtDFT=  3500011 ScaDFX=  1.000000  1.000000  1.000000  1.000000
 FoFCou: FMM=F IPFlag=           0 FMFlag=      100000 FMFlg1=           0
         NFxFlg=           0 DoJE=T BraDBF=F KetDBF=T FulRan=T
         wScrn=  0.000000 ICntrl=       500 IOpCl=  0 I1Cent=   200000004 NGrid=           0
         NMat0=    1 NMatS0=      1 NMatT0=    0 NMatD0=    1 NMtDS0=    0 NMtDT0=    0
 Petite list used in FoFCou.
 Initial guess orbital symmetries:
       Occupied  (A1') (E') (E') (A1') (E') (E') (A2") (A1') (E")
                 (E") (E') (E')
       Virtual   (A1') (A2') (A2") (E') (E') (E") (E") (A1') (E')
                 (E') (A2") (E') (E') (E") (E") (A1') (E') (E')
                 (A2') (A2") (A1') (E') (E') (E") (E") (E') (E')
                 (A1") (A1') (E") (E") (A1') (A2") (E') (E') (E")
                 (E") (E') (E') (A1') (E") (E") (A2") (A2') (E')
                 (E') (E') (E') (E") (E") (A2") (A1') (A2') (E')
                 (E') (E') (E') (A2") (E') (E') (E") (E") (A1')
                 (A1") (E') (E') (E") (E") (A1') (A2') (A2") (E')
                 (E') (A1') (E") (E") (A1') (E') (E') (A2") (E")
                 (E") (E') (E') (A2") (A2') (E") (E") (E') (E')
                 (A1") (E") (E") (A1') (E') (E') (E") (E") (A2")
                 (A1') (A1') (E') (E') (A2") (A2') (A1") (E") (E")
                 (E") (E") (E') (E') (E") (E") (E') (E') (E') (E')
                 (A1") (A2') (A1') (E') (E') (E") (E") (A2") (E')
                 (E') (A2') (E") (E") (A1') (A2') (A1") (E') (E')
                 (A2") (A1') (E') (E') (E") (E") (A1') (A2") (E')
                 (E') (E") (E") (E') (E') (A2') (A1') (A1") (E')
                 (E') (A2") (E") (E") (E") (E") (E') (E')
 The electronic state of the initial guess is 1-A1'.
 Keep R1 ints in memory in symmetry-blocked form, NReq=144977967.
 Requested convergence on RMS density matrix=1.00D-08 within 128 cycles.
 Requested convergence on MAX density matrix=1.00D-06.
 Requested convergence on             energy=1.00D-06.
 No special actions if energy rises.
 Integral accuracy reduced to 1.0D-05 until final iterations.
 Initial convergence to 1.0D-05 achieved.  Increase integral accuracy.
 SCF Done:  E(RB3LYP) =  -117.946183263     A.U. after    9 cycles
            NFock=  9  Conv=0.36D-08     -V/T= 2.0047

 **********************************************************************

            Population analysis using the SCF Density.

 **********************************************************************

 Orbital symmetries:
       Occupied  (A1') (E') (E') (A1') (E') (E') (A2") (A1') (E")
                 (E") (E') (E')
       Virtual   (A1') (A2") (E') (E') (E") (E") (A2') (A1') (E')
                 (E') (E') (E') (A2") (E") (E") (A1') (A2") (A2')
                 (A1') (E') (E') (E") (E") (E') (E') (E') (E')
                 (A1") (A1') (E") (E") (A2") (A1') (E') (E') (E")
                 (E") (A1') (E') (E') (E") (E") (A2") (A2') (E')
                 (E') (E') (E') (E") (E") (A2") (A1') (E') (E')
                 (A2') (E') (E') (A2") (E") (E") (E') (E') (A1')
                 (A1") (E') (E') (E") (E") (A1') (A2') (A2") (E')
                 (E') (E") (E") (A1') (A1') (E') (E') (A2") (E")
                 (E") (E') (E') (A2") (A2') (E") (E") (A1") (E')
                 (E') (E") (E") (A1') (E") (E") (E') (E') (A2")
                 (A1') (A2") (E') (E') (A1') (A2') (A1") (E") (E")
                 (E") (E") (E') (E') (E") (E") (E') (E') (E') (E')
                 (A1") (A2') (A1') (E') (E') (E") (E") (A2") (E')
                 (E') (A2') (E") (E") (A1') (A2') (A1") (E') (E')
                 (A2") (A1') (E') (E') (E") (E") (A1') (A2") (E')
                 (E') (E') (E') (E") (E") (A2') (A1') (A1") (E')
                 (E') (A2") (E") (E") (E") (E") (E') (E')
 The electronic state is 1-A1'.
 Alpha  occ. eigenvalues --  -10.17064 -10.17023 -10.17023  -0.85193  -0.59921
 Alpha  occ. eigenvalues --   -0.59921  -0.49678  -0.46964  -0.36614  -0.36614
 Alpha  occ. eigenvalues --   -0.29939  -0.29939
 Alpha virt. eigenvalues --    0.02246   0.03856   0.04882   0.04882   0.11061
 Alpha virt. eigenvalues --    0.11061   0.11982   0.13232   0.15473   0.15473
 Alpha virt. eigenvalues --    0.21153   0.21153   0.23273   0.27121   0.27121
 Alpha virt. eigenvalues --    0.30888   0.31431   0.33010   0.33742   0.34886
 Alpha virt. eigenvalues --    0.34886   0.40148   0.40148   0.40739   0.40739
 Alpha virt. eigenvalues --    0.50285   0.50285   0.80339   0.85488   0.85677
 Alpha virt. eigenvalues --    0.85677   0.91367   0.92329   0.93875   0.93875
 Alpha virt. eigenvalues --    0.97463   0.97463   1.00955   1.01974   1.01974
 Alpha virt. eigenvalues --    1.05462   1.05462   1.07607   1.10011   1.10767
 Alpha virt. eigenvalues --    1.10767   1.27082   1.27082   1.36096   1.36096
 Alpha virt. eigenvalues --    1.38115   1.49471   1.54000   1.54000   1.54261
 Alpha virt. eigenvalues --    1.61604   1.61604   1.73954   1.75430   1.75430
 Alpha virt. eigenvalues --    1.77214   1.77214   1.83009   1.85244   1.90703
 Alpha virt. eigenvalues --    1.90703   2.00740   2.00740   2.06890   2.14927
 Alpha virt. eigenvalues --    2.22909   2.43846   2.43846   2.62814   2.62814
 Alpha virt. eigenvalues --    2.65220   2.90575   3.11319   3.11319   3.14925
 Alpha virt. eigenvalues --    3.29594   3.29594   3.35251   3.35251   3.40739
 Alpha virt. eigenvalues --    3.52426   3.57822   3.57822   3.60747   3.63204
 Alpha virt. eigenvalues --    3.63204   3.70793   3.70793   3.84923   3.93902
 Alpha virt. eigenvalues --    3.93902   3.97297   3.97297   4.02481   4.05509
 Alpha virt. eigenvalues --    4.09532   4.09593   4.09593   4.10535   4.14338
 Alpha virt. eigenvalues --    4.17547   4.22703   4.22703   4.36503   4.36503
 Alpha virt. eigenvalues --    4.39449   4.39449   4.41069   4.41069   4.44038
 Alpha virt. eigenvalues --    4.44038   4.50573   4.50573   4.54143   4.59071
 Alpha virt. eigenvalues --    4.60557   4.65182   4.65182   4.73930   4.73930
 Alpha virt. eigenvalues --    4.79796   4.87007   4.87007   4.88838   4.93050
 Alpha virt. eigenvalues --    4.93050   5.00935   5.02268   5.07093   5.11912
 Alpha virt. eigenvalues --    5.11912   5.20236   5.28170   5.37472   5.37472
 Alpha virt. eigenvalues --    5.48975   5.48975   5.56568   5.63866   5.71319
 Alpha virt. eigenvalues --    5.71319   5.77981   5.77981   5.79872   5.79872
 Alpha virt. eigenvalues --    5.88503   5.90759   5.97615   6.02706   6.02706
 Alpha virt. eigenvalues --    6.09984   6.11336   6.11336   6.52765   6.52765
 Alpha virt. eigenvalues --    6.97119   6.97119
          Condensed to atoms (all electrons):
               1          2          3          4          5          6
     1  C    4.820286   0.257602   0.257602   0.429966  -0.022394  -0.022394
     2  C    0.257602   4.820286   0.257602  -0.022394   0.429966  -0.022394
     3  C    0.257602   0.257602   4.820286  -0.022394  -0.022394   0.429966
     4  H    0.429966  -0.022394  -0.022394   0.587484  -0.006263  -0.006263
     5  H   -0.022394   0.429966  -0.022394  -0.006263   0.587484  -0.006263
     6  H   -0.022394  -0.022394   0.429966  -0.006263  -0.006263   0.587484
     7  H    0.429966  -0.022394  -0.022394  -0.018356   0.002649   0.002649
     8  H   -0.022394   0.429966  -0.022394   0.002649  -0.018356   0.002649
     9  H   -0.022394  -0.022394   0.429966   0.002649   0.002649  -0.018356
               7          8          9
     1  C    0.429966  -0.022394  -0.022394
     2  C   -0.022394   0.429966  -0.022394
     3  C   -0.022394  -0.022394   0.429966
     4  H   -0.018356   0.002649   0.002649
     5  H    0.002649  -0.018356   0.002649
     6  H    0.002649   0.002649  -0.018356
     7  H    0.587484  -0.006263  -0.006263
     8  H   -0.006263   0.587484  -0.006263
     9  H   -0.006263  -0.006263   0.587484
 Mulliken charges:
               1
     1  C   -0.105844
     2  C   -0.105844
     3  C   -0.105844
     4  H    0.052922
     5  H    0.052922
     6  H    0.052922
     7  H    0.052922
     8  H    0.052922
     9  H    0.052922
 Sum of Mulliken charges =   0.00000
 Mulliken charges with hydrogens summed into heavy atoms:
               1
     1  C    0.000000
     2  C    0.000000
     3  C    0.000000
 Electronic spatial extent (au):  <R**2>=            156.5258
 Charge=              0.0000 electrons
 Dipole moment (field-independent basis, Debye):
    X=             -0.0000    Y=             -0.0000    Z=              0.0000  Tot=              0.0000
 Quadrupole moment (field-independent basis, Debye-Ang):
   XX=            -20.9264   YY=            -20.9264   ZZ=            -18.6277
   XY=             -0.0000   XZ=             -0.0000   YZ=             -0.0000
 Traceless Quadrupole moment (field-independent basis, Debye-Ang):
   XX=             -0.7662   YY=             -0.7662   ZZ=              1.5325
   XY=             -0.0000   XZ=             -0.0000   YZ=             -0.0000
 Octapole moment (field-independent basis, Debye-Ang**2):
  XXX=              0.0000  YYY=              2.1338  ZZZ=             -0.0000  XYY=              0.0000
  XXY=             -2.1338  XXZ=              0.0000  XZZ=              0.0000  YZZ=              0.0000
  YYZ=              0.0000  XYZ=              0.0000
 Hexadecapole moment (field-independent basis, Debye-Ang**3):
 XXXX=            -90.8199 YYYY=            -90.8199 ZZZZ=            -41.1550 XXXY=              0.0000
 XXXZ=              0.0000 YYYX=              0.0000 YYYZ=             -0.0000 ZZZX=             -0.0000
 ZZZY=              0.0000 XXYY=            -30.2733 XXZZ=            -19.8815 YYZZ=            -19.8815
 XXYZ=              0.0000 YYXZ=             -0.0000 ZZXY=              0.0000
 N-N= 7.587627298027D+01 E-N=-4.245229334692D+02  KE= 1.173947465869D+02
 Symmetry A1   KE= 7.422231231260D+01
 Symmetry A2   KE= 2.143175937639D+00
 Symmetry B1   KE= 3.707911988066D+01
 Symmetry B2   KE= 3.950138456004D+00
 Calling FoFJK, ICntrl=      2127 FMM=F ISym2X=1 I1Cent= 0 IOpClX= 0 NMat=1 NMatS=1 NMatT=0.
 ***** Axes restored to original set *****
 -------------------------------------------------------------------
 Center     Atomic                   Forces (Hartrees/Bohr)
 Number     Number              X              Y              Z
 -------------------------------------------------------------------
      1        6          -0.000000000   -0.000159694    0.000000000
      2        6          -0.000138299    0.000079847    0.000000000
      3        6           0.000138299    0.000079847    0.000000000
      4        1          -0.000000000   -0.000107219    0.000069168
      5        1          -0.000092855    0.000053610    0.000069168
      6        1           0.000092855    0.000053610    0.000069168
      7        1          -0.000000000   -0.000107219   -0.000069168
      8        1          -0.000092855    0.000053610   -0.000069168
      9        1           0.000092855    0.000053610   -0.000069168
 -------------------------------------------------------------------
 Cartesian Forces:  Max     0.000159694 RMS     0.000080320

 GradGradGradGradGradGradGradGradGradGradGradGradGradGradGradGradGradGrad
 Berny optimization.
 FormGI is forming the generalized inverse of G from B-inverse, IUseBI=4.
 Internal  Forces:  Max     0.000216005 RMS     0.000078408
 Search for a local minimum.
 Step number   1 out of a maximum of   46
 All quantities printed in internal units (Hartrees-Bohrs-Radians)
 Mixed Optimization -- En-DIIS/RFO-DIIS
 Second derivative matrix not updated -- first step.
 ITU=  0
     Eigenvalues ---    0.01998   0.03087   0.03087   0.03087   0.03469
     Eigenvalues ---    0.03469   0.10502   0.10502   0.10957   0.16000
     Eigenvalues ---    0.16000   0.16000   0.28141   0.28141   0.31931
     Eigenvalues ---    0.35897   0.35897   0.35897   0.35897   0.35897
     Eigenvalues ---    0.35897
 RFO step:  Lambda=-1.18073573D-06 EMin= 1.99848844D-02
 Linear search not attempted -- first point.
 Iteration  1 RMS(Cart)=  0.00054849 RMS(Int)=  0.00000011
 Iteration  2 RMS(Cart)=  0.00000010 RMS(Int)=  0.00000005
 ClnCor:  largest displacement from symmetrization is 5.83D-09 for atom     7.
 Variable       Old X    -DE/DX   Delta X   Delta X   Delta X     New X
                                 (Linear)    (Quad)   (Total)
    R1        2.84271  -0.00022   0.00000  -0.00068  -0.00068   2.84204
    R2        2.84271  -0.00022   0.00000  -0.00068  -0.00068   2.84204
    R3        2.04243  -0.00000   0.00000  -0.00000  -0.00000   2.04243
    R4        2.04243  -0.00000   0.00000  -0.00000  -0.00000   2.04243
    R5        2.84271  -0.00022   0.00000  -0.00068  -0.00068   2.84204
    R6        2.04243  -0.00000   0.00000  -0.00000  -0.00000   2.04243
    R7        2.04243  -0.00000   0.00000  -0.00000  -0.00000   2.04243
    R8        2.04243  -0.00000   0.00000  -0.00000  -0.00000   2.04243
    R9        2.04243  -0.00000   0.00000  -0.00000  -0.00000   2.04243
    A1        2.06136  -0.00004   0.00000  -0.00039  -0.00039   2.06097
    A2        2.06136  -0.00004   0.00000  -0.00039  -0.00039   2.06097
    A3        2.06136  -0.00004   0.00000  -0.00039  -0.00039   2.06097
    A4        2.06136  -0.00004   0.00000  -0.00039  -0.00039   2.06097
    A5        1.99119   0.00010   0.00000   0.00095   0.00095   1.99214
    A6        2.06136  -0.00004   0.00000  -0.00039  -0.00039   2.06097
    A7        2.06136  -0.00004   0.00000  -0.00039  -0.00039   2.06097
    A8        2.06136  -0.00004   0.00000  -0.00039  -0.00039   2.06097
    A9        2.06136  -0.00004   0.00000  -0.00039  -0.00039   2.06097
   A10        1.99119   0.00010   0.00000   0.00095   0.00095   1.99214
   A11        2.06136  -0.00004   0.00000  -0.00039  -0.00039   2.06097
   A12        2.06136  -0.00004   0.00000  -0.00039  -0.00039   2.06097
   A13        2.06136  -0.00004   0.00000  -0.00039  -0.00039   2.06097
   A14        2.06136  -0.00004   0.00000  -0.00039  -0.00039   2.06097
   A15        1.99119   0.00010   0.00000   0.00095   0.00095   1.99214
    D1        0.00000  -0.00000   0.00000   0.00000  -0.00000   0.00000
    D2       -2.51464  -0.00007   0.00000  -0.00061  -0.00061  -2.51525
    D3        2.51464   0.00007   0.00000   0.00061   0.00061   2.51525
    D4       -0.00000  -0.00000   0.00000  -0.00000   0.00000   0.00000
    D5       -0.00000   0.00000   0.00000   0.00000   0.00000   0.00000
    D6        2.51464   0.00007   0.00000   0.00061   0.00061   2.51525
    D7       -2.51464  -0.00007   0.00000  -0.00061  -0.00061  -2.51525
    D8       -0.00000   0.00000   0.00000   0.00000   0.00000   0.00000
    D9       -0.00000   0.00000   0.00000  -0.00000   0.00000   0.00000
   D10       -2.51464  -0.00007   0.00000  -0.00061  -0.00061  -2.51525
   D11        2.51464   0.00007   0.00000   0.00061   0.00061   2.51525
   D12       -0.00000  -0.00000   0.00000   0.00000   0.00000   0.00000
         Item               Value     Threshold  Converged?
 Maximum Force            0.000216     0.000450     YES
 RMS     Force            0.000078     0.000300     YES
 Maximum Displacement     0.001205     0.001800     YES
 RMS     Displacement     0.000549     0.001200     YES
 Predicted change in Energy=-5.903155D-07
 Optimization completed.
    -- Stationary point found.
                           ----------------------------
                           !   Optimized Parameters   !
                           ! (Angstroms and Degrees)  !
 --------------------------                            --------------------------
 ! Name  Definition              Value          Derivative Info.                !
 --------------------------------------------------------------------------------
 ! R1    R(1,2)                  1.5043         -DE/DX =   -0.0002              !
 ! R2    R(1,3)                  1.5043         -DE/DX =   -0.0002              !
 ! R3    R(1,4)                  1.0808         -DE/DX =    0.0                 !
 ! R4    R(1,7)                  1.0808         -DE/DX =    0.0                 !
 ! R5    R(2,3)                  1.5043         -DE/DX =   -0.0002              !
 ! R6    R(2,5)                  1.0808         -DE/DX =    0.0                 !
 ! R7    R(2,8)                  1.0808         -DE/DX =    0.0                 !
 ! R8    R(3,6)                  1.0808         -DE/DX =    0.0                 !
 ! R9    R(3,9)                  1.0808         -DE/DX =    0.0                 !
 ! A1    A(2,1,4)              118.107          -DE/DX =    0.0                 !
 ! A2    A(2,1,7)              118.107          -DE/DX =    0.0                 !
 ! A3    A(3,1,4)              118.107          -DE/DX =    0.0                 !
 ! A4    A(3,1,7)              118.107          -DE/DX =    0.0                 !
 ! A5    A(4,1,7)              114.087          -DE/DX =    0.0001              !
 ! A6    A(1,2,5)              118.107          -DE/DX =    0.0                 !
 ! A7    A(1,2,8)              118.107          -DE/DX =    0.0                 !
 ! A8    A(3,2,5)              118.107          -DE/DX =    0.0                 !
 ! A9    A(3,2,8)              118.107          -DE/DX =    0.0                 !
 ! A10   A(5,2,8)              114.087          -DE/DX =    0.0001              !
 ! A11   A(1,3,6)              118.107          -DE/DX =    0.0                 !
 ! A12   A(1,3,9)              118.107          -DE/DX =    0.0                 !
 ! A13   A(2,3,6)              118.107          -DE/DX =    0.0                 !
 ! A14   A(2,3,9)              118.107          -DE/DX =    0.0                 !
 ! A15   A(6,3,9)              114.087          -DE/DX =    0.0001              !
 ! D1    D(4,1,2,5)              0.0            -DE/DX =    0.0                 !
 ! D2    D(4,1,2,8)           -144.0783         -DE/DX =   -0.0001              !
 ! D3    D(7,1,2,5)            144.0783         -DE/DX =    0.0001              !
 ! D4    D(7,1,2,8)              0.0            -DE/DX =    0.0                 !
 ! D5    D(4,1,3,6)              0.0            -DE/DX =    0.0                 !
 ! D6    D(4,1,3,9)            144.0783         -DE/DX =    0.0001              !
 ! D7    D(7,1,3,6)           -144.0783         -DE/DX =   -0.0001              !
 ! D8    D(7,1,3,9)              0.0            -DE/DX =    0.0                 !
 ! D9    D(5,2,3,6)              0.0            -DE/DX =    0.0                 !
 ! D10   D(5,2,3,9)           -144.0783         -DE/DX =   -0.0001              !
 ! D11   D(8,2,3,6)            144.0783         -DE/DX =    0.0001              !
 ! D12   D(8,2,3,9)              0.0            -DE/DX =    0.0                 !
 --------------------------------------------------------------------------------
 GradGradGradGradGradGradGradGradGradGradGradGradGradGradGradGradGradGrad

                          Input orientation:                          
 ---------------------------------------------------------------------
 Center     Atomic      Atomic             Coordinates (Angstroms)
 Number     Number       Type             X           Y           Z
 ---------------------------------------------------------------------
      1          6           0        0.000000    0.868507    0.000000
      2          6           0        0.752149   -0.434254    0.000000
      3          6           0       -0.752149   -0.434254    0.000000
      4          1           0        0.000000    1.456469    0.906888
      5          1           0        1.261339   -0.728235    0.906888
      6          1           0       -1.261339   -0.728235    0.906888
      7          1           0        0.000000    1.456469   -0.906888
      8          1           0        1.261339   -0.728235   -0.906888
      9          1           0       -1.261339   -0.728235   -0.906888
 ---------------------------------------------------------------------
                    Distance matrix (angstroms):
                    1          2          3          4          5
     1  C    0.000000
     2  C    1.504299   0.000000
     3  C    1.504299   1.504299   0.000000
     4  H    1.080808   2.227781   2.227781   0.000000
     5  H    2.227781   1.080808   2.227781   2.522679   0.000000
     6  H    2.227781   2.227781   1.080808   2.522679   2.522679
     7  H    1.080808   2.227781   2.227781   1.813776   3.107039
     8  H    2.227781   1.080808   2.227781   3.107039   1.813776
     9  H    2.227781   2.227781   1.080808   3.107039   3.107039
                    6          7          8          9
     6  H    0.000000
     7  H    3.107039   0.000000
     8  H    3.107039   2.522679   0.000000
     9  H    1.813776   2.522679   2.522679   0.000000
 Stoichiometry    C3H6
 Framework group  D3H[3C2(C),3SGV(H2)]
 Deg. of freedom     3
 Full point group                 D3H     NOp  12
 Largest Abelian subgroup         C2V     NOp   4
 Largest concise Abelian subgroup C2V     NOp   4
                         Standard orientation:                         
 ---------------------------------------------------------------------
 Center     Atomic      Atomic             Coordinates (Angstroms)
 Number     Number       Type             X           Y           Z
 ---------------------------------------------------------------------
      1          6           0       -0.000000    0.868507    0.000000
      2          6           0        0.752149   -0.434254    0.000000
      3          6           0       -0.752149   -0.434254    0.000000
      4          1           0       -0.000000    1.456469    0.906888
      5          1           0        1.261339   -0.728235    0.906888
      6          1           0       -1.261339   -0.728235    0.906888
      7          1           0        0.000000    1.456469   -0.906888
      8          1           0        1.261339   -0.728235   -0.906888
      9          1           0       -1.261339   -0.728235   -0.906888
 ---------------------------------------------------------------------
 Rotational constants (GHZ):          20.2439239          20.2439239          12.6400434
 1\1\GINC-GAMBA\FOpt\RB3LYP\Gen\C3H6\IRIKURA\30-Sep-2023\0\\# b3lyp/gen
  opt freq CPHF(Grid=OneStep)\\cyclopropane, B3LYP/pcseg-2\\0,1\C,0.000
 0000817,0.868507,0.\C,0.7521492289,-0.4342538207,0.\C,-0.7521493105,-0
 .4342536793,0.\H,0.0000001369,1.456469,0.906888\H,1.2613392297,-0.7282
 348686,0.906888\H,-1.2613393666,-0.7282346314,0.906888\H,0.0000001369,
 1.456469,-0.906888\H,1.2613392297,-0.7282348686,-0.906888\H,-1.2613393
 666,-0.7282346314,-0.906888\\Version=ES64L-G16RevB.01\State=1-A1'\HF=-
 117.9461833\RMSD=3.557e-09\RMSF=8.032e-05\Dipole=0.,0.,0.\Quadrupole=-
 0.5696728,-0.5696728,1.1393456,0.,0.,0.\PG=D03H [3C2(C1),3SGV(H2)]\\@


 I think that all right-thinking people in this
 country are sick and tired of being told that
 ordinary, decent people are fed up in this country
 with being sick and tired.  I'm certainly not!
 But I'm sick and tired of being told that I am!
                               -- Monty Python
 Job cpu time:       0 days  0 hours  0 minutes 27.0 seconds.
 Elapsed time:       0 days  0 hours  0 minutes  6.9 seconds.
 File lengths (MBytes):  RWF=     16 Int=      0 D2E=      0 Chk=      3 Scr=      1
 Normal termination of Gaussian 16 at Sat Sep 30 10:12:37 2023.
 Link1:  Proceeding to internal job step number  2.
 ------------------------------------------------------------------
 #N Geom=AllCheck Guess=TCheck SCRF=Check GenChk RB3LYP/ChkBas Freq
 ------------------------------------------------------------------
 1/10=4,29=7,30=1,38=1,40=1/1,3;
 2/12=2,40=1/2;
 3/5=7,6=2,11=2,14=-4,25=1,30=1,67=1,70=2,71=2,74=-5,82=7,116=1,140=1/1,2,3;
 4/5=101/1;
 5/5=2,38=6,98=1/2;
 8/6=4,10=90,11=11/1;
 11/6=1,8=1,9=11,15=111,16=1/1,2,10;
 10/6=1,60=-420/2;
 6/7=2,8=2,9=2,10=2,28=1/1;
 7/8=1,10=1,25=1/1,2,3,16;
 1/10=4,30=1/3;
 99//99;
 Structure from the checkpoint file:  "cyc3.chk"
 ---------------------------
 cyclopropane, B3LYP/pcseg-2
 ---------------------------
 Charge =  0 Multiplicity = 1
 Redundant internal coordinates found in file.  (old form).
 C,0,0.0000000817,0.868507,0.
 C,0,0.7521492289,-0.4342538207,0.
 C,0,-0.7521493105,-0.4342536793,0.
 H,0,0.0000001369,1.456469,0.906888
 H,0,1.2613392297,-0.7282348686,0.906888
 H,0,-1.2613393666,-0.7282346314,0.906888
 H,0,0.0000001369,1.456469,-0.906888
 H,0,1.2613392297,-0.7282348686,-0.906888
 H,0,-1.2613393666,-0.7282346314,-0.906888
 Recover connectivity data from disk.

 GradGradGradGradGradGradGradGradGradGradGradGradGradGradGradGradGradGrad
 Berny optimization.
 Initialization pass.
                           ----------------------------
                           !    Initial Parameters    !
                           ! (Angstroms and Degrees)  !
 --------------------------                            --------------------------
 ! Name  Definition              Value          Derivative Info.                !
 --------------------------------------------------------------------------------
 ! R1    R(1,2)                  1.5043         calculate D2E/DX2 analytically  !
 ! R2    R(1,3)                  1.5043         calculate D2E/DX2 analytically  !
 ! R3    R(1,4)                  1.0808         calculate D2E/DX2 analytically  !
 ! R4    R(1,7)                  1.0808         calculate D2E/DX2 analytically  !
 ! R5    R(2,3)                  1.5043         calculate D2E/DX2 analytically  !
 ! R6    R(2,5)                  1.0808         calculate D2E/DX2 analytically  !
 ! R7    R(2,8)                  1.0808         calculate D2E/DX2 analytically  !
 ! R8    R(3,6)                  1.0808         calculate D2E/DX2 analytically  !
 ! R9    R(3,9)                  1.0808         calculate D2E/DX2 analytically  !
 ! A1    A(2,1,4)              118.107          calculate D2E/DX2 analytically  !
 ! A2    A(2,1,7)              118.107          calculate D2E/DX2 analytically  !
 ! A3    A(3,1,4)              118.107          calculate D2E/DX2 analytically  !
 ! A4    A(3,1,7)              118.107          calculate D2E/DX2 analytically  !
 ! A5    A(4,1,7)              114.087          calculate D2E/DX2 analytically  !
 ! A6    A(1,2,5)              118.107          calculate D2E/DX2 analytically  !
 ! A7    A(1,2,8)              118.107          calculate D2E/DX2 analytically  !
 ! A8    A(3,2,5)              118.107          calculate D2E/DX2 analytically  !
 ! A9    A(3,2,8)              118.107          calculate D2E/DX2 analytically  !
 ! A10   A(5,2,8)              114.087          calculate D2E/DX2 analytically  !
 ! A11   A(1,3,6)              118.107          calculate D2E/DX2 analytically  !
 ! A12   A(1,3,9)              118.107          calculate D2E/DX2 analytically  !
 ! A13   A(2,3,6)              118.107          calculate D2E/DX2 analytically  !
 ! A14   A(2,3,9)              118.107          calculate D2E/DX2 analytically  !
 ! A15   A(6,3,9)              114.087          calculate D2E/DX2 analytically  !
 ! D1    D(4,1,2,5)              0.0            calculate D2E/DX2 analytically  !
 ! D2    D(4,1,2,8)           -144.0783         calculate D2E/DX2 analytically  !
 ! D3    D(7,1,2,5)            144.0783         calculate D2E/DX2 analytically  !
 ! D4    D(7,1,2,8)              0.0            calculate D2E/DX2 analytically  !
 ! D5    D(4,1,3,6)              0.0            calculate D2E/DX2 analytically  !
 ! D6    D(4,1,3,9)            144.0783         calculate D2E/DX2 analytically  !
 ! D7    D(7,1,3,6)           -144.0783         calculate D2E/DX2 analytically  !
 ! D8    D(7,1,3,9)              0.0            calculate D2E/DX2 analytically  !
 ! D9    D(5,2,3,6)              0.0            calculate D2E/DX2 analytically  !
 ! D10   D(5,2,3,9)           -144.0783         calculate D2E/DX2 analytically  !
 ! D11   D(8,2,3,6)            144.0783         calculate D2E/DX2 analytically  !
 ! D12   D(8,2,3,9)              0.0            calculate D2E/DX2 analytically  !
 --------------------------------------------------------------------------------
 Trust Radius=3.00D-01 FncErr=1.00D-07 GrdErr=1.00D-07 EigMax=2.50D+02 EigMin=1.00D-04
 Number of steps in this run=      2 maximum allowed number of steps=      2.
 GradGradGradGradGradGradGradGradGradGradGradGradGradGradGradGradGradGrad

                          Input orientation:                          
 ---------------------------------------------------------------------
 Center     Atomic      Atomic             Coordinates (Angstroms)
 Number     Number       Type             X           Y           Z
 ---------------------------------------------------------------------
      1          6           0        0.000000    0.868507    0.000000
      2          6           0        0.752149   -0.434254    0.000000
      3          6           0       -0.752149   -0.434254    0.000000
      4          1           0        0.000000    1.456469    0.906888
      5          1           0        1.261339   -0.728235    0.906888
      6          1           0       -1.261339   -0.728235    0.906888
      7          1           0        0.000000    1.456469   -0.906888
      8          1           0        1.261339   -0.728235   -0.906888
      9          1           0       -1.261339   -0.728235   -0.906888
 ---------------------------------------------------------------------
                    Distance matrix (angstroms):
                    1          2          3          4          5
     1  C    0.000000
     2  C    1.504299   0.000000
     3  C    1.504299   1.504299   0.000000
     4  H    1.080808   2.227781   2.227781   0.000000
     5  H    2.227781   1.080808   2.227781   2.522679   0.000000
     6  H    2.227781   2.227781   1.080808   2.522679   2.522679
     7  H    1.080808   2.227781   2.227781   1.813776   3.107039
     8  H    2.227781   1.080808   2.227781   3.107039   1.813776
     9  H    2.227781   2.227781   1.080808   3.107039   3.107039
                    6          7          8          9
     6  H    0.000000
     7  H    3.107039   0.000000
     8  H    3.107039   2.522679   0.000000
     9  H    1.813776   2.522679   2.522679   0.000000
 Stoichiometry    C3H6
 Framework group  D3H[3C2(C),3SGV(H2)]
 Deg. of freedom     3
 Full point group                 D3H     NOp  12
 Largest Abelian subgroup         C2V     NOp   4
 Largest concise Abelian subgroup C2V     NOp   4
                         Standard orientation:                         
 ---------------------------------------------------------------------
 Center     Atomic      Atomic             Coordinates (Angstroms)
 Number     Number       Type             X           Y           Z
 ---------------------------------------------------------------------
      1          6           0       -0.000000    0.868507   -0.000000
      2          6           0        0.752149   -0.434254   -0.000000
      3          6           0       -0.752149   -0.434254   -0.000000
      4          1           0       -0.000000    1.456469    0.906888
      5          1           0        1.261339   -0.728235    0.906888
      6          1           0       -1.261339   -0.728235    0.906888
      7          1           0        0.000000    1.456469   -0.906888
      8          1           0        1.261339   -0.728235   -0.906888
      9          1           0       -1.261339   -0.728235   -0.906888
 ---------------------------------------------------------------------
 Rotational constants (GHZ):          20.2439239          20.2439239          12.6400434
 Basis read from chk: "cyc3.chk" (5D, 7F)
 There are    66 symmetry adapted cartesian basis functions of A1  symmetry.
 There are    33 symmetry adapted cartesian basis functions of A2  symmetry.
 There are    51 symmetry adapted cartesian basis functions of B1  symmetry.
 There are    45 symmetry adapted cartesian basis functions of B2  symmetry.
 There are    57 symmetry adapted basis functions of A1  symmetry.
 There are    31 symmetry adapted basis functions of A2  symmetry.
 There are    45 symmetry adapted basis functions of B1  symmetry.
 There are    41 symmetry adapted basis functions of B2  symmetry.
   174 basis functions,   261 primitive gaussians,   195 cartesian basis functions
    12 alpha electrons       12 beta electrons
       nuclear repulsion energy        75.8762729803 Hartrees.
 NAtoms=    9 NActive=    9 NUniq=    2 SFac= 4.00D+00 NAtFMM=   60 NAOKFM=F Big=F
 Integral buffers will be    131072 words long.
 Raffenetti 2 integral format.
 Two-electron integral symmetry is turned on.
 One-electron integrals computed using PRISM.
 NBasis=   174 RedAO= T EigKep=  6.40D-04  NBF=    57    31    45    41
 NBsUse=   174 1.00D-06 EigRej= -1.00D+00 NBFU=    57    31    45    41
 Initial guess from the checkpoint file:  "cyc3.chk"
 B after Tr=     0.000000   -0.000000    0.000000
         Rot=    1.000000    0.000000    0.000000    0.000000 Ang=   0.00 deg.
 Initial guess orbital symmetries:
       Occupied  (A1') (E') (E') (A1') (E') (E') (A2") (A1') (E")
                 (E") (E') (E')
       Virtual   (A1') (A2") (E') (E') (E") (E") (A2') (A1') (E')
                 (E') (E') (E') (A2") (E") (E") (A1') (A2") (A2')
                 (A1') (E') (E') (E") (E") (E') (E') (E') (E')
                 (A1") (A1') (E") (E") (A2") (A1') (E') (E') (E")
                 (E") (A1') (E') (E') (E") (E") (A2") (A2') (E')
                 (E') (E') (E') (E") (E") (A2") (A1') (E') (E')
                 (A2') (E') (E') (A2") (E") (E") (E') (E') (A1')
                 (A1") (E') (E') (E") (E") (A1') (A2') (A2") (E')
                 (E') (E") (E") (A1') (A1') (E') (E') (A2") (E")
                 (E") (E') (E') (A2") (A2') (E") (E") (A1") (E')
                 (E') (E") (E") (A1') (E") (E") (E') (E') (A2")
                 (A1') (A2") (E') (E') (A1') (A2') (A1") (E") (E")
                 (E") (E") (E') (E') (E") (E") (E') (E') (E') (E')
                 (A1") (A2') (A1') (E') (E') (E") (E") (A2") (E')
                 (E') (A2') (E") (E") (A1') (A2') (A1") (E') (E')
                 (A2") (A1') (E') (E') (E") (E") (A1') (A2") (E')
                 (E') (E') (E') (E") (E") (A2') (A1') (A1") (E')
                 (E') (A2") (E") (E") (E") (E") (E') (E')
 Keep R1 ints in memory in symmetry-blocked form, NReq=144977967.
 Requested convergence on RMS density matrix=1.00D-08 within 128 cycles.
 Requested convergence on MAX density matrix=1.00D-06.
 Requested convergence on             energy=1.00D-06.
 No special actions if energy rises.
 SCF Done:  E(RB3LYP) =  -117.946183263     A.U. after    1 cycles
            NFock=  1  Conv=0.54D-09     -V/T= 2.0047
 DoSCS=F DFT=T ScalE2(SS,OS)=  1.000000  1.000000
 Range of M.O.s used for correlation:     1   174
 NBasis=   174 NAE=    12 NBE=    12 NFC=     0 NFV=     0
 NROrb=    174 NOA=    12 NOB=    12 NVA=   162 NVB=   162

 **** Warning!!: The largest alpha MO coefficient is  0.22879370D+02

 Symmetrizing basis deriv contribution to polar:
 IMax=3 JMax=2 DiffMx= 0.00D+00
 G2DrvN: will do    10 centers at a time, making    1 passes.
 Calling FoFCou, ICntrl=  3107 FMM=F I1Cent=   0 AccDes= 0.00D+00.
 End of G2Drv F.D. properties file   721 does not exist.
 End of G2Drv F.D. properties file   722 does not exist.
 End of G2Drv F.D. properties file   788 does not exist.
          IDoAtm=111111111
          Differentiating once with respect to electric field.
                with respect to dipole field.
          Differentiating once with respect to nuclear coordinates.
 Keep R1 ints in memory in symmetry-blocked form, NReq=144983575.
          There are     9 degrees of freedom in the 1st order CPHF.  IDoFFX=4 NUNeed=     9.
      9 vectors produced by pass  0 Test12= 2.16D-14 1.11D-08 XBig12= 2.39D+01 2.74D+00.
 AX will form     9 AO Fock derivatives at one time.
      9 vectors produced by pass  1 Test12= 2.16D-14 1.11D-08 XBig12= 4.06D+00 6.24D-01.
      9 vectors produced by pass  2 Test12= 2.16D-14 1.11D-08 XBig12= 3.47D-01 1.94D-01.
      9 vectors produced by pass  3 Test12= 2.16D-14 1.11D-08 XBig12= 6.07D-03 1.76D-02.
      9 vectors produced by pass  4 Test12= 2.16D-14 1.11D-08 XBig12= 2.69D-05 1.44D-03.
      9 vectors produced by pass  5 Test12= 2.16D-14 1.11D-08 XBig12= 2.09D-07 1.41D-04.
      7 vectors produced by pass  6 Test12= 2.16D-14 1.11D-08 XBig12= 1.29D-09 8.48D-06.
      2 vectors produced by pass  7 Test12= 2.16D-14 1.11D-08 XBig12= 3.03D-12 4.32D-07.
      2 vectors produced by pass  8 Test12= 2.16D-14 1.11D-08 XBig12= 4.91D-15 2.84D-08.
 InvSVY:  IOpt=1 It=  1 EMax= 7.82D-16
 Solved reduced A of dimension    65 with     9 vectors.
 Isotropic polarizability for W=    0.000000       35.50 Bohr**3.
 End of Minotr F.D. properties file   721 does not exist.
 End of Minotr F.D. properties file   722 does not exist.
 End of Minotr F.D. properties file   788 does not exist.

 **********************************************************************

            Population analysis using the SCF Density.

 **********************************************************************

 Orbital symmetries:
       Occupied  (A1') (E') (E') (A1') (E') (E') (A2") (A1') (E")
                 (E") (E') (E')
       Virtual   (A1') (A2") (E') (E') (E") (E") (A2') (A1') (E')
                 (E') (E') (E') (A2") (E") (E") (A1') (A2") (A2')
                 (A1') (E') (E') (E") (E") (E') (E') (E') (E')
                 (A1") (A1') (E") (E") (A2") (A1') (E') (E') (E")
                 (E") (A1') (E') (E') (E") (E") (A2") (A2') (E')
                 (E') (E') (E') (E") (E") (A2") (A1') (E') (E')
                 (A2') (E') (E') (A2") (E") (E") (E') (E') (A1')
                 (A1") (E') (E') (E") (E") (A1') (A2') (A2") (E')
                 (E') (E") (E") (A1') (A1') (E') (E') (A2") (E")
                 (E") (E') (E') (A2") (A2') (E") (E") (A1") (E')
                 (E') (E") (E") (A1') (E") (E") (E') (E') (A2")
                 (A1') (A2") (E') (E') (A1') (A2') (A1") (E") (E")
                 (E") (E") (E') (E') (E") (E") (E') (E') (E') (E')
                 (A1") (A2') (A1') (E') (E') (E") (E") (A2") (E')
                 (E') (A2') (E") (E") (A1') (A2') (A1") (E') (E')
                 (A2") (A1') (E') (E') (E") (E") (A1') (A2") (E')
                 (E') (E') (E') (E") (E") (A2') (A1') (A1") (E')
                 (E') (A2") (E") (E") (E") (E") (E') (E')
 The electronic state is 1-A1'.
 Alpha  occ. eigenvalues --  -10.17064 -10.17023 -10.17023  -0.85193  -0.59921
 Alpha  occ. eigenvalues --   -0.59921  -0.49678  -0.46964  -0.36614  -0.36614
 Alpha  occ. eigenvalues --   -0.29939  -0.29939
 Alpha virt. eigenvalues --    0.02246   0.03856   0.04882   0.04882   0.11061
 Alpha virt. eigenvalues --    0.11061   0.11982   0.13232   0.15473   0.15473
 Alpha virt. eigenvalues --    0.21153   0.21153   0.23273   0.27121   0.27121
 Alpha virt. eigenvalues --    0.30888   0.31431   0.33010   0.33742   0.34886
 Alpha virt. eigenvalues --    0.34886   0.40148   0.40148   0.40739   0.40739
 Alpha virt. eigenvalues --    0.50285   0.50285   0.80339   0.85488   0.85677
 Alpha virt. eigenvalues --    0.85677   0.91367   0.92329   0.93875   0.93875
 Alpha virt. eigenvalues --    0.97463   0.97463   1.00955   1.01974   1.01974
 Alpha virt. eigenvalues --    1.05462   1.05462   1.07607   1.10011   1.10767
 Alpha virt. eigenvalues --    1.10767   1.27082   1.27082   1.36096   1.36096
 Alpha virt. eigenvalues --    1.38115   1.49471   1.54000   1.54000   1.54261
 Alpha virt. eigenvalues --    1.61604   1.61604   1.73954   1.75430   1.75430
 Alpha virt. eigenvalues --    1.77214   1.77214   1.83009   1.85244   1.90703
 Alpha virt. eigenvalues --    1.90703   2.00740   2.00740   2.06890   2.14927
 Alpha virt. eigenvalues --    2.22909   2.43846   2.43846   2.62814   2.62814
 Alpha virt. eigenvalues --    2.65220   2.90575   3.11319   3.11319   3.14925
 Alpha virt. eigenvalues --    3.29594   3.29594   3.35251   3.35251   3.40739
 Alpha virt. eigenvalues --    3.52426   3.57822   3.57822   3.60747   3.63204
 Alpha virt. eigenvalues --    3.63204   3.70793   3.70793   3.84923   3.93902
 Alpha virt. eigenvalues --    3.93902   3.97297   3.97297   4.02481   4.05509
 Alpha virt. eigenvalues --    4.09532   4.09593   4.09593   4.10535   4.14338
 Alpha virt. eigenvalues --    4.17547   4.22703   4.22703   4.36503   4.36503
 Alpha virt. eigenvalues --    4.39449   4.39449   4.41069   4.41069   4.44038
 Alpha virt. eigenvalues --    4.44038   4.50573   4.50573   4.54143   4.59071
 Alpha virt. eigenvalues --    4.60557   4.65182   4.65182   4.73930   4.73930
 Alpha virt. eigenvalues --    4.79796   4.87007   4.87007   4.88838   4.93050
 Alpha virt. eigenvalues --    4.93050   5.00935   5.02268   5.07093   5.11912
 Alpha virt. eigenvalues --    5.11912   5.20236   5.28170   5.37472   5.37472
 Alpha virt. eigenvalues --    5.48975   5.48975   5.56568   5.63866   5.71319
 Alpha virt. eigenvalues --    5.71319   5.77981   5.77981   5.79872   5.79872
 Alpha virt. eigenvalues --    5.88503   5.90759   5.97615   6.02706   6.02706
 Alpha virt. eigenvalues --    6.09984   6.11336   6.11336   6.52765   6.52765
 Alpha virt. eigenvalues --    6.97119   6.97119
          Condensed to atoms (all electrons):
               1          2          3          4          5          6
     1  C    4.820286   0.257602   0.257602   0.429966  -0.022394  -0.022394
     2  C    0.257602   4.820286   0.257602  -0.022394   0.429966  -0.022394
     3  C    0.257602   0.257602   4.820286  -0.022394  -0.022394   0.429966
     4  H    0.429966  -0.022394  -0.022394   0.587484  -0.006263  -0.006263
     5  H   -0.022394   0.429966  -0.022394  -0.006263   0.587484  -0.006263
     6  H   -0.022394  -0.022394   0.429966  -0.006263  -0.006263   0.587484
     7  H    0.429966  -0.022394  -0.022394  -0.018356   0.002649   0.002649
     8  H   -0.022394   0.429966  -0.022394   0.002649  -0.018356   0.002649
     9  H   -0.022394  -0.022394   0.429966   0.002649   0.002649  -0.018356
               7          8          9
     1  C    0.429966  -0.022394  -0.022394
     2  C   -0.022394   0.429966  -0.022394
     3  C   -0.022394  -0.022394   0.429966
     4  H   -0.018356   0.002649   0.002649
     5  H    0.002649  -0.018356   0.002649
     6  H    0.002649   0.002649  -0.018356
     7  H    0.587484  -0.006263  -0.006263
     8  H   -0.006263   0.587484  -0.006263
     9  H   -0.006263  -0.006263   0.587484
 Mulliken charges:
               1
     1  C   -0.105844
     2  C   -0.105844
     3  C   -0.105844
     4  H    0.052922
     5  H    0.052922
     6  H    0.052922
     7  H    0.052922
     8  H    0.052922
     9  H    0.052922
 Sum of Mulliken charges =  -0.00000
 Mulliken charges with hydrogens summed into heavy atoms:
               1
     1  C   -0.000000
     2  C   -0.000000
     3  C   -0.000000
 APT charges:
               1
     1  C    0.012899
     2  C    0.012896
     3  C    0.012896
     4  H   -0.006447
     5  H   -0.006447
     6  H   -0.006447
     7  H   -0.006447
     8  H   -0.006447
     9  H   -0.006447
 Sum of APT charges =   0.00001
 APT charges with hydrogens summed into heavy atoms:
               1
     1  C    0.000004
     2  C    0.000001
     3  C    0.000001
 Electronic spatial extent (au):  <R**2>=            156.5258
 Charge=              0.0000 electrons
 Dipole moment (field-independent basis, Debye):
    X=              0.0000    Y=              0.0000    Z=              0.0000  Tot=              0.0000
 Quadrupole moment (field-independent basis, Debye-Ang):
   XX=            -20.9264   YY=            -20.9264   ZZ=            -18.6277
   XY=              0.0000   XZ=             -0.0000   YZ=              0.0000
 Traceless Quadrupole moment (field-independent basis, Debye-Ang):
   XX=             -0.7662   YY=             -0.7662   ZZ=              1.5325
   XY=              0.0000   XZ=             -0.0000   YZ=              0.0000
 Octapole moment (field-independent basis, Debye-Ang**2):
  XXX=              0.0000  YYY=              2.1338  ZZZ=             -0.0000  XYY=              0.0000
  XXY=             -2.1338  XXZ=             -0.0000  XZZ=              0.0000  YZZ=              0.0000
  YYZ=              0.0000  XYZ=              0.0000
 Hexadecapole moment (field-independent basis, Debye-Ang**3):
 XXXX=            -90.8199 YYYY=            -90.8199 ZZZZ=            -41.1550 XXXY=              0.0000
 XXXZ=             -0.0000 YYYX=              0.0000 YYYZ=             -0.0000 ZZZX=             -0.0000
 ZZZY=              0.0000 XXYY=            -30.2733 XXZZ=            -19.8815 YYZZ=            -19.8815
 XXYZ=              0.0000 YYXZ=             -0.0000 ZZXY=              0.0000
 N-N= 7.587627298027D+01 E-N=-4.245229329702D+02  KE= 1.173947464316D+02
 Symmetry A1   KE= 7.422231226944D+01
 Symmetry A2   KE= 2.143175907230D+00
 Symmetry B1   KE= 3.707911986621D+01
 Symmetry B2   KE= 3.950138388677D+00
  Exact polarizability:  36.830   0.000  36.830   0.000   0.000  32.847
 Approx polarizability:  49.500   0.000  49.500   0.000   0.000  45.069
 Calling FoFJK, ICntrl=    100127 FMM=F ISym2X=1 I1Cent= 0 IOpClX= 0 NMat=1 NMatS=1 NMatT=0.
 Full mass-weighted force constant matrix:
 Low frequencies ---   -0.0018   -0.0011    0.0010   12.9935   12.9935   23.1357
 Low frequencies ---  744.4288  744.4288  861.7290
 Diagonal vibrational polarizability:
        1.0274778       1.0274516       0.1010037
 Harmonic frequencies (cm**-1), IR intensities (KM/Mole), Raman scattering
 activities (A**4/AMU), depolarization ratios for plane and unpolarized
 incident light, reduced masses (AMU), force constants (mDyne/A),
 and normal coordinates:
                      1                      2                      3
                     E"                     E"                     A2"
 Frequencies --    744.4287               744.4287               861.7290
 Red. masses --      1.0215                 1.0215                 1.0448
 Frc consts  --      0.3335                 0.3335                 0.4571
 IR Inten    --      0.0000                 0.0000                 0.6485
  Atom  AN      X      Y      Z        X      Y      Z        X      Y      Z
     1   6    -0.00   0.00   0.03     0.00   0.00   0.01     0.00  -0.00   0.03
     2   6    -0.00  -0.00  -0.01    -0.00   0.00  -0.03    -0.00   0.00   0.03
     3   6     0.00  -0.00  -0.02    -0.00  -0.00   0.02     0.00   0.00   0.03
     4   1    -0.13   0.31  -0.17     0.43   0.09  -0.05     0.00   0.36  -0.20
     5   1    -0.28  -0.34   0.04    -0.22   0.24   0.18     0.31  -0.18  -0.20
     6   1     0.35  -0.15   0.13    -0.02  -0.39  -0.12    -0.31  -0.18  -0.20
     7   1     0.13  -0.31  -0.17    -0.43  -0.09  -0.05     0.00  -0.36  -0.20
     8   1     0.28   0.34   0.04     0.22  -0.24   0.18    -0.31   0.18  -0.20
     9   1    -0.35   0.15   0.13     0.02   0.39  -0.12     0.31   0.18  -0.20
                      4                      5                      6
                     E'                     E'                     E'
 Frequencies --    878.9921               878.9921              1055.4952
 Red. masses --      3.8613                 3.8613                 1.2524
 Frc consts  --      1.7578                 1.7578                 0.8220
 IR Inten    --     19.7303                19.7295                10.6527
  Atom  AN      X      Y      Z        X      Y      Z        X      Y      Z
     1   6     0.27  -0.08   0.00     0.07   0.30  -0.00    -0.12  -0.00   0.00
     2   6    -0.09   0.28   0.00    -0.29  -0.06   0.00     0.00  -0.04  -0.00
     3   6    -0.22  -0.21  -0.00     0.21  -0.19   0.00    -0.02   0.08   0.00
     4   1     0.41  -0.06  -0.01     0.11   0.25   0.03     0.56   0.00  -0.00
     5   1    -0.01   0.35  -0.02    -0.31  -0.17  -0.02     0.08   0.16   0.02
     6   1    -0.16  -0.22   0.03     0.26  -0.32  -0.01     0.18  -0.33  -0.01
     7   1     0.41  -0.06   0.01     0.11   0.25  -0.03     0.56   0.00   0.00
     8   1    -0.01   0.35   0.02    -0.31  -0.17   0.02     0.08   0.16  -0.02
     9   1    -0.16  -0.22  -0.03     0.26  -0.32   0.01     0.18  -0.33   0.01
                      7                      8                      9
                     E'                     A2'                    A1"
 Frequencies --   1055.4952              1097.6529              1153.8505
 Red. masses --      1.2524                 1.4273                 1.0078
 Frc consts  --      0.8220                 1.0132                 0.7906
 IR Inten    --     10.6530                 0.0000                 0.0000
  Atom  AN      X      Y      Z        X      Y      Z        X      Y      Z
     1   6    -0.02   0.02  -0.00    -0.11  -0.00   0.00     0.00  -0.00  -0.00
     2   6    -0.06  -0.09   0.00     0.06   0.10  -0.00    -0.00  -0.00  -0.00
     3   6     0.06  -0.07   0.00     0.06  -0.10  -0.00    -0.00   0.00   0.00
     4   1     0.11  -0.01   0.02     0.40   0.00  -0.00     0.41  -0.00  -0.00
     5   1     0.27   0.47  -0.01    -0.20  -0.35  -0.00    -0.20  -0.35   0.00
     6   1    -0.22   0.37  -0.01    -0.20   0.35   0.00    -0.20   0.35   0.00
     7   1     0.11  -0.01  -0.02     0.40  -0.00  -0.00    -0.41  -0.00   0.00
     8   1     0.27   0.47   0.01    -0.20  -0.35   0.00     0.20   0.35   0.00
     9   1    -0.22   0.37   0.01    -0.20   0.35   0.00     0.20  -0.35  -0.00
                     10                     11                     12
                     A1'                    E"                     E"
 Frequencies --   1210.0572              1213.4054              1213.4054
 Red. masses --      2.7759                 1.4498                 1.4498
 Frc consts  --      2.3948                 1.2577                 1.2577
 IR Inten    --      0.0000                 0.0000                 0.0000
  Atom  AN      X      Y      Z        X      Y      Z        X      Y      Z
     1   6    -0.00   0.23   0.00    -0.00  -0.00  -0.07    -0.00   0.00   0.15
     2   6     0.20  -0.12   0.00     0.00  -0.00   0.16    -0.00  -0.00  -0.01
     3   6    -0.20  -0.12   0.00     0.00   0.00  -0.09     0.00  -0.00  -0.13
[...]
 Initial guess orbital symmetries:
       Occupied  (A1') (E') (E') (A1') (E') (E') (A2") (A1') (E")
                 (E") (E') (E')
       Virtual   (A1') (A2") (E') (E') (E") (E") (A2') (A1') (E')
                 (E') (E') (E') (A2") (E") (E") (A1') (A2") (A2')
                 (A1') (E') (E') (E") (E") (E') (E') (E') (E')
                 (A1") (A1') (E") (E") (A2") (A1') (E') (E') (E")
                 (E") (A1') (E') (E') (E") (E") (A2") (A2') (E')
                 (E') (E') (E') (E") (E") (A2") (A1') (E') (E')
                 (A2') (E') (E') (A2") (E") (E") (E') (E') (A1')
                 (A1") (E') (E') (E") (E") (A1') (A2') (A2") (E')
                 (E') (E") (E") (A1') (A1') (E') (E') (A2") (E")
                 (E") (E') (E') (A2") (A2') (E") (E") (A1") (E')
                 (E') (E") (E") (A1') (E") (E") (E') (E') (A2")
                 (A1') (A2") (E') (E') (A1') (A2') (A1") (E") (E")
                 (E") (E") (E') (E') (E") (E") (E') (E') (E') (E')
                 (A1") (A2') (A1') (E') (E') (E") (E") (A2") (E')
                 (E') (A2') (E") (E") (A1') (A2') (A1") (E') (E')
                 (A2") (A1') (E') (E') (E") (E") (A1') (A2") (E')
                 (E') (E') (E') (E") (E") (A2') (A1') (A1") (E')
                 (E') (A2") (E") (E") (E") (E") (E') (E') (E')
                 (A1') (E') (A1') (E') (E') (A1') (A1') (E') (E')
                 (A1') (E') (E') (A1') (A1') (E') (E') (A1') (E')
                 (E') (E') (A1') (E') (E') (A1') (A1') (E') (E')
                 (E') (E') (A1') (E") (E") (E") (A1") (E") (E")
                 (E") (E") (A1") (E") (E") (E") (E") (A1") (E")
                 (E') (E') (E') (A2') (E') (E') (E') (E') (E')
                 (A2') (A2') (E') (E') (E') (E') (E') (E') (A2')
                 (E') (A2') (E') (E') (E') (A2') (E') (A2') (A2")
                 (E") (A2") (E") (A2") (E") (A2") (E") (A2") (E")
                 (E") (A2") (A2") (E") (E") (E") (A2") (A2") (E")
                 (E") (E")
 Requested convergence on RMS density matrix=1.00D-08 within 128 cycles.
 Requested convergence on MAX density matrix=1.00D-06.
 Requested convergence on             energy=1.00D-06.
 No special actions if energy rises.
 SCF Done:  E(ROHF) =  -117.108155794     A.U. after    9 cycles
            NFock=  9  Conv=0.52D-08     -V/T= 2.0010
 <Sx>= 0.0000 <Sy>= 0.0000 <Sz>= 0.0000 <S**2>=-0.0000 S=-0.0000
 <L.S>=  0.00000000000    
 Annihilation of the first spin contaminant:
 S**2 before annihilation    -0.0000,   after     0.0000

 **********************************************************************

            Population analysis using the SCF Density.

 **********************************************************************

 Orbital symmetries:
       Occupied  (A1') (E') (E') (A1') (E') (E') (A2") (A1') (E")
                 (E") (E') (E')
       Virtual   (E') (E') (A1') (A2") (E") (E") (E') (E') (A1')
                 (A2') (E') (E') (A2") (A1') (E") (E") (E') (E')
                 (A2') (A1') (E') (E') (A2") (E") (E") (E') (E')
                 (A1') (A2") (E') (E') (A2') (E") (E") (A1') (A1")
                 (E') (E') (E") (E") (E') (E') (E') (E') (A1')
                 (A2") (E") (E") (A2') (A2") (E') (E') (A1') (E")
                 (E") (E') (E') (A1') (E") (E") (A2") (A1') (E')
                 (E') (A2') (E') (E') (A1") (E") (E") (E') (E')
                 (A2") (A1') (E') (E') (E") (E") (E') (E') (E')
                 (E') (A2") (E") (E") (A1') (E") (E") (A2") (A2')
                 (A1') (A2') (A1") (E') (E') (E") (E") (E") (E")
                 (E') (E') (A1') (A2") (A1') (A1") (E') (E') (E")
                 (E") (A2") (A1') (E') (E') (E') (E') (A2') (E")
                 (E") (A2") (E') (E') (E') (E') (A2') (A1') (E")
                 (E") (A1") (A2") (A2') (E') (E') (A1') (E') (E')
                 (E") (E") (E') (E') (E") (E") (E') (E') (A1')
                 (E") (E") (A2") (E") (E") (A2") (A1') (E') (E')
                 (A1") (E") (E") (A1') (A2') (A1") (E') (E') (E')
                 (E') (E") (E") (E') (E') (A1') (E") (E") (A2')
                 (A2") (E') (E') (A1') (A2") (E') (E') (A2") (E')
                 (E') (E") (E") (A1') (A2') (E") (E") (E') (E')
                 (A2') (E") (E") (E') (E') (A2") (A1") (A1') (E")
                 (E") (A1') (E') (E') (E') (E') (E") (E") (A1")
                 (A2") (E') (E') (E") (E") (A2') (A2') (E') (E')
                 (A2") (E') (E') (E") (E") (A1') (A1') (E") (E")
                 (A1") (E') (E') (A1') (E') (E') (A2") (E") (E")
                 (A1') (E') (E') (E') (E') (A2") (A2') (E") (E")
                 (E') (E') (A1') (A2") (E") (E") (A2') (E') (E')
                 (E') (E') (A1')
 The electronic state is 1-A1'.
 Alpha  occ. eigenvalues --  -11.22173 -11.22071 -11.22071  -1.13067  -0.81822
 Alpha  occ. eigenvalues --   -0.81822  -0.66699  -0.62811  -0.51182  -0.51182
 Alpha  occ. eigenvalues --   -0.41970  -0.41970
 Alpha virt. eigenvalues --    0.05211   0.05211   0.06260   0.06792   0.09497
 Alpha virt. eigenvalues --    0.09497   0.10300   0.10300   0.11970   0.13008
 Alpha virt. eigenvalues --    0.17645   0.17645   0.21996   0.24653   0.26627
 Alpha virt. eigenvalues --    0.26627   0.27287   0.27287   0.29163   0.32487
 Alpha virt. eigenvalues --    0.37046   0.37046   0.39464   0.39627   0.39627
 Alpha virt. eigenvalues --    0.39648   0.39648   0.41991   0.44209   0.52895
 Alpha virt. eigenvalues --    0.52895   0.53091   0.56632   0.56632   0.56989
 Alpha virt. eigenvalues --    0.58960   0.62557   0.62557   0.63528   0.63528
 Alpha virt. eigenvalues --    0.66992   0.66992   0.69686   0.69686   0.74540
 Alpha virt. eigenvalues --    0.74877   0.79800   0.79800   0.83080   0.85456
 Alpha virt. eigenvalues --    0.85890   0.85890   0.88533   0.96954   0.96954
 Alpha virt. eigenvalues --    1.00567   1.00567   1.01393   1.01896   1.01896
 Alpha virt. eigenvalues --    1.04332   1.07183   1.10997   1.10997   1.16821
 Alpha virt. eigenvalues --    1.19780   1.19780   1.26124   1.30497   1.30497
 Alpha virt. eigenvalues --    1.31385   1.31385   1.34587   1.49371   1.54198
 Alpha virt. eigenvalues --    1.54198   1.59882   1.59882   1.64369   1.64369
 Alpha virt. eigenvalues --    1.69169   1.69169   1.69535   1.72048   1.72048
 Alpha virt. eigenvalues --    1.72784   1.75001   1.75001   1.79089   1.79643
 Alpha virt. eigenvalues --    1.84431   1.86939   1.89578   1.92608   1.92608
 Alpha virt. eigenvalues --    1.93071   1.93071   1.95222   1.95222   1.98896
 Alpha virt. eigenvalues --    1.98896   1.99103   1.99425   2.04815   2.10603
 Alpha virt. eigenvalues --    2.10628   2.10628   2.12886   2.12886   2.18606
 Alpha virt. eigenvalues --    2.23118   2.23365   2.23365   2.28718   2.28718
 Alpha virt. eigenvalues --    2.30992   2.34426   2.34426   2.37583   2.45266
 Alpha virt. eigenvalues --    2.45266   2.46172   2.46172   2.51331   2.52802
 Alpha virt. eigenvalues --    2.55015   2.55015   2.66234   2.66311   2.68131
 Alpha virt. eigenvalues --    2.68610   2.68610   2.69118   2.74976   2.74976
 Alpha virt. eigenvalues --    2.75405   2.75405   2.77367   2.77367   2.84984
 Alpha virt. eigenvalues --    2.84984   2.97572   2.97572   3.05581   3.07284
 Alpha virt. eigenvalues --    3.07284   3.13950   3.19048   3.19048   3.28838
 Alpha virt. eigenvalues --    3.29409   3.30096   3.30096   3.34199   3.41506
 Alpha virt. eigenvalues --    3.41506   3.50449   3.51336   3.54501   3.55448
 Alpha virt. eigenvalues --    3.55448   3.59825   3.59825   3.75703   3.75703
 Alpha virt. eigenvalues --    3.85460   3.85460   3.89490   3.99568   3.99568
 Alpha virt. eigenvalues --    4.05858   4.15510   4.28105   4.28105   4.34861
 Alpha virt. eigenvalues --    4.68377   4.74879   4.74879   4.79447   4.90465
 Alpha virt. eigenvalues --    4.90465   4.91679   4.91679   5.00881   5.14398
 Alpha virt. eigenvalues --    5.21849   5.21849   5.58338   5.58338   5.64027
 Alpha virt. eigenvalues --    5.67529   5.67529   5.75430   5.75430   5.84787
 Alpha virt. eigenvalues --    5.84973   5.86342   5.94260   5.94260   6.08454
 Alpha virt. eigenvalues --    6.18455   6.18455   6.19276   6.19276   6.24030
 Alpha virt. eigenvalues --    6.24030   6.26387   6.34040   6.36169   6.36169
 Alpha virt. eigenvalues --    6.79144   6.79144   6.84419   6.96003   6.98153
 Alpha virt. eigenvalues --    6.98153   7.18922   7.29744   7.29744   7.30752
 Alpha virt. eigenvalues --    7.30752   7.58952   8.20346   8.37471   8.37471
 Alpha virt. eigenvalues --    8.51159   8.58601   8.58601   8.64555   8.73252
 Alpha virt. eigenvalues --    8.73252   8.79845   9.16604   9.16604   9.25058
 Alpha virt. eigenvalues --    9.60538   9.60538   9.65481   9.65481   9.70714
 Alpha virt. eigenvalues --    9.92148   9.92505   9.92505  21.34137  21.34137
 Alpha virt. eigenvalues --   21.50707  21.67049  21.72963  21.72963  21.82211
 Alpha virt. eigenvalues --   22.17076  22.17076  23.61177  23.61177  23.99096
          Condensed to atoms (all electrons):
               1          2          3          4          5          6
     1  C    5.063026   0.200371   0.200371   0.405348  -0.022905  -0.022905
     2  C    0.200371   5.063026   0.200371  -0.022905   0.405348  -0.022905
     3  C    0.200371   0.200371   5.063026  -0.022905  -0.022905   0.405348
     4  H    0.405348  -0.022905  -0.022905   0.579908  -0.006512  -0.006512
     5  H   -0.022905   0.405348  -0.022905  -0.006512   0.579908  -0.006512
     6  H   -0.022905  -0.022905   0.405348  -0.006512  -0.006512   0.579908
     7  H    0.405348  -0.022905  -0.022905  -0.019576   0.000865   0.000865
     8  H   -0.022905   0.405348  -0.022905   0.000865  -0.019576   0.000865
     9  H   -0.022905  -0.022905   0.405348   0.000865   0.000865  -0.019576
               7          8          9
     1  C    0.405348  -0.022905  -0.022905
     2  C   -0.022905   0.405348  -0.022905
     3  C   -0.022905  -0.022905   0.405348
     4  H   -0.019576   0.000865   0.000865
     5  H    0.000865  -0.019576   0.000865
     6  H    0.000865   0.000865  -0.019576
     7  H    0.579908  -0.006512  -0.006512
     8  H   -0.006512   0.579908  -0.006512
     9  H   -0.006512  -0.006512   0.579908
          Atomic-Atomic Spin Densities.
               1          2          3          4          5          6
     1  C   -0.000000  -0.000000  -0.000000  -0.000000   0.000000   0.000000
     2  C   -0.000000  -0.000000  -0.000000   0.000000  -0.000000   0.000000
     3  C   -0.000000  -0.000000  -0.000000   0.000000   0.000000  -0.000000
     4  H   -0.000000   0.000000   0.000000  -0.000000   0.000000   0.000000
     5  H    0.000000  -0.000000   0.000000   0.000000  -0.000000   0.000000
     6  H    0.000000   0.000000  -0.000000   0.000000   0.000000  -0.000000
     7  H   -0.000000   0.000000   0.000000   0.000000  -0.000000  -0.000000
     8  H    0.000000  -0.000000   0.000000  -0.000000   0.000000  -0.000000
     9  H    0.000000   0.000000  -0.000000  -0.000000  -0.000000   0.000000
               7          8          9
     1  C   -0.000000   0.000000   0.000000
     2  C    0.000000  -0.000000   0.000000
     3  C    0.000000   0.000000  -0.000000
     4  H    0.000000  -0.000000  -0.000000
     5  H   -0.000000   0.000000  -0.000000
     6  H   -0.000000  -0.000000   0.000000
     7  H   -0.000000   0.000000   0.000000
     8  H    0.000000  -0.000000   0.000000
     9  H    0.000000   0.000000  -0.000000
 Mulliken charges and spin densities:
               1          2
     1  C   -0.182845  -0.000000
     2  C   -0.182845  -0.000000
     3  C   -0.182845  -0.000000
     4  H    0.091422  -0.000000
     5  H    0.091422  -0.000000
     6  H    0.091422  -0.000000
     7  H    0.091422  -0.000000
     8  H    0.091422  -0.000000
     9  H    0.091422  -0.000000
 Sum of Mulliken charges =  -0.00000  -0.00000
 Mulliken charges and spin densities with hydrogens summed into heavy atoms:
               1          2
     1  C   -0.000000  -0.000000
     2  C   -0.000000  -0.000000
     3  C   -0.000000  -0.000000
 Electronic spatial extent (au):  <R**2>=            156.3181
 Charge=             -0.0000 electrons
 Dipole moment (field-independent basis, Debye):
    X=              0.0000    Y=              0.0000    Z=              0.0000  Tot=              0.0000
 Quadrupole moment (field-independent basis, Debye-Ang):
   XX=            -20.8238   YY=            -20.8238   ZZ=            -18.5535
   XY=              0.0000   XZ=             -0.0000   YZ=             -0.0000
 Traceless Quadrupole moment (field-independent basis, Debye-Ang):
   XX=             -0.7568   YY=             -0.7568   ZZ=              1.5135
   XY=              0.0000   XZ=             -0.0000   YZ=             -0.0000
 Octapole moment (field-independent basis, Debye-Ang**2):
  XXX=              0.0000  YYY=              2.1658  ZZZ=              0.0000  XYY=              0.0000
  XXY=             -2.1658  XXZ=              0.0000  XZZ=             -0.0000  YZZ=              0.0000
  YYZ=              0.0000  XYZ=              0.0000
 Hexadecapole moment (field-independent basis, Debye-Ang**3):
 XXXX=            -88.7152 YYYY=            -88.7152 ZZZZ=            -39.6726 XXXY=              0.0000
 XXXZ=             -0.0000 YYYX=              0.0000 YYYZ=              0.0000 ZZZX=              0.0000
 ZZZY=              0.0000 XXYY=            -29.5717 XXZZ=            -19.2599 YYZZ=            -19.2599
 XXYZ=             -0.0000 YYXZ=             -0.0000 ZZXY=              0.0000
 N-N= 7.587627298027D+01 E-N=-4.237805053772D+02  KE= 1.169884614175D+02
 Symmetry A1   KE= 7.404310970355D+01
 Symmetry A2   KE= 2.093609198426D+00
 Symmetry B1   KE= 3.701074688805D+01
 Symmetry B2   KE= 3.840995627503D+00
 Symmetry A1   SP=-4.202955888745D-15
 Symmetry A2   SP=-6.670959682660D-16
 Symmetry B1   SP=-2.055339075825D-15
 Symmetry B2   SP=-1.330294570505D-15
                          Isotropic Fermi Contact Couplings
        Atom                 a.u.       MegaHertz       Gauss      10(-4) cm-1
     1  C(13)             -0.00000      -0.00000      -0.00000      -0.00000
     2  C(13)             -0.00000      -0.00000      -0.00000      -0.00000
     3  C(13)             -0.00000      -0.00000      -0.00000      -0.00000
     4  H(1)              -0.00000      -0.00000      -0.00000      -0.00000
     5  H(1)              -0.00000      -0.00000      -0.00000      -0.00000
     6  H(1)              -0.00000      -0.00000      -0.00000      -0.00000
     7  H(1)              -0.00000      -0.00000      -0.00000      -0.00000
     8  H(1)              -0.00000      -0.00000      -0.00000      -0.00000
     9  H(1)              -0.00000      -0.00000      -0.00000      -0.00000
 --------------------------------------------------------
       Center         ----  Spin Dipole Couplings  ----
                      3XX-RR        3YY-RR        3ZZ-RR
 --------------------------------------------------------
     1   Atom        0.000000      0.000000      0.000000
     2   Atom        0.000000      0.000000      0.000000
     3   Atom        0.000000      0.000000      0.000000
     4   Atom        0.000000      0.000000      0.000000
     5   Atom        0.000000      0.000000      0.000000
     6   Atom        0.000000      0.000000      0.000000
     7   Atom        0.000000      0.000000      0.000000
     8   Atom        0.000000      0.000000      0.000000
     9   Atom        0.000000      0.000000      0.000000
 --------------------------------------------------------
                        XY            XZ            YZ
 --------------------------------------------------------
     1   Atom        0.000000      0.000000      0.000000
     2   Atom        0.000000      0.000000      0.000000
     3   Atom        0.000000      0.000000      0.000000
     4   Atom        0.000000      0.000000      0.000000
     5   Atom        0.000000      0.000000      0.000000
     6   Atom        0.000000      0.000000      0.000000
     7   Atom        0.000000      0.000000      0.000000
     8   Atom        0.000000      0.000000      0.000000
     9   Atom        0.000000      0.000000      0.000000
 --------------------------------------------------------


 ---------------------------------------------------------------------------------
              Anisotropic Spin Dipole Couplings in Principal Axis System
 ---------------------------------------------------------------------------------

       Atom             a.u.   MegaHertz   Gauss  10(-4) cm-1        Axes

              Baa     0.0000     0.000     0.000     0.000  1.0000  0.0000  0.0000
     1 C(13)  Bbb     0.0000     0.000     0.000     0.000 -0.0000  1.0000  0.0000
              Bcc     0.0000     0.000     0.000     0.000  0.0000  0.0000  1.0000
 
              Baa     0.0000     0.000     0.000     0.000  1.0000  0.0000  0.0000
     2 C(13)  Bbb     0.0000     0.000     0.000     0.000 -0.0000  1.0000  0.0000
              Bcc     0.0000     0.000     0.000     0.000  0.0000  0.0000  1.0000
 
              Baa     0.0000     0.000     0.000     0.000  1.0000  0.0000  0.0000
     3 C(13)  Bbb     0.0000     0.000     0.000     0.000 -0.0000  1.0000  0.0000
              Bcc     0.0000     0.000     0.000     0.000  0.0000  0.0000  1.0000
 
              Baa     0.0000     0.000     0.000     0.000  1.0000  0.0000  0.0000
     4 H(1)   Bbb     0.0000     0.000     0.000     0.000 -0.0000  1.0000  0.0000
              Bcc     0.0000     0.000     0.000     0.000  0.0000  0.0000  1.0000
 
              Baa     0.0000     0.000     0.000     0.000  1.0000  0.0000  0.0000
     5 H(1)   Bbb     0.0000     0.000     0.000     0.000 -0.0000  1.0000  0.0000
              Bcc     0.0000     0.000     0.000     0.000  0.0000  0.0000  1.0000
 
              Baa     0.0000     0.000     0.000     0.000  1.0000  0.0000  0.0000
     6 H(1)   Bbb     0.0000     0.000     0.000     0.000 -0.0000  1.0000  0.0000
              Bcc     0.0000     0.000     0.000     0.000  0.0000  0.0000  1.0000
 
              Baa     0.0000     0.000     0.000     0.000  1.0000  0.0000  0.0000
     7 H(1)   Bbb     0.0000     0.000     0.000     0.000 -0.0000  1.0000  0.0000
              Bcc     0.0000     0.000     0.000     0.000  0.0000  0.0000  1.0000
 
              Baa     0.0000     0.000     0.000     0.000  1.0000  0.0000  0.0000
     8 H(1)   Bbb     0.0000     0.000     0.000     0.000 -0.0000  1.0000  0.0000
              Bcc     0.0000     0.000     0.000     0.000  0.0000  0.0000  1.0000
 
              Baa     0.0000     0.000     0.000     0.000  1.0000  0.0000  0.0000
     9 H(1)   Bbb     0.0000     0.000     0.000     0.000 -0.0000  1.0000  0.0000
              Bcc     0.0000     0.000     0.000     0.000  0.0000  0.0000  1.0000
 

 ---------------------------------------------------------------------------------

 1\1\GINC-GAMBA\SP\ROHF\Gen\C3H6\IRIKURA\30-Sep-2023\0\\# rohf/gen geom
 =check guess=check\\cyclopropane, ROHF/cc-pVTZ-F12\\0,1\C,0,0.00000008
 17,0.868507,0.\C,0,0.7521492289,-0.4342538207,0.\C,0,-0.7521493105,-0.
 4342536793,0.\H,0,0.0000001369,1.456469,0.906888\H,0,1.2613392297,-0.7
 282348686,0.906888\H,0,-1.2613393666,-0.7282346314,0.906888\H,0,0.0000
 001369,1.456469,-0.906888\H,0,1.2613392297,-0.7282348686,-0.906888\H,0
 ,-1.2613393666,-0.7282346314,-0.906888\\Version=ES64L-G16RevB.01\State
 =1-A1'\HF=-117.1081558\RMSD=5.153e-09\Dipole=0.,0.,0.\Quadrupole=-0.56
 26422,-0.5626422,1.1252844,0.,0.,0.\PG=D03H [3C2(C1),3SGV(H2)]\\@


 THE SECRET OF SUCCESS IN LIFE IS TO EAT WHAT YOU LIKE, AND LET THE FOOD
 FIGHT IT OUT INSIDE YOU. -- FROM A FORTUNE COOKIE
 Job cpu time:       0 days  0 hours  0 minutes 40.0 seconds.
 Elapsed time:       0 days  0 hours  0 minutes 10.0 seconds.
 File lengths (MBytes):  RWF=     55 Int=      0 D2E=      0 Chk=      7 Scr=      1
 Normal termination of Gaussian 16 at Sat Sep 30 10:14:19 2023.
