 Entering Gaussian System, Link 0=g16
 AtFile(1): pcseg2.gbs
            -H     0
            S   4   1.00
                  0.754732D+02           0.427821D-02
                  0.113575D+02           0.328672D-01
                  0.260081D+01           0.159578D+00
                  0.735503D+00           0.500000D+00
            S   1   1.00
                  0.231761D+00           1.0000000
            S   1   1.00
                  0.741675D-01           1.0000000
            P   1   1.00
                  0.160000D+01           1.0000000
            P   1   1.00
                  0.450000D+00           1.0000000
            D   1   1.00
                  0.125000D+01           1.0000000
            ****
            -C     0
            S   7   1.00
                  0.731999D+04           0.695369D-03
                  0.109818D+04           0.537138D-02
                  0.250014D+03           0.274734D-01
                  0.707586D+02           0.105078D+00
                  0.228595D+02           0.291262D+00
                  0.803936D+01           0.500000D+00
                  0.289309D+01           0.362224D+00
            S   2   1.00
                  0.521640D+01          -0.957844D-01
                  0.556124D+00           0.500000D+00
            S   1   1.00
                  0.228813D+00           1.0000000
            S   1   1.00
                  0.936338D-01           1.0000000
            P   4   1.00
                  0.339855D+02           0.818395D-02
                  0.772957D+01           0.586921D-01
                  0.224954D+01           0.222514D+00
                  0.767681D+00           0.500000D+00
            P   1   1.00
                  0.263283D+00           1.0000000
            P   1   1.00
                  0.848744D-01           1.0000000
            D   1   1.00
                  0.140000D+01           1.0000000
            D   1   1.00
                  0.450000D+00           1.0000000
            F   1   1.00
                  0.950000D+00           1.0000000
            ****
            -O     0
            S   7   1.00
                  0.135887D+05           0.665492D-03
                  0.203847D+04           0.514222D-02
                  0.464041D+03           0.263472D-01
                  0.131339D+03           0.101500D+00
                  0.425340D+02           0.285877D+00
                  0.150429D+02           0.500000D+00
                  0.546616D+01           0.368211D+00
            S   2   1.00
                  0.100915D+02          -0.100084D+00
                  0.110429D+01           0.500000D+00
            S   1   1.00
                  0.448082D+00           1.0000000
            S   1   1.00
                  0.175325D+00           1.0000000
            P   4   1.00
                  0.608220D+02           0.908253D-02
                  0.140332D+02           0.645878D-01
                  0.418244D+01           0.241502D+00
                  0.142490D+01           0.500000D+00
            P   1   1.00
                  0.478741D+00           1.0000000
            P   1   1.00
                  0.146257D+00           1.0000000
            D   1   1.00
                  0.220000D+01           1.0000000
            D   1   1.00
                  0.650000D+00           1.0000000
            F   1   1.00
                  0.110000D+01           1.0000000
            ****
            -N     0
            S   7   1.00
                  0.101643D+05           0.682757D-03
                  0.152481D+04           0.527488D-02
                  0.347119D+03           0.270037D-01
                  0.982389D+02           0.103673D+00
                  0.317799D+02           0.289575D+00
                  0.112240D+02           0.500000D+00
                  0.406611D+01           0.364621D+00
            S   2   1.00
                  0.747898D+01          -0.975681D-01
                  0.805040D+00           0.500000D+00
            S   1   1.00
                  0.324626D+00           1.0000000
            S   1   1.00
                  0.128132D+00           1.0000000
            P   4   1.00
                  0.482704D+02           0.829547D-02
                  0.110815D+02           0.596223D-01
                  0.326643D+01           0.227889D+00
                  0.111680D+01           0.500000D+00
            P   1   1.00
                  0.382049D+00           1.0000000
            P   1   1.00
                  0.121222D+00           1.0000000
            D   1   1.00
                  0.180000D+01           1.0000000
            D   1   1.00
                  0.550000D+00           1.0000000
            F   1   1.00
                  0.102000D+01           1.0000000
            ****
            -F     0
            S   7   1.00
                  0.174507D+05           0.655972D-03
                  0.261768D+04           0.506944D-02
                  0.595857D+03           0.259899D-01
                  0.168651D+03           0.100353D+00
                  0.546654D+02           0.284095D+00
                  0.193717D+02           0.500000D+00
                  0.706202D+01           0.370721D+00
            S   2   1.00
                  0.131197D+02          -0.101997D+00
                  0.145046D+01           0.500000D+00
            S   1   1.00
                  0.588255D+00           1.0000000
            S   1   1.00
                  0.227960D+00           1.0000000
            P   4   1.00
                  0.779407D+02           0.931135D-02
                  0.180425D+02           0.663964D-01
                  0.542342D+01           0.246386D+00
                  0.184876D+01           0.500000D+00
            P   1   1.00
                  0.617455D+00           1.0000000
            P   1   1.00
                  0.185496D+00           1.0000000
            D   1   1.00
                  0.280000D+01           1.0000000
            D   1   1.00
                  0.800000D+00           1.0000000
            F   1   1.00
                  0.120000D+01           1.0000000
            ****
            -Cl     0
            S   8   1.00
                  0.154272D+06           0.222473D-03
                  0.231232D+05           0.172590D-02
                  0.526257D+04           0.899286D-02
                  0.148995D+04           0.367724D-01
                  0.485417D+03           0.121446D+00
                  0.174634D+03           0.304148D+00
                  0.672393D+02           0.500000D+00
                  0.265780D+02           0.360252D+00
            S   3   1.00
                  0.131826D+03          -0.531330D-01
                  0.400703D+02          -0.233346D+00
                  0.789448D+01           0.500000D+00
            S   2   1.00
                  0.427711D+01           0.500000D+00
                  0.196233D+01           0.370517D+00
            S   1   1.00
                  0.520793D+00           1.0000000
            S   1   1.00
                  0.181633D+00           1.0000000
            P   7   1.00
                  0.124440D+04           0.988206D-03
                  0.295109D+03           0.829674D-02
                  0.947224D+02           0.430906D-01
                  0.352588D+02           0.148443D+00
                  0.144211D+02           0.344744D+00
                  0.610371D+01           0.500000D+00
                  0.258886D+01           0.348278D+00
            P   2   1.00
                  0.109447D+02          -0.196768D-01
                  0.104413D+01           0.500000D+00
            P   1   1.00
                  0.376184D+00           1.0000000
            P   1   1.00
                  0.120613D+00           1.0000000
            D   1   1.00
                  0.231000D+01           1.0000000
            D   1   1.00
                  0.520000D+00           1.0000000
            F   1   1.00
                  0.720000D+00           1.0000000
            ****
            -S     0
            S   8   1.00
                  0.134700D+06           0.226231D-03
                  0.201904D+05           0.175488D-02
                  0.459528D+04           0.914190D-02
                  0.130109D+04           0.373551D-01
                  0.423902D+03           0.123121D+00
                  0.152485D+03           0.306801D+00
                  0.586925D+02           0.500000D+00
                  0.231461D+02           0.354358D+00
            S   3   1.00
                  0.116327D+03          -0.491772D-01
                  0.352841D+02          -0.215962D+00
                  0.677831D+01           0.500000D+00
            S   2   1.00
                  0.360404D+01           0.500000D+00
                  0.164871D+01           0.366278D+00
            S   1   1.00
                  0.421821D+00           1.0000000
            S   1   1.00
                  0.147554D+00           1.0000000
            P   7   1.00
                  0.104863D+04           0.105273D-02
                  0.248717D+03           0.879338D-02
                  0.797887D+02           0.453358D-01
                  0.296023D+02           0.154476D+00
                  0.120627D+02           0.352366D+00
                  0.507628D+01           0.500000D+00
                  0.213375D+01           0.346429D+00
            P   2   1.00
                  0.928958D+01          -0.185932D-01
                  0.837819D+00           0.500000D+00
            P   1   1.00
                  0.301495D+00           1.0000000
            P   1   1.00
                  0.974740D-01           1.0000000
            D   1   1.00
                  0.210000D+01           1.0000000
            D   1   1.00
                  0.480000D+00           1.0000000
            F   1   1.00
                  0.660000D+00           1.0000000
            ****
            -Br     0
            S    10   1.00
                  0.233625D+07           0.532336D-04
                  0.349961D+06           0.413715D-03
                  0.796444D+05           0.217123D-02
                  0.225555D+05           0.910109D-02
                  0.735546D+04           0.323789D-01
                  0.265352D+04           0.988755D-01
                  0.103517D+04           0.248138D+00
                  0.422205D+03           0.474328D+00
                  0.180035D+03           0.500000D+00
                  0.793308D+02           0.187769D+00
            S    4   1.00
                  0.620834D+03          -0.226511D-01
                  0.190829D+03          -0.109497D+00
                  0.312505D+02           0.500000D+00
                  0.135270D+02           0.492812D+00
            S    2   1.00
                  0.216097D+02          -0.165418D+00
                  0.372566D+01           0.500000D+00
            S    1   1.00
                  0.169770D+01           1.0000000
            S    1   1.00
                  0.489332D+00           1.0000000
            S    1   1.00
                  0.175712D+00           1.0000000
            P    8   1.00
                  0.960829D+04           0.478974D-03
                  0.227618D+04           0.417853D-02
                  0.736723D+03           0.229315D-01
                  0.281579D+03           0.892653D-01
                  0.118395D+03           0.255288D+00
                  0.527481D+02           0.479074D+00
                  0.245098D+02           0.500000D+00
                  0.112009D+02           0.200944D+00
            P    4   1.00
                  0.587849D+02          -0.189674D-01
                  0.918962D+01           0.264104D+00
                  0.413895D+01           0.500000D+00
                  0.184225D+01           0.319316D+00
            P    1   1.00
                  0.713862D+00           1.0000000
            P    1   1.00
                  0.274232D+00           1.0000000
            P    1   1.00
                  0.944411D-01           1.0000000
            D    7   1.00
                  0.398470D+03           0.204066D-02
                  0.118967D+03           0.175171D-01
                  0.450197D+02           0.829708D-01
                  0.190320D+02           0.236284D+00
                  0.855686D+01           0.428468D+00
                  0.382950D+01           0.500000D+00
                  0.166291D+01           0.349360D+00
            D    1   1.00
                  0.672953D+00           1.0000000
            D    1   1.00
                  0.252000D+00           1.0000000
            F    1   1.00
                  0.530000D+00           1.0000000
            ****
            -Si     0
            S    8   1.00
                  0.996133D+05           0.235546D-03
                  0.149311D+05           0.182707D-02
                  0.339820D+04           0.951425D-02
                  0.962140D+03           0.388172D-01
                  0.313430D+03           0.127328D+00
                  0.112683D+03           0.313522D+00
                  0.433372D+02           0.500000D+00
                  0.170029D+02           0.340347D+00
            S    3   1.00
                  0.884208D+02          -0.404451D-01
                  0.266756D+02          -0.178059D+00
                  0.479640D+01           0.500000D+00
            S    2   1.00
                  0.239385D+01           0.500000D+00
                  0.108333D+01           0.338016D+00
            S    1   1.00
                  0.252420D+00           1.0000000
            S    1   1.00
                  0.891210D-01           1.0000000
            P    7   1.00
                  0.709901D+03           0.123028D-02
                  0.168426D+03           0.101366D-01
                  0.539946D+02           0.511840D-01
                  0.198646D+02           0.169967D+00
                  0.801369D+01           0.370717D+00
                  0.331870D+01           0.500000D+00
                  0.136112D+01           0.344128D+00
            P    2   1.00
                  0.622158D+01          -0.166609D-01
                  0.503049D+00           0.500000D+00
            P    1   1.00
                  0.179848D+00           1.0000000
            P    1   1.00
                  0.591912D-01           1.0000000
            D    1   1.00
                  0.168000D+01           1.0000000
            D    1   1.00
                  0.380000D+00           1.0000000
            F    1   1.00
                  0.540000D+00           1.0000000
            ****
            -P     0
            S    8   1.00
                  0.116416D+06           0.230715D-03
                  0.174500D+05           0.178960D-02
                  0.397149D+04           0.932116D-02
                  0.112447D+04           0.380591D-01
                  0.366347D+03           0.125148D+00
                  0.131757D+03           0.310022D+00
                  0.506988D+02           0.500000D+00
                  0.199436D+02           0.347528D+00
            S    3   1.00
                  0.101878D+03          -0.446755D-01
                  0.308249D+02          -0.196376D+00
                  0.573688D+01           0.500000D+00
            S    2   1.00
                  0.296868D+01           0.500000D+00
                  0.135315D+01           0.355098D+00
            S    1   1.00
                  0.332196D+00           1.0000000
            S    1   1.00
                  0.116229D+00           1.0000000
            P    7   1.00
                  0.873928D+03           0.112375D-02
                  0.207298D+03           0.933330D-02
                  0.664628D+02           0.477213D-01
                  0.245665D+02           0.160733D+00
                  0.996820D+01           0.359760D+00
                  0.416536D+01           0.500000D+00
                  0.173022D+01           0.346593D+00
            P    2   1.00
                  0.772530D+01          -0.175718D-01
                  0.657252D+00           0.500000D+00
            P    1   1.00
                  0.239903D+00           1.0000000
            P    1   1.00
                  0.800988D-01           1.0000000
            D    1   1.00
                  0.189000D+01           1.0000000
            D    1   1.00
                  0.430000D+00           1.0000000
            F    1   1.00
                  0.600000D+00           1.0000000
            ****
            
 Initial command:
 /usr/local/apps/g16_b01_avx/g16/l1.exe "/wrk/irikura/Gau-345709.inp" -scrdir="/wrk/irikura/"
 Entering Link 1 = /usr/local/apps/g16_b01_avx/g16/l1.exe PID=    345711.
  
 Copyright (c) 1988-2017, Gaussian, Inc.  All Rights Reserved.
  
 This is part of the Gaussian(R) 16 program.  It is based on
 the Gaussian(R) 09 system (copyright 2009, Gaussian, Inc.),
 the Gaussian(R) 03 system (copyright 2003, Gaussian, Inc.),
 the Gaussian(R) 98 system (copyright 1998, Gaussian, Inc.),
 the Gaussian(R) 94 system (copyright 1995, Gaussian, Inc.),
 the Gaussian 92(TM) system (copyright 1992, Gaussian, Inc.),
 the Gaussian 90(TM) system (copyright 1990, Gaussian, Inc.),
 the Gaussian 88(TM) system (copyright 1988, Gaussian, Inc.),
 the Gaussian 86(TM) system (copyright 1986, Carnegie Mellon
 University), and the Gaussian 82(TM) system (copyright 1983,
 Carnegie Mellon University). Gaussian is a federally registered
 trademark of Gaussian, Inc.
  
 This software contains proprietary and confidential information,
 including trade secrets, belonging to Gaussian, Inc.
  
 This software is provided under written license and may be
 used, copied, transmitted, or stored only in accord with that
 written license.
  
 The following legend is applicable only to US Government
 contracts under FAR:
  
                    RESTRICTED RIGHTS LEGEND
  
 Use, reproduction and disclosure by the US Government is
 subject to restrictions as set forth in subparagraphs (a)
 and (c) of the Commercial Computer Software - Restricted
 Rights clause in FAR 52.227-19.
  
 Gaussian, Inc.
 340 Quinnipiac St., Bldg. 40, Wallingford CT 06492
  
  
 ---------------------------------------------------------------
 Warning -- This program may not be used in any manner that
 competes with the business of Gaussian, Inc. or will provide
 assistance to any competitor of Gaussian, Inc.  The licensee
 of this program is prohibited from giving any competitor of
 Gaussian, Inc. access to this program.  By using this program,
 the user acknowledges that Gaussian, Inc. is engaged in the
 business of creating and licensing software in the field of
 computational chemistry and represents and warrants to the
 licensee that it is not a competitor of Gaussian, Inc. and that
 it will not use this program in any manner prohibited above.
 ---------------------------------------------------------------
  

 Cite this work as:
 Gaussian 16, Revision B.01,
 M. J. Frisch, G. W. Trucks, H. B. Schlegel, G. E. Scuseria, 
 M. A. Robb, J. R. Cheeseman, G. Scalmani, V. Barone, 
 G. A. Petersson, H. Nakatsuji, X. Li, M. Caricato, A. V. Marenich, 
 J. Bloino, B. G. Janesko, R. Gomperts, B. Mennucci, H. P. Hratchian, 
 J. V. Ortiz, A. F. Izmaylov, J. L. Sonnenberg, D. Williams-Young, 
 F. Ding, F. Lipparini, F. Egidi, J. Goings, B. Peng, A. Petrone, 
 T. Henderson, D. Ranasinghe, V. G. Zakrzewski, J. Gao, N. Rega, 
 G. Zheng, W. Liang, M. Hada, M. Ehara, K. Toyota, R. Fukuda, 
 J. Hasegawa, M. Ishida, T. Nakajima, Y. Honda, O. Kitao, H. Nakai, 
 T. Vreven, K. Throssell, J. A. Montgomery, Jr., J. E. Peralta, 
 F. Ogliaro, M. J. Bearpark, J. J. Heyd, E. N. Brothers, K. N. Kudin, 
 V. N. Staroverov, T. A. Keith, R. Kobayashi, J. Normand, 
 K. Raghavachari, A. P. Rendell, J. C. Burant, S. S. Iyengar, 
 J. Tomasi, M. Cossi, J. M. Millam, M. Klene, C. Adamo, R. Cammi, 
 J. W. Ochterski, R. L. Martin, K. Morokuma, O. Farkas, 
 J. B. Foresman, and D. J. Fox, Gaussian, Inc., Wallingford CT, 2016.
 
 ******************************************
 Gaussian 16:  ES64L-G16RevB.01 20-Dec-2017
                29-Sep-2023 
 ******************************************
 %chk=cyc4.chk
 %mem=500mw
 %nprocs=4
 Will use up to    4 processors via shared memory.
 ---------------------------------------
 # b3lyp/gen opt freq CPHF(Grid=OneStep)
 ---------------------------------------
 1/18=20,19=15,26=3,38=1/1,3;
 2/9=110,12=2,17=6,18=5,40=1/2;
 3/5=7,11=2,25=1,30=1,71=1,74=-5/1,2,3;
 4//1;
 5/5=2,38=5/2;
 6/7=2,8=2,9=2,10=2,28=1/1;
 7//1,2,3,16;
 1/18=20,19=15,26=3/3(2);
 2/9=110/2;
 99//99;
 2/9=110/2;
 3/5=7,6=1,11=2,25=1,30=1,71=1,74=-5,82=7/1,2,3;
 4/5=5,16=3,69=1/1;
 5/5=2,38=5/2;
 7//1,2,3,16;
 1/18=20,19=15,26=3/3(-5);
 2/9=110/2;
 6/7=2,8=2,9=2,10=2,19=2,28=1/1;
 99/9=1/99;
 --------------------------
 cyclobutane, B3LYP/pcseg-2
 --------------------------
 Symbolic Z-matrix:
 Charge =  0 Multiplicity = 1
 C                     0.        1.08281   0.12248 
 C                     0.       -1.08281   0.12248 
 C                    -1.08281   0.       -0.12248 
 C                     1.08281   0.       -0.12248 
 H                     0.        1.42414   1.15799 
 H                     0.        1.95582  -0.52888 
 H                     0.       -1.42414   1.15799 
 H                     0.       -1.95582  -0.52888 
 H                    -1.42414   0.       -1.15799 
 H                    -1.95582   0.        0.52888 
 H                     1.42414   0.       -1.15799 
 H                     1.95582   0.        0.52888 
 

 GradGradGradGradGradGradGradGradGradGradGradGradGradGradGradGradGradGrad
 Berny optimization.
 Initialization pass.
                           ----------------------------
                           !    Initial Parameters    !
                           ! (Angstroms and Degrees)  !
 --------------------------                            --------------------------
 ! Name  Definition              Value          Derivative Info.                !
 --------------------------------------------------------------------------------
 ! R1    R(1,3)                  1.5508         estimate D2E/DX2                !
 ! R2    R(1,4)                  1.5508         estimate D2E/DX2                !
 ! R3    R(1,5)                  1.0903         estimate D2E/DX2                !
 ! R4    R(1,6)                  1.0892         estimate D2E/DX2                !
 ! R5    R(2,3)                  1.5508         estimate D2E/DX2                !
 ! R6    R(2,4)                  1.5508         estimate D2E/DX2                !
 ! R7    R(2,7)                  1.0903         estimate D2E/DX2                !
 ! R8    R(2,8)                  1.0892         estimate D2E/DX2                !
 ! R9    R(3,9)                  1.0903         estimate D2E/DX2                !
 ! R10   R(3,10)                 1.0892         estimate D2E/DX2                !
 ! R11   R(4,11)                 1.0903         estimate D2E/DX2                !
 ! R12   R(4,12)                 1.0892         estimate D2E/DX2                !
 ! A1    A(3,1,4)               88.5704         estimate D2E/DX2                !
 ! A2    A(3,1,5)              111.6291         estimate D2E/DX2                !
 ! A3    A(3,1,6)              117.7214         estimate D2E/DX2                !
 ! A4    A(4,1,5)              111.6291         estimate D2E/DX2                !
 ! A5    A(4,1,6)              117.7214         estimate D2E/DX2                !
 ! A6    A(5,1,6)              108.4835         estimate D2E/DX2                !
 ! A7    A(3,2,4)               88.5704         estimate D2E/DX2                !
 ! A8    A(3,2,7)              111.6291         estimate D2E/DX2                !
 ! A9    A(3,2,8)              117.7214         estimate D2E/DX2                !
 ! A10   A(4,2,7)              111.6291         estimate D2E/DX2                !
 ! A11   A(4,2,8)              117.7214         estimate D2E/DX2                !
 ! A12   A(7,2,8)              108.4835         estimate D2E/DX2                !
 ! A13   A(1,3,2)               88.5704         estimate D2E/DX2                !
 ! A14   A(1,3,9)              111.6291         estimate D2E/DX2                !
 ! A15   A(1,3,10)             117.7214         estimate D2E/DX2                !
 ! A16   A(2,3,9)              111.6291         estimate D2E/DX2                !
 ! A17   A(2,3,10)             117.7214         estimate D2E/DX2                !
 ! A18   A(9,3,10)             108.4835         estimate D2E/DX2                !
 ! A19   A(1,4,2)               88.5704         estimate D2E/DX2                !
 ! A20   A(1,4,11)             111.6291         estimate D2E/DX2                !
 ! A21   A(1,4,12)             117.7214         estimate D2E/DX2                !
 ! A22   A(2,4,11)             111.6291         estimate D2E/DX2                !
 ! A23   A(2,4,12)             117.7214         estimate D2E/DX2                !
 ! A24   A(11,4,12)            108.4835         estimate D2E/DX2                !
 ! D1    D(4,1,3,2)             17.9519         estimate D2E/DX2                !
 ! D2    D(4,1,3,9)            -94.8001         estimate D2E/DX2                !
 ! D3    D(4,1,3,10)           138.7849         estimate D2E/DX2                !
 ! D4    D(5,1,3,2)            -94.8001         estimate D2E/DX2                !
 ! D5    D(5,1,3,9)            152.4479         estimate D2E/DX2                !
 ! D6    D(5,1,3,10)            26.0329         estimate D2E/DX2                !
 ! D7    D(6,1,3,2)            138.7849         estimate D2E/DX2                !
 ! D8    D(6,1,3,9)             26.0329         estimate D2E/DX2                !
 ! D9    D(6,1,3,10)          -100.3821         estimate D2E/DX2                !
 ! D10   D(3,1,4,2)            -17.9519         estimate D2E/DX2                !
 ! D11   D(3,1,4,11)            94.8001         estimate D2E/DX2                !
 ! D12   D(3,1,4,12)          -138.7849         estimate D2E/DX2                !
 ! D13   D(5,1,4,2)             94.8001         estimate D2E/DX2                !
 ! D14   D(5,1,4,11)          -152.4479         estimate D2E/DX2                !
 ! D15   D(5,1,4,12)           -26.0329         estimate D2E/DX2                !
 ! D16   D(6,1,4,2)           -138.7849         estimate D2E/DX2                !
 ! D17   D(6,1,4,11)           -26.0329         estimate D2E/DX2                !
 ! D18   D(6,1,4,12)           100.3821         estimate D2E/DX2                !
 ! D19   D(4,2,3,1)            -17.9519         estimate D2E/DX2                !
 ! D20   D(4,2,3,9)             94.8001         estimate D2E/DX2                !
 ! D21   D(4,2,3,10)          -138.7849         estimate D2E/DX2                !
 ! D22   D(7,2,3,1)             94.8001         estimate D2E/DX2                !
 ! D23   D(7,2,3,9)           -152.4479         estimate D2E/DX2                !
 ! D24   D(7,2,3,10)           -26.0329         estimate D2E/DX2                !
 ! D25   D(8,2,3,1)           -138.7849         estimate D2E/DX2                !
 ! D26   D(8,2,3,9)            -26.0329         estimate D2E/DX2                !
 ! D27   D(8,2,3,10)           100.3821         estimate D2E/DX2                !
 ! D28   D(3,2,4,1)             17.9519         estimate D2E/DX2                !
 ! D29   D(3,2,4,11)           -94.8001         estimate D2E/DX2                !
 ! D30   D(3,2,4,12)           138.7849         estimate D2E/DX2                !
 ! D31   D(7,2,4,1)            -94.8001         estimate D2E/DX2                !
 ! D32   D(7,2,4,11)           152.4479         estimate D2E/DX2                !
 ! D33   D(7,2,4,12)            26.0329         estimate D2E/DX2                !
 ! D34   D(8,2,4,1)            138.7849         estimate D2E/DX2                !
 ! D35   D(8,2,4,11)            26.0329         estimate D2E/DX2                !
 ! D36   D(8,2,4,12)          -100.3821         estimate D2E/DX2                !
 --------------------------------------------------------------------------------
 Trust Radius=3.00D-01 FncErr=1.00D-07 GrdErr=1.00D-06 EigMax=2.50D+02 EigMin=1.00D-04
 Number of steps in this run=     82 maximum allowed number of steps=    100.
 GradGradGradGradGradGradGradGradGradGradGradGradGradGradGradGradGradGrad

                          Input orientation:                          
 ---------------------------------------------------------------------
 Center     Atomic      Atomic             Coordinates (Angstroms)
 Number     Number       Type             X           Y           Z
 ---------------------------------------------------------------------
      1          6           0        0.000000    1.082812    0.122477
      2          6           0        0.000000   -1.082812    0.122477
      3          6           0       -1.082812    0.000000   -0.122477
      4          6           0        1.082812    0.000000   -0.122477
      5          1           0        0.000000    1.424137    1.157991
      6          1           0        0.000000    1.955821   -0.528877
      7          1           0        0.000000   -1.424137    1.157991
      8          1           0        0.000000   -1.955821   -0.528877
      9          1           0       -1.424137    0.000000   -1.157991
     10          1           0       -1.955821    0.000000    0.528877
     11          1           0        1.424137    0.000000   -1.157991
     12          1           0        1.955821    0.000000    0.528877
 ---------------------------------------------------------------------
                    Distance matrix (angstroms):
                    1          2          3          4          5
     1  C    0.000000
     2  C    2.165624   0.000000
     3  C    1.550795   1.550795   0.000000
     4  C    1.550795   1.550795   2.165624   0.000000
     5  H    1.090317   2.712394   2.200056   2.200056   0.000000
     6  H    1.089223   3.107660   2.272197   2.272197   1.768675
     7  H    2.712394   1.090317   2.200056   2.200056   2.848274
     8  H    3.107660   1.089223   2.272197   2.272197   3.777518
     9  H    2.200056   2.200056   1.090317   2.712394   3.069219
    10  H    2.272197   2.272197   1.089223   3.107660   2.499837
    11  H    2.200056   2.200056   2.712394   1.090317   3.069219
    12  H    2.272197   2.272197   3.107660   1.089223   2.499837
                    6          7          8          9         10
     6  H    0.000000
     7  H    3.777518   0.000000
     8  H    3.911642   1.768675   0.000000
     9  H    2.499837   3.069219   2.499837   0.000000
    10  H    2.961303   2.499837   2.961303   1.768675   0.000000
    11  H    2.499837   3.069219   2.499837   2.848274   3.777518
    12  H    2.961303   2.499837   2.961303   3.777518   3.911642
                   11         12
    11  H    0.000000
    12  H    1.768675   0.000000
 Stoichiometry    C4H8
 Framework group  D2D[2SGD(C2H4)]
 Deg. of freedom     6
 Full point group                 D2D     NOp   8
 Largest Abelian subgroup         C2V     NOp   4
 Largest concise Abelian subgroup C2V     NOp   4
                         Standard orientation:                         
 ---------------------------------------------------------------------
 Center     Atomic      Atomic             Coordinates (Angstroms)
 Number     Number       Type             X           Y           Z
 ---------------------------------------------------------------------
      1          6           0        0.000000    1.082812    0.122477
      2          6           0       -0.000000   -1.082812    0.122477
      3          6           0       -1.082812    0.000000   -0.122477
      4          6           0        1.082812   -0.000000   -0.122477
      5          1           0        0.000000    1.424137    1.157991
      6          1           0        0.000000    1.955821   -0.528877
      7          1           0       -0.000000   -1.424137    1.157991
      8          1           0       -0.000000   -1.955821   -0.528877
      9          1           0       -1.424137    0.000000   -1.157991
     10          1           0       -1.955821    0.000000    0.528877
     11          1           0        1.424137   -0.000000   -1.157991
     12          1           0        1.955821   -0.000000    0.528877
 ---------------------------------------------------------------------
 Rotational constants (GHZ):          10.7091458          10.7091458           6.3270487
 General basis read from cards:  (5D, 7F)
 There are    92 symmetry adapted cartesian basis functions of A1  symmetry.
 There are    38 symmetry adapted cartesian basis functions of A2  symmetry.
 There are    65 symmetry adapted cartesian basis functions of B1  symmetry.
 There are    65 symmetry adapted cartesian basis functions of B2  symmetry.
 There are    80 symmetry adapted basis functions of A1  symmetry.
 There are    36 symmetry adapted basis functions of A2  symmetry.
 There are    58 symmetry adapted basis functions of B1  symmetry.
 There are    58 symmetry adapted basis functions of B2  symmetry.
   232 basis functions,   348 primitive gaussians,   260 cartesian basis functions
    16 alpha electrons       16 beta electrons
       nuclear repulsion energy       127.0290966005 Hartrees.
 NAtoms=   12 NActive=   12 NUniq=    3 SFac= 4.00D+00 NAtFMM=   60 NAOKFM=F Big=F
 Integral buffers will be    131072 words long.
 Raffenetti 2 integral format.
 Two-electron integral symmetry is turned on.
 One-electron integrals computed using PRISM.
 NBasis=   232 RedAO= T EigKep=  1.67D-04  NBF=    80    36    58    58
 NBsUse=   232 1.00D-06 EigRej= -1.00D+00 NBFU=    80    36    58    58
 ExpMin= 7.42D-02 ExpMax= 7.32D+03 ExpMxC= 2.50D+02 IAcc=3 IRadAn=         5 AccDes= 0.00D+00
 Harris functional with IExCor=  402 and IRadAn=       5 diagonalized for initial guess.
 HarFok:  IExCor=  402 AccDes= 0.00D+00 IRadAn=         5 IDoV= 1 UseB2=F ITyADJ=14
 ICtDFT=  3500011 ScaDFX=  1.000000  1.000000  1.000000  1.000000
 FoFCou: FMM=F IPFlag=           0 FMFlag=      100000 FMFlg1=           0
         NFxFlg=           0 DoJE=T BraDBF=F KetDBF=T FulRan=T
         wScrn=  0.000000 ICntrl=       500 IOpCl=  0 I1Cent=   200000004 NGrid=           0
         NMat0=    1 NMatS0=      1 NMatT0=    0 NMatD0=    1 NMtDS0=    0 NMtDT0=    0
 Petite list used in FoFCou.
 Initial guess orbital symmetries:
       Occupied  (A1) (E) (E) (B2) (A1) (E) (E) (B2) (A1) (B2)
                 (E) (E) (B1) (E) (E) (A1)
       Virtual   (A1) (B2) (E) (E) (E) (E) (B2) (E) (E) (A2) (A1)
                 (B1) (B2) (A1) (E) (E) (B2) (E) (E) (A1) (E) (E)
                 (B2) (E) (E) (A2) (A1) (B2) (E) (E) (A1) (B2)
                 (A1) (E) (E) (A2) (B2) (A1) (B1) (B2) (E) (E)
                 (E) (E) (A1) (B1) (E) (E) (B2) (A1) (E) (E) (E)
                 (E) (A2) (A1) (B2) (E) (E) (E) (E) (B2) (A1) (B1)
                 (A2) (B2) (E) (E) (B2) (A1) (E) (E) (B1) (A2)
                 (E) (E) (A1) (E) (E) (B2) (A1) (E) (E) (B1) (E)
                 (E) (B2) (B2) (A1) (E) (E) (A1) (B2) (A1) (E)
                 (E) (A2) (B2) (E) (E) (A1) (B1) (E) (E) (A1) (A2)
                 (B1) (B2) (E) (E) (B2) (E) (E) (E) (E) (A2) (A1)
                 (E) (E) (B2) (A1) (E) (E) (B1) (A2) (E) (E) (B2)
                 (E) (E) (A1) (B2) (A2) (A1) (E) (E) (B2) (A2)
                 (E) (E) (A1) (B1) (E) (E) (B1) (B2) (E) (E) (A1)
                 (E) (E) (B1) (E) (E) (A2) (B2) (E) (E) (A2) (B1)
                 (A1) (A1) (B2) (E) (E) (E) (E) (A1) (E) (E) (B2)
                 (A1) (E) (E) (B1) (A2) (A2) (E) (E) (B2) (B1)
                 (B1) (E) (E) (A1) (B2) (E) (E) (B2) (E) (E) (A2)
                 (A1) (B2) (E) (E) (A1) (E) (E) (B2) (A1) (A2)
                 (B1) (E) (E) (E) (E) (B2) (A1) (E) (E) (B2) (A1)
                 (E) (E) (B2)
 The electronic state of the initial guess is 1-A1.
 Keep R1 ints in memory in symmetry-blocked form, NReq=456955039.
 Requested convergence on RMS density matrix=1.00D-08 within 128 cycles.
 Requested convergence on MAX density matrix=1.00D-06.
 Requested convergence on             energy=1.00D-06.
 No special actions if energy rises.
 Integral accuracy reduced to 1.0D-05 until final iterations.
 Initial convergence to 1.0D-05 achieved.  Increase integral accuracy.
 SCF Done:  E(RB3LYP) =  -157.275767290     A.U. after    9 cycles
            NFock=  9  Conv=0.65D-08     -V/T= 2.0047

 **********************************************************************

            Population analysis using the SCF Density.

 **********************************************************************

 Orbital symmetries:
       Occupied  (A1) (E) (E) (B2) (A1) (E) (E) (B2) (B2) (A1)
                 (E) (E) (B1) (A1) (E) (E)
       Virtual   (A1) (B2) (E) (E) (B2) (E) (E) (A1) (E) (E) (B1)
                 (A1) (B2) (A2) (E) (E) (B2) (A1) (E) (E) (B2)
                 (E) (E) (A1) (E) (E) (E) (E) (A2) (B2) (A1) (B2)
                 (A1) (E) (E) (A2) (B2) (B1) (A1) (E) (E) (B2)
                 (E) (E) (A1) (B1) (E) (E) (A1) (B2) (E) (E) (E)
                 (E) (A1) (A2) (B2) (E) (E) (B2) (E) (E) (A1) (B1)
                 (A2) (B2) (E) (E) (A1) (B2) (E) (E) (E) (E) (A2)
                 (B1) (A1) (E) (E) (A1) (B2) (E) (E) (B1) (B2)
                 (E) (E) (B2) (A1) (A1) (E) (E) (B2) (E) (E) (A1)
                 (A2) (B2) (E) (E) (A1) (B1) (E) (E) (A1) (A2)
                 (B1) (B2) (E) (E) (B2) (E) (E) (E) (E) (A2) (A1)
                 (E) (E) (B2) (B1) (A1) (E) (E) (A2) (E) (E) (B2)
                 (E) (E) (A1) (B2) (A2) (E) (E) (B2) (A1) (E) (E)
                 (A2) (B1) (A1) (E) (E) (B1) (B2) (A1) (E) (E)
                 (B1) (E) (E) (A2) (E) (E) (B2) (A2) (E) (E) (A1)
                 (B1) (A1) (B2) (E) (E) (E) (E) (A1) (B2) (E) (E)
                 (A1) (B1) (E) (E) (A2) (A2) (E) (E) (B2) (B1)
                 (E) (E) (B1) (A1) (B2) (E) (E) (B2) (E) (E) (A2)
                 (A1) (B2) (E) (E) (A1) (E) (E) (B2) (A1) (A2)
                 (E) (E) (B1) (E) (E) (B2) (A1) (E) (E) (B2) (A1)
                 (E) (E) (B2)
 The electronic state is 1-A1.
 Alpha  occ. eigenvalues --  -10.16414 -10.16394 -10.16394 -10.16374  -0.83794
 Alpha  occ. eigenvalues --   -0.65532  -0.65532  -0.54647  -0.47929  -0.47603
 Alpha  occ. eigenvalues --   -0.38597  -0.38597  -0.35387  -0.31620  -0.30662
 Alpha  occ. eigenvalues --   -0.30662
 Alpha virt. eigenvalues --    0.01684   0.03462   0.04168   0.04168   0.07976
 Alpha virt. eigenvalues --    0.09849   0.09849   0.09944   0.13312   0.13312
 Alpha virt. eigenvalues --    0.16516   0.17440   0.18009   0.19410   0.20372
 Alpha virt. eigenvalues --    0.20372   0.24448   0.31064   0.32295   0.32295
 Alpha virt. eigenvalues --    0.32830   0.33598   0.33598   0.35583   0.36055
 Alpha virt. eigenvalues --    0.36055   0.36990   0.36990   0.37448   0.37456
 Alpha virt. eigenvalues --    0.37690   0.47700   0.51984   0.54093   0.54093
 Alpha virt. eigenvalues --    0.59087   0.65941   0.84322   0.85128   0.88034
 Alpha virt. eigenvalues --    0.88034   0.88873   0.89256   0.89256   0.93034
 Alpha virt. eigenvalues --    0.94978   0.99171   0.99171   1.02258   1.02825
 Alpha virt. eigenvalues --    1.04095   1.04095   1.06635   1.06635   1.08615
 Alpha virt. eigenvalues --    1.09535   1.11748   1.16890   1.16890   1.22159
 Alpha virt. eigenvalues --    1.26394   1.26394   1.26429   1.26967   1.29828
 Alpha virt. eigenvalues --    1.35448   1.42497   1.42497   1.46105   1.46691
 Alpha virt. eigenvalues --    1.59560   1.59560   1.63848   1.63848   1.65431
 Alpha virt. eigenvalues --    1.67187   1.71548   1.73587   1.73587   1.77651
 Alpha virt. eigenvalues --    1.78142   1.87122   1.87122   1.92276   1.93206
 Alpha virt. eigenvalues --    1.93322   1.93322   2.02719   2.05556   2.13139
 Alpha virt. eigenvalues --    2.13383   2.13383   2.26867   2.39826   2.39826
 Alpha virt. eigenvalues --    2.40352   2.50053   2.54746   2.56186   2.56186
 Alpha virt. eigenvalues --    2.79335   2.96036   3.07829   3.07829   3.11418
 Alpha virt. eigenvalues --    3.11999   3.15870   3.17957   3.22364   3.22364
 Alpha virt. eigenvalues --    3.34877   3.38931   3.38931   3.47138   3.47138
 Alpha virt. eigenvalues --    3.56663   3.58444   3.64032   3.64032   3.67309
 Alpha virt. eigenvalues --    3.67734   3.68091   3.69157   3.69157   3.79831
 Alpha virt. eigenvalues --    3.84385   3.84385   3.91093   3.95177   3.95177
 Alpha virt. eigenvalues --    3.96902   4.01007   4.07129   4.11810   4.11810
 Alpha virt. eigenvalues --    4.12122   4.12493   4.15212   4.15212   4.16755
 Alpha virt. eigenvalues --    4.16920   4.17228   4.26325   4.26325   4.33237
 Alpha virt. eigenvalues --    4.37119   4.38053   4.38378   4.38378   4.44158
 Alpha virt. eigenvalues --    4.44808   4.44808   4.53562   4.53994   4.53994
 Alpha virt. eigenvalues --    4.58893   4.61832   4.64017   4.64017   4.66502
 Alpha virt. eigenvalues --    4.66863   4.70092   4.72347   4.72706   4.72706
 Alpha virt. eigenvalues --    4.74178   4.74178   4.80845   4.87823   4.90520
 Alpha virt. eigenvalues --    4.90520   4.92808   5.04953   5.05225   5.05225
 Alpha virt. eigenvalues --    5.11556   5.14887   5.17381   5.17381   5.22064
 Alpha virt. eigenvalues --    5.26687   5.30830   5.30830   5.31475   5.33586
 Alpha virt. eigenvalues --    5.41767   5.44457   5.44457   5.48461   5.49445
 Alpha virt. eigenvalues --    5.49445   5.49558   5.51909   5.60807   5.69573
 Alpha virt. eigenvalues --    5.69573   5.79173   5.84095   5.84095   5.86744
 Alpha virt. eigenvalues --    5.88181   5.89122   5.93534   5.93534   5.93746
 Alpha virt. eigenvalues --    5.96159   5.96159   5.99958   6.12057   6.13411
 Alpha virt. eigenvalues --    6.13411   6.29730   6.31007   6.78444   6.78444
 Alpha virt. eigenvalues --    8.85633
          Condensed to atoms (all electrons):
               1          2          3          4          5          6
     1  C    4.858961  -0.119166   0.297000   0.297000   0.436635   0.425073
     2  C   -0.119166   4.858961   0.297000   0.297000   0.008423   0.022258
     3  C    0.297000   0.297000   4.858961  -0.119166  -0.038035  -0.036656
     4  C    0.297000   0.297000  -0.119166   4.858961  -0.038035  -0.036656
     5  H    0.436635   0.008423  -0.038035  -0.038035   0.622117  -0.019130
     6  H    0.425073   0.022258  -0.036656  -0.036656  -0.019130   0.610719
     7  H    0.008423   0.436635  -0.038035  -0.038035   0.002908  -0.001387
     8  H    0.022258   0.425073  -0.036656  -0.036656  -0.001387  -0.001128
     9  H   -0.038035  -0.038035   0.436635   0.008423   0.006744  -0.007931
    10  H   -0.036656  -0.036656   0.425073   0.022258  -0.007931   0.002424
    11  H   -0.038035  -0.038035   0.008423   0.436635   0.006744  -0.007931
    12  H   -0.036656  -0.036656   0.022258   0.425073  -0.007931   0.002424
               7          8          9         10         11         12
     1  C    0.008423   0.022258  -0.038035  -0.036656  -0.038035  -0.036656
     2  C    0.436635   0.425073  -0.038035  -0.036656  -0.038035  -0.036656
     3  C   -0.038035  -0.036656   0.436635   0.425073   0.008423   0.022258
     4  C   -0.038035  -0.036656   0.008423   0.022258   0.436635   0.425073
     5  H    0.002908  -0.001387   0.006744  -0.007931   0.006744  -0.007931
     6  H   -0.001387  -0.001128  -0.007931   0.002424  -0.007931   0.002424
     7  H    0.622117  -0.019130   0.006744  -0.007931   0.006744  -0.007931
     8  H   -0.019130   0.610719  -0.007931   0.002424  -0.007931   0.002424
     9  H    0.006744  -0.007931   0.622117  -0.019130   0.002908  -0.001387
    10  H   -0.007931   0.002424  -0.019130   0.610719  -0.001387  -0.001128
    11  H    0.006744  -0.007931   0.002908  -0.001387   0.622117  -0.019130
    12  H   -0.007931   0.002424  -0.001387  -0.001128  -0.019130   0.610719
 Mulliken charges:
               1
     1  C   -0.076801
     2  C   -0.076801
     3  C   -0.076801
     4  C   -0.076801
     5  H    0.028878
     6  H    0.047923
     7  H    0.028878
     8  H    0.047923
     9  H    0.028878
    10  H    0.047923
    11  H    0.028878
    12  H    0.047923
 Sum of Mulliken charges =  -0.00000
 Mulliken charges with hydrogens summed into heavy atoms:
               1
     1  C   -0.000000
     2  C   -0.000000
     3  C   -0.000000
     4  C   -0.000000
 Electronic spatial extent (au):  <R**2>=            268.9966
 Charge=             -0.0000 electrons
 Dipole moment (field-independent basis, Debye):
    X=              0.0000    Y=             -0.0000    Z=              0.0000  Tot=              0.0000
 Quadrupole moment (field-independent basis, Debye-Ang):
   XX=            -27.6198   YY=            -27.6198   ZZ=            -26.0830
   XY=              0.0000   XZ=              0.0000   YZ=             -0.0000
 Traceless Quadrupole moment (field-independent basis, Debye-Ang):
   XX=             -0.5123   YY=             -0.5123   ZZ=              1.0245
   XY=              0.0000   XZ=              0.0000   YZ=             -0.0000
 Octapole moment (field-independent basis, Debye-Ang**2):
  XXX=             -0.0000  YYY=              0.0000  ZZZ=              0.0000  XYY=             -0.0000
  XXY=             -0.0000  XXZ=              0.6938  XZZ=             -0.0000  YZZ=              0.0000
  YYZ=             -0.6938  XYZ=             -0.0000
 Hexadecapole moment (field-independent basis, Debye-Ang**3):
 XXXX=           -161.8015 YYYY=           -161.8015 ZZZZ=            -59.6348 XXXY=              0.0000
 XXXZ=              0.0000 YYYX=              0.0000 YYYZ=             -0.0000 ZZZX=              0.0000
 ZZZY=              0.0000 XXYY=            -55.9425 XXZZ=            -35.6291 YYZZ=            -35.6291
 XXYZ=             -0.0000 YYXZ=              0.0000 ZZXY=              0.0000
 N-N= 1.270290966005D+02 E-N=-6.180284674721D+02  KE= 1.565442208457D+02
 Symmetry A1   KE= 7.513306345965D+01
 Symmetry A2   KE= 2.455018522831D+00
 Symmetry B1   KE= 3.947806943162D+01
 Symmetry B2   KE= 3.947806943162D+01
 Calling FoFJK, ICntrl=      2127 FMM=F ISym2X=1 I1Cent= 0 IOpClX= 0 NMat=1 NMatS=1 NMatT=0.
 ***** Axes restored to original set *****
 -------------------------------------------------------------------
 Center     Atomic                   Forces (Hartrees/Bohr)
 Number     Number              X              Y              Z
 -------------------------------------------------------------------
      1        6          -0.000000000    0.000016211    0.000007379
      2        6           0.000000000   -0.000016211    0.000007379
      3        6          -0.000016211   -0.000000000   -0.000007379
      4        6           0.000016211   -0.000000000   -0.000007379
      5        1           0.000000000    0.000026781   -0.000022040
      6        1           0.000000000    0.000031469    0.000013477
      7        1           0.000000000   -0.000026781   -0.000022040
      8        1           0.000000000   -0.000031469    0.000013477
      9        1          -0.000026781   -0.000000000    0.000022040
     10        1          -0.000031469   -0.000000000   -0.000013477
     11        1           0.000026781   -0.000000000    0.000022040
     12        1           0.000031469    0.000000000   -0.000013477
 -------------------------------------------------------------------
 Cartesian Forces:  Max     0.000031469 RMS     0.000017295

 GradGradGradGradGradGradGradGradGradGradGradGradGradGradGradGradGradGrad
 Berny optimization.
 FormGI is forming the generalized inverse of G from B-inverse, IUseBI=4.
 Internal  Forces:  Max     0.000051898 RMS     0.000015526
 Search for a local minimum.
 Step number   1 out of a maximum of   82
 All quantities printed in internal units (Hartrees-Bohrs-Radians)
 Mixed Optimization -- En-DIIS/RFO-DIIS
 Second derivative matrix not updated -- first step.
 ITU=  0
     Eigenvalues ---    0.00308   0.02235   0.02235   0.03234   0.04723
     Eigenvalues ---    0.04727   0.04727   0.04771   0.05017   0.05247
     Eigenvalues ---    0.06251   0.06251   0.06347   0.07249   0.07821
     Eigenvalues ---    0.07821   0.08856   0.21255   0.25449   0.25449
     Eigenvalues ---    0.26791   0.27584   0.34776   0.34776   0.34776
     Eigenvalues ---    0.34776   0.34903   0.34903   0.34903   0.34903
 RFO step:  Lambda=-1.73983525D-07 EMin= 3.07704521D-03
 Linear search not attempted -- first point.
 Iteration  1 RMS(Cart)=  0.00052510 RMS(Int)=  0.00000012
 Iteration  2 RMS(Cart)=  0.00000014 RMS(Int)=  0.00000004
 ClnCor:  largest displacement from symmetrization is 2.29D-13 for atom    12.
 Variable       Old X    -DE/DX   Delta X   Delta X   Delta X     New X
                                 (Linear)    (Quad)   (Total)
    R1        2.93058   0.00005   0.00000   0.00019   0.00019   2.93077
    R2        2.93058   0.00005   0.00000   0.00019   0.00019   2.93077
    R3        2.06040  -0.00001   0.00000  -0.00004  -0.00004   2.06037
    R4        2.05833   0.00002   0.00000   0.00005   0.00005   2.05838
    R5        2.93058   0.00005   0.00000   0.00019   0.00019   2.93077
    R6        2.93058   0.00005   0.00000   0.00019   0.00019   2.93077
    R7        2.06040  -0.00001   0.00000  -0.00004  -0.00004   2.06037
    R8        2.05833   0.00002   0.00000   0.00005   0.00005   2.05838
    R9        2.06040  -0.00001   0.00000  -0.00004  -0.00004   2.06037
   R10        2.05833   0.00002   0.00000   0.00005   0.00005   2.05838
   R11        2.06040  -0.00001   0.00000  -0.00004  -0.00004   2.06037
   R12        2.05833   0.00002   0.00000   0.00005   0.00005   2.05838
    A1        1.54584   0.00000   0.00000   0.00012   0.00012   1.54597
    A2        1.94829   0.00000   0.00000   0.00004   0.00004   1.94834
    A3        2.05463   0.00001   0.00000   0.00009   0.00009   2.05472
    A4        1.94829   0.00000   0.00000   0.00004   0.00004   1.94834
    A5        2.05463   0.00001   0.00000   0.00009   0.00009   2.05472
    A6        1.89339  -0.00002   0.00000  -0.00030  -0.00030   1.89309
    A7        1.54584   0.00000   0.00000   0.00012   0.00012   1.54597
    A8        1.94829   0.00000   0.00000   0.00004   0.00004   1.94834
    A9        2.05463   0.00001   0.00000   0.00009   0.00009   2.05472
   A10        1.94829   0.00000   0.00000   0.00004   0.00004   1.94834
   A11        2.05463   0.00001   0.00000   0.00009   0.00009   2.05472
   A12        1.89339  -0.00002   0.00000  -0.00030  -0.00030   1.89309
   A13        1.54584   0.00000   0.00000   0.00012   0.00012   1.54597
   A14        1.94829   0.00000   0.00000   0.00004   0.00004   1.94834
   A15        2.05463   0.00001   0.00000   0.00009   0.00009   2.05472
   A16        1.94829   0.00000   0.00000   0.00004   0.00004   1.94834
   A17        2.05463   0.00001   0.00000   0.00009   0.00009   2.05472
   A18        1.89339  -0.00002   0.00000  -0.00030  -0.00030   1.89309
   A19        1.54584   0.00000   0.00000   0.00012   0.00012   1.54597
   A20        1.94829   0.00000   0.00000   0.00004   0.00004   1.94834
   A21        2.05463   0.00001   0.00000   0.00009   0.00009   2.05472
   A22        1.94829   0.00000   0.00000   0.00004   0.00004   1.94834
   A23        2.05463   0.00001   0.00000   0.00009   0.00009   2.05472
   A24        1.89339  -0.00002   0.00000  -0.00030  -0.00030   1.89309
    D1        0.31332  -0.00000   0.00000  -0.00076  -0.00076   0.31256
    D2       -1.65457  -0.00001   0.00000  -0.00086  -0.00086  -1.65543
    D3        2.42225   0.00001   0.00000  -0.00055  -0.00055   2.42171
    D4       -1.65457  -0.00001   0.00000  -0.00086  -0.00086  -1.65543
    D5        2.66072  -0.00002   0.00000  -0.00096  -0.00096   2.65976
    D6        0.45436  -0.00000   0.00000  -0.00065  -0.00065   0.45371
    D7        2.42225   0.00001   0.00000  -0.00055  -0.00055   2.42171
    D8        0.45436  -0.00000   0.00000  -0.00065  -0.00065   0.45371
    D9       -1.75200   0.00001   0.00000  -0.00034  -0.00034  -1.75234
   D10       -0.31332   0.00000   0.00000   0.00076   0.00076  -0.31256
   D11        1.65457   0.00001   0.00000   0.00086   0.00086   1.65543
   D12       -2.42225  -0.00001   0.00000   0.00055   0.00055  -2.42171
   D13        1.65457   0.00001   0.00000   0.00086   0.00086   1.65543
   D14       -2.66072   0.00002   0.00000   0.00096   0.00096  -2.65976
   D15       -0.45436   0.00000   0.00000   0.00065   0.00065  -0.45371
   D16       -2.42225  -0.00001   0.00000   0.00055   0.00055  -2.42171
   D17       -0.45436   0.00000   0.00000   0.00065   0.00065  -0.45371
   D18        1.75200  -0.00001   0.00000   0.00034   0.00034   1.75234
   D19       -0.31332   0.00000   0.00000   0.00076   0.00076  -0.31256
   D20        1.65457   0.00001   0.00000   0.00086   0.00086   1.65543
   D21       -2.42225  -0.00001   0.00000   0.00055   0.00055  -2.42171
   D22        1.65457   0.00001   0.00000   0.00086   0.00086   1.65543
   D23       -2.66072   0.00002   0.00000   0.00096   0.00096  -2.65976
   D24       -0.45436   0.00000   0.00000   0.00065   0.00065  -0.45371
   D25       -2.42225  -0.00001   0.00000   0.00055   0.00055  -2.42171
   D26       -0.45436   0.00000   0.00000   0.00065   0.00065  -0.45371
   D27        1.75200  -0.00001   0.00000   0.00034   0.00034   1.75234
   D28        0.31332  -0.00000   0.00000  -0.00076  -0.00076   0.31256
   D29       -1.65457  -0.00001   0.00000  -0.00086  -0.00086  -1.65543
   D30        2.42225   0.00001   0.00000  -0.00055  -0.00055   2.42171
   D31       -1.65457  -0.00001   0.00000  -0.00086  -0.00086  -1.65543
   D32        2.66072  -0.00002   0.00000  -0.00096  -0.00096   2.65976
   D33        0.45436  -0.00000   0.00000  -0.00065  -0.00065   0.45371
   D34        2.42225   0.00001   0.00000  -0.00055  -0.00055   2.42171
   D35        0.45436  -0.00000   0.00000  -0.00065  -0.00065   0.45371
   D36       -1.75200   0.00001   0.00000  -0.00034  -0.00034  -1.75234
         Item               Value     Threshold  Converged?
 Maximum Force            0.000052     0.000450     YES
 RMS     Force            0.000016     0.000300     YES
 Maximum Displacement     0.001505     0.001800     YES
 RMS     Displacement     0.000525     0.001200     YES
 Predicted change in Energy=-8.700106D-08
 Optimization completed.
    -- Stationary point found.
                           ----------------------------
                           !   Optimized Parameters   !
                           ! (Angstroms and Degrees)  !
 --------------------------                            --------------------------
 ! Name  Definition              Value          Derivative Info.                !
 --------------------------------------------------------------------------------
 ! R1    R(1,3)                  1.5508         -DE/DX =    0.0001              !
 ! R2    R(1,4)                  1.5508         -DE/DX =    0.0001              !
 ! R3    R(1,5)                  1.0903         -DE/DX =    0.0                 !
 ! R4    R(1,6)                  1.0892         -DE/DX =    0.0                 !
 ! R5    R(2,3)                  1.5508         -DE/DX =    0.0001              !
 ! R6    R(2,4)                  1.5508         -DE/DX =    0.0001              !
 ! R7    R(2,7)                  1.0903         -DE/DX =    0.0                 !
 ! R8    R(2,8)                  1.0892         -DE/DX =    0.0                 !
 ! R9    R(3,9)                  1.0903         -DE/DX =    0.0                 !
 ! R10   R(3,10)                 1.0892         -DE/DX =    0.0                 !
 ! R11   R(4,11)                 1.0903         -DE/DX =    0.0                 !
 ! R12   R(4,12)                 1.0892         -DE/DX =    0.0                 !
 ! A1    A(3,1,4)               88.5704         -DE/DX =    0.0                 !
 ! A2    A(3,1,5)              111.6291         -DE/DX =    0.0                 !
 ! A3    A(3,1,6)              117.7214         -DE/DX =    0.0                 !
 ! A4    A(4,1,5)              111.6291         -DE/DX =    0.0                 !
 ! A5    A(4,1,6)              117.7214         -DE/DX =    0.0                 !
 ! A6    A(5,1,6)              108.4835         -DE/DX =    0.0                 !
 ! A7    A(3,2,4)               88.5704         -DE/DX =    0.0                 !
 ! A8    A(3,2,7)              111.6291         -DE/DX =    0.0                 !
 ! A9    A(3,2,8)              117.7214         -DE/DX =    0.0                 !
 ! A10   A(4,2,7)              111.6291         -DE/DX =    0.0                 !
 ! A11   A(4,2,8)              117.7214         -DE/DX =    0.0                 !
 ! A12   A(7,2,8)              108.4835         -DE/DX =    0.0                 !
 ! A13   A(1,3,2)               88.5704         -DE/DX =    0.0                 !
 ! A14   A(1,3,9)              111.6291         -DE/DX =    0.0                 !
 ! A15   A(1,3,10)             117.7214         -DE/DX =    0.0                 !
 ! A16   A(2,3,9)              111.6291         -DE/DX =    0.0                 !
 ! A17   A(2,3,10)             117.7214         -DE/DX =    0.0                 !
 ! A18   A(9,3,10)             108.4835         -DE/DX =    0.0                 !
 ! A19   A(1,4,2)               88.5704         -DE/DX =    0.0                 !
 ! A20   A(1,4,11)             111.6291         -DE/DX =    0.0                 !
 ! A21   A(1,4,12)             117.7214         -DE/DX =    0.0                 !
 ! A22   A(2,4,11)             111.6291         -DE/DX =    0.0                 !
 ! A23   A(2,4,12)             117.7214         -DE/DX =    0.0                 !
 ! A24   A(11,4,12)            108.4835         -DE/DX =    0.0                 !
 ! D1    D(4,1,3,2)             17.9519         -DE/DX =    0.0                 !
 ! D2    D(4,1,3,9)            -94.8001         -DE/DX =    0.0                 !
 ! D3    D(4,1,3,10)           138.7849         -DE/DX =    0.0                 !
 ! D4    D(5,1,3,2)            -94.8001         -DE/DX =    0.0                 !
 ! D5    D(5,1,3,9)            152.4479         -DE/DX =    0.0                 !
 ! D6    D(5,1,3,10)            26.0329         -DE/DX =    0.0                 !
 ! D7    D(6,1,3,2)            138.7849         -DE/DX =    0.0                 !
 ! D8    D(6,1,3,9)             26.0329         -DE/DX =    0.0                 !
 ! D9    D(6,1,3,10)          -100.3821         -DE/DX =    0.0                 !
 ! D10   D(3,1,4,2)            -17.9519         -DE/DX =    0.0                 !
 ! D11   D(3,1,4,11)            94.8001         -DE/DX =    0.0                 !
 ! D12   D(3,1,4,12)          -138.7849         -DE/DX =    0.0                 !
 ! D13   D(5,1,4,2)             94.8001         -DE/DX =    0.0                 !
 ! D14   D(5,1,4,11)          -152.4479         -DE/DX =    0.0                 !
 ! D15   D(5,1,4,12)           -26.0329         -DE/DX =    0.0                 !
 ! D16   D(6,1,4,2)           -138.7849         -DE/DX =    0.0                 !
 ! D17   D(6,1,4,11)           -26.0329         -DE/DX =    0.0                 !
 ! D18   D(6,1,4,12)           100.3821         -DE/DX =    0.0                 !
 ! D19   D(4,2,3,1)            -17.9519         -DE/DX =    0.0                 !
 ! D20   D(4,2,3,9)             94.8001         -DE/DX =    0.0                 !
 ! D21   D(4,2,3,10)          -138.7849         -DE/DX =    0.0                 !
 ! D22   D(7,2,3,1)             94.8001         -DE/DX =    0.0                 !
 ! D23   D(7,2,3,9)           -152.4479         -DE/DX =    0.0                 !
 ! D24   D(7,2,3,10)           -26.0329         -DE/DX =    0.0                 !
 ! D25   D(8,2,3,1)           -138.7849         -DE/DX =    0.0                 !
 ! D26   D(8,2,3,9)            -26.0329         -DE/DX =    0.0                 !
 ! D27   D(8,2,3,10)           100.3821         -DE/DX =    0.0                 !
 ! D28   D(3,2,4,1)             17.9519         -DE/DX =    0.0                 !
 ! D29   D(3,2,4,11)           -94.8001         -DE/DX =    0.0                 !
 ! D30   D(3,2,4,12)           138.7849         -DE/DX =    0.0                 !
 ! D31   D(7,2,4,1)            -94.8001         -DE/DX =    0.0                 !
 ! D32   D(7,2,4,11)           152.4479         -DE/DX =    0.0                 !
 ! D33   D(7,2,4,12)            26.0329         -DE/DX =    0.0                 !
 ! D34   D(8,2,4,1)            138.7849         -DE/DX =    0.0                 !
 ! D35   D(8,2,4,11)            26.0329         -DE/DX =    0.0                 !
 ! D36   D(8,2,4,12)          -100.3821         -DE/DX =    0.0                 !
 --------------------------------------------------------------------------------
 GradGradGradGradGradGradGradGradGradGradGradGradGradGradGradGradGradGrad

                          Input orientation:                          
 ---------------------------------------------------------------------
 Center     Atomic      Atomic             Coordinates (Angstroms)
 Number     Number       Type             X           Y           Z
 ---------------------------------------------------------------------
      1          6           0        0.000000    1.082812    0.122477
      2          6           0       -0.000000   -1.082812    0.122477
      3          6           0       -1.082812    0.000000   -0.122477
      4          6           0        1.082812   -0.000000   -0.122477
      5          1           0        0.000000    1.424137    1.157991
      6          1           0        0.000000    1.955821   -0.528877
      7          1           0       -0.000000   -1.424137    1.157991
      8          1           0       -0.000000   -1.955821   -0.528877
      9          1           0       -1.424137    0.000000   -1.157991
     10          1           0       -1.955821    0.000000    0.528877
     11          1           0        1.424137   -0.000000   -1.157991
     12          1           0        1.955821   -0.000000    0.528877
 ---------------------------------------------------------------------
                    Distance matrix (angstroms):
                    1          2          3          4          5
     1  C    0.000000
     2  C    2.165624   0.000000
     3  C    1.550795   1.550795   0.000000
     4  C    1.550795   1.550795   2.165624   0.000000
     5  H    1.090317   2.712394   2.200056   2.200056   0.000000
     6  H    1.089223   3.107660   2.272197   2.272197   1.768675
     7  H    2.712394   1.090317   2.200056   2.200056   2.848274
     8  H    3.107660   1.089223   2.272197   2.272197   3.777518
     9  H    2.200056   2.200056   1.090317   2.712394   3.069219
    10  H    2.272197   2.272197   1.089223   3.107660   2.499837
    11  H    2.200056   2.200056   2.712394   1.090317   3.069219
    12  H    2.272197   2.272197   3.107660   1.089223   2.499837
                    6          7          8          9         10
     6  H    0.000000
     7  H    3.777518   0.000000
     8  H    3.911642   1.768675   0.000000
     9  H    2.499837   3.069219   2.499837   0.000000
    10  H    2.961303   2.499837   2.961303   1.768675   0.000000
    11  H    2.499837   3.069219   2.499837   2.848274   3.777518
    12  H    2.961303   2.499837   2.961303   3.777518   3.911642
                   11         12
    11  H    0.000000
    12  H    1.768675   0.000000
 Stoichiometry    C4H8
 Framework group  D2D[2SGD(C2H4)]
 Deg. of freedom     6
 Full point group                 D2D     NOp   8
 Largest Abelian subgroup         C2V     NOp   4
 Largest concise Abelian subgroup C2V     NOp   4
                         Standard orientation:                         
 ---------------------------------------------------------------------
 Center     Atomic      Atomic             Coordinates (Angstroms)
 Number     Number       Type             X           Y           Z
 ---------------------------------------------------------------------
      1          6           0        0.000000    1.082812    0.122477
      2          6           0       -0.000000   -1.082812    0.122477
      3          6           0       -1.082812    0.000000   -0.122477
      4          6           0        1.082812   -0.000000   -0.122477
      5          1           0        0.000000    1.424137    1.157991
      6          1           0        0.000000    1.955821   -0.528877
      7          1           0       -0.000000   -1.424137    1.157991
      8          1           0       -0.000000   -1.955821   -0.528877
      9          1           0       -1.424137    0.000000   -1.157991
     10          1           0       -1.955821    0.000000    0.528877
     11          1           0        1.424137   -0.000000   -1.157991
     12          1           0        1.955821   -0.000000    0.528877
 ---------------------------------------------------------------------
 Rotational constants (GHZ):          10.7091458          10.7091458           6.3270487
 1\1\GINC-GAMBA\FOpt\RB3LYP\Gen\C4H8\IRIKURA\29-Sep-2023\0\\# b3lyp/gen
  opt freq CPHF(Grid=OneStep)\\cyclobutane, B3LYP/pcseg-2\\0,1\C,0.,1.0
 82812,0.122477\C,0.,-1.082812,0.122477\C,-1.082812,0.,-0.122477\C,1.08
 2812,0.,-0.122477\H,0.,1.424137,1.157991\H,0.,1.955821,-0.528877\H,0.,
 -1.424137,1.157991\H,0.,-1.955821,-0.528877\H,-1.424137,0.,-1.157991\H
 ,-1.955821,0.,0.528877\H,1.424137,0.,-1.157991\H,1.955821,0.,0.528877\
 \Version=ES64L-G16RevB.01\State=1-A1\HF=-157.2757673\RMSD=6.463e-09\RM
 SF=1.730e-05\Dipole=0.,0.,0.\Quadrupole=-0.3808466,-0.3808466,0.761693
 2,0.,0.,0.\PG=D02D [2SGD(C2H4)]\\@


 IF YOU GET CONFUSED, LOGIC OUT YOUR DILEMMA

           --  PICKER X-RAY CORP.    DIGITAL PRINTER MANUAL CA. 1964
 Job cpu time:       0 days  0 hours  0 minutes 54.0 seconds.
 Elapsed time:       0 days  0 hours  0 minutes 13.8 seconds.
 File lengths (MBytes):  RWF=     27 Int=      0 D2E=      0 Chk=      5 Scr=      1
 Normal termination of Gaussian 16 at Fri Sep 29 04:04:24 2023.
 Link1:  Proceeding to internal job step number  2.
 ------------------------------------------------------------------
 #N Geom=AllCheck Guess=TCheck SCRF=Check GenChk RB3LYP/ChkBas Freq
 ------------------------------------------------------------------
 1/10=4,29=7,30=1,38=1,40=1/1,3;
 2/12=2,40=1/2;
 3/5=7,6=2,11=2,14=-4,25=1,30=1,67=1,70=2,71=2,74=-5,82=7,116=1,140=1/1,2,3;
 4/5=101/1;
 5/5=2,38=6,98=1/2;
 8/6=4,10=90,11=11/1;
 11/6=1,8=1,9=11,15=111,16=1/1,2,10;
 10/6=1,60=-420/2;
 6/7=2,8=2,9=2,10=2,28=1/1;
 7/8=1,10=1,25=1/1,2,3,16;
 1/10=4,30=1/3;
 99//99;
 Structure from the checkpoint file:  "cyc4.chk"
 --------------------------
 cyclobutane, B3LYP/pcseg-2
 --------------------------
 Charge =  0 Multiplicity = 1
 Redundant internal coordinates found in file.  (old form).
 C,0,0.,1.082812,0.122477
 C,0,0.,-1.082812,0.122477
 C,0,-1.082812,0.,-0.122477
 C,0,1.082812,0.,-0.122477
 H,0,0.,1.424137,1.157991
 H,0,0.,1.955821,-0.528877
 H,0,0.,-1.424137,1.157991
 H,0,0.,-1.955821,-0.528877
 H,0,-1.424137,0.,-1.157991
 H,0,-1.955821,0.,0.528877
 H,0,1.424137,0.,-1.157991
 H,0,1.955821,0.,0.528877
 Recover connectivity data from disk.

 GradGradGradGradGradGradGradGradGradGradGradGradGradGradGradGradGradGrad
 Berny optimization.
 Initialization pass.
                           ----------------------------
                           !    Initial Parameters    !
                           ! (Angstroms and Degrees)  !
 --------------------------                            --------------------------
 ! Name  Definition              Value          Derivative Info.                !
 --------------------------------------------------------------------------------
 ! R1    R(1,3)                  1.5508         calculate D2E/DX2 analytically  !
 ! R2    R(1,4)                  1.5508         calculate D2E/DX2 analytically  !
 ! R3    R(1,5)                  1.0903         calculate D2E/DX2 analytically  !
 ! R4    R(1,6)                  1.0892         calculate D2E/DX2 analytically  !
 ! R5    R(2,3)                  1.5508         calculate D2E/DX2 analytically  !
 ! R6    R(2,4)                  1.5508         calculate D2E/DX2 analytically  !
 ! R7    R(2,7)                  1.0903         calculate D2E/DX2 analytically  !
 ! R8    R(2,8)                  1.0892         calculate D2E/DX2 analytically  !
 ! R9    R(3,9)                  1.0903         calculate D2E/DX2 analytically  !
 ! R10   R(3,10)                 1.0892         calculate D2E/DX2 analytically  !
 ! R11   R(4,11)                 1.0903         calculate D2E/DX2 analytically  !
 ! R12   R(4,12)                 1.0892         calculate D2E/DX2 analytically  !
 ! A1    A(3,1,4)               88.5704         calculate D2E/DX2 analytically  !
 ! A2    A(3,1,5)              111.6291         calculate D2E/DX2 analytically  !
 ! A3    A(3,1,6)              117.7214         calculate D2E/DX2 analytically  !
 ! A4    A(4,1,5)              111.6291         calculate D2E/DX2 analytically  !
 ! A5    A(4,1,6)              117.7214         calculate D2E/DX2 analytically  !
 ! A6    A(5,1,6)              108.4835         calculate D2E/DX2 analytically  !
 ! A7    A(3,2,4)               88.5704         calculate D2E/DX2 analytically  !
 ! A8    A(3,2,7)              111.6291         calculate D2E/DX2 analytically  !
 ! A9    A(3,2,8)              117.7214         calculate D2E/DX2 analytically  !
 ! A10   A(4,2,7)              111.6291         calculate D2E/DX2 analytically  !
 ! A11   A(4,2,8)              117.7214         calculate D2E/DX2 analytically  !
 ! A12   A(7,2,8)              108.4835         calculate D2E/DX2 analytically  !
 ! A13   A(1,3,2)               88.5704         calculate D2E/DX2 analytically  !
 ! A14   A(1,3,9)              111.6291         calculate D2E/DX2 analytically  !
 ! A15   A(1,3,10)             117.7214         calculate D2E/DX2 analytically  !
 ! A16   A(2,3,9)              111.6291         calculate D2E/DX2 analytically  !
 ! A17   A(2,3,10)             117.7214         calculate D2E/DX2 analytically  !
 ! A18   A(9,3,10)             108.4835         calculate D2E/DX2 analytically  !
 ! A19   A(1,4,2)               88.5704         calculate D2E/DX2 analytically  !
 ! A20   A(1,4,11)             111.6291         calculate D2E/DX2 analytically  !
 ! A21   A(1,4,12)             117.7214         calculate D2E/DX2 analytically  !
 ! A22   A(2,4,11)             111.6291         calculate D2E/DX2 analytically  !
 ! A23   A(2,4,12)             117.7214         calculate D2E/DX2 analytically  !
 ! A24   A(11,4,12)            108.4835         calculate D2E/DX2 analytically  !
 ! D1    D(4,1,3,2)             17.9519         calculate D2E/DX2 analytically  !
 ! D2    D(4,1,3,9)            -94.8001         calculate D2E/DX2 analytically  !
 ! D3    D(4,1,3,10)           138.7849         calculate D2E/DX2 analytically  !
 ! D4    D(5,1,3,2)            -94.8001         calculate D2E/DX2 analytically  !
 ! D5    D(5,1,3,9)            152.4479         calculate D2E/DX2 analytically  !
 ! D6    D(5,1,3,10)            26.0329         calculate D2E/DX2 analytically  !
 ! D7    D(6,1,3,2)            138.7849         calculate D2E/DX2 analytically  !
 ! D8    D(6,1,3,9)             26.0329         calculate D2E/DX2 analytically  !
 ! D9    D(6,1,3,10)          -100.3821         calculate D2E/DX2 analytically  !
 ! D10   D(3,1,4,2)            -17.9519         calculate D2E/DX2 analytically  !
 ! D11   D(3,1,4,11)            94.8001         calculate D2E/DX2 analytically  !
 ! D12   D(3,1,4,12)          -138.7849         calculate D2E/DX2 analytically  !
 ! D13   D(5,1,4,2)             94.8001         calculate D2E/DX2 analytically  !
 ! D14   D(5,1,4,11)          -152.4479         calculate D2E/DX2 analytically  !
 ! D15   D(5,1,4,12)           -26.0329         calculate D2E/DX2 analytically  !
 ! D16   D(6,1,4,2)           -138.7849         calculate D2E/DX2 analytically  !
 ! D17   D(6,1,4,11)           -26.0329         calculate D2E/DX2 analytically  !
 ! D18   D(6,1,4,12)           100.3821         calculate D2E/DX2 analytically  !
 ! D19   D(4,2,3,1)            -17.9519         calculate D2E/DX2 analytically  !
 ! D20   D(4,2,3,9)             94.8001         calculate D2E/DX2 analytically  !
 ! D21   D(4,2,3,10)          -138.7849         calculate D2E/DX2 analytically  !
 ! D22   D(7,2,3,1)             94.8001         calculate D2E/DX2 analytically  !
 ! D23   D(7,2,3,9)           -152.4479         calculate D2E/DX2 analytically  !
 ! D24   D(7,2,3,10)           -26.0329         calculate D2E/DX2 analytically  !
 ! D25   D(8,2,3,1)           -138.7849         calculate D2E/DX2 analytically  !
 ! D26   D(8,2,3,9)            -26.0329         calculate D2E/DX2 analytically  !
 ! D27   D(8,2,3,10)           100.3821         calculate D2E/DX2 analytically  !
 ! D28   D(3,2,4,1)             17.9519         calculate D2E/DX2 analytically  !
 ! D29   D(3,2,4,11)           -94.8001         calculate D2E/DX2 analytically  !
 ! D30   D(3,2,4,12)           138.7849         calculate D2E/DX2 analytically  !
 ! D31   D(7,2,4,1)            -94.8001         calculate D2E/DX2 analytically  !
 ! D32   D(7,2,4,11)           152.4479         calculate D2E/DX2 analytically  !
 ! D33   D(7,2,4,12)            26.0329         calculate D2E/DX2 analytically  !
 ! D34   D(8,2,4,1)            138.7849         calculate D2E/DX2 analytically  !
 ! D35   D(8,2,4,11)            26.0329         calculate D2E/DX2 analytically  !
 ! D36   D(8,2,4,12)          -100.3821         calculate D2E/DX2 analytically  !
 --------------------------------------------------------------------------------
 Trust Radius=3.00D-01 FncErr=1.00D-07 GrdErr=1.00D-07 EigMax=2.50D+02 EigMin=1.00D-04
 Number of steps in this run=      2 maximum allowed number of steps=      2.
 GradGradGradGradGradGradGradGradGradGradGradGradGradGradGradGradGradGrad

                          Input orientation:                          
 ---------------------------------------------------------------------
 Center     Atomic      Atomic             Coordinates (Angstroms)
 Number     Number       Type             X           Y           Z
 ---------------------------------------------------------------------
      1          6           0        0.000000    1.082812    0.122477
      2          6           0       -0.000000   -1.082812    0.122477
      3          6           0       -1.082812    0.000000   -0.122477
      4          6           0        1.082812   -0.000000   -0.122477
      5          1           0        0.000000    1.424137    1.157991
      6          1           0        0.000000    1.955821   -0.528877
      7          1           0       -0.000000   -1.424137    1.157991
      8          1           0       -0.000000   -1.955821   -0.528877
      9          1           0       -1.424137    0.000000   -1.157991
     10          1           0       -1.955821    0.000000    0.528877
     11          1           0        1.424137   -0.000000   -1.157991
     12          1           0        1.955821   -0.000000    0.528877
 ---------------------------------------------------------------------
                    Distance matrix (angstroms):
                    1          2          3          4          5
     1  C    0.000000
     2  C    2.165624   0.000000
     3  C    1.550795   1.550795   0.000000
     4  C    1.550795   1.550795   2.165624   0.000000
     5  H    1.090317   2.712394   2.200056   2.200056   0.000000
     6  H    1.089223   3.107660   2.272197   2.272197   1.768675
     7  H    2.712394   1.090317   2.200056   2.200056   2.848274
     8  H    3.107660   1.089223   2.272197   2.272197   3.777518
     9  H    2.200056   2.200056   1.090317   2.712394   3.069219
    10  H    2.272197   2.272197   1.089223   3.107660   2.499837
    11  H    2.200056   2.200056   2.712394   1.090317   3.069219
    12  H    2.272197   2.272197   3.107660   1.089223   2.499837
                    6          7          8          9         10
     6  H    0.000000
     7  H    3.777518   0.000000
     8  H    3.911642   1.768675   0.000000
     9  H    2.499837   3.069219   2.499837   0.000000
    10  H    2.961303   2.499837   2.961303   1.768675   0.000000
    11  H    2.499837   3.069219   2.499837   2.848274   3.777518
    12  H    2.961303   2.499837   2.961303   3.777518   3.911642
                   11         12
    11  H    0.000000
    12  H    1.768675   0.000000
 Stoichiometry    C4H8
 Framework group  D2D[2SGD(C2H4)]
 Deg. of freedom     6
 Full point group                 D2D     NOp   8
 Largest Abelian subgroup         C2V     NOp   4
 Largest concise Abelian subgroup C2V     NOp   4
                         Standard orientation:                         
 ---------------------------------------------------------------------
 Center     Atomic      Atomic             Coordinates (Angstroms)
 Number     Number       Type             X           Y           Z
 ---------------------------------------------------------------------
      1          6           0        0.000000    1.082812    0.122477
      2          6           0       -0.000000   -1.082812    0.122477
      3          6           0       -1.082812    0.000000   -0.122477
      4          6           0        1.082812   -0.000000   -0.122477
      5          1           0        0.000000    1.424137    1.157991
      6          1           0        0.000000    1.955821   -0.528877
      7          1           0       -0.000000   -1.424137    1.157991
      8          1           0       -0.000000   -1.955821   -0.528877
      9          1           0       -1.424137    0.000000   -1.157991
     10          1           0       -1.955821    0.000000    0.528877
     11          1           0        1.424137   -0.000000   -1.157991
     12          1           0        1.955821   -0.000000    0.528877
 ---------------------------------------------------------------------
 Rotational constants (GHZ):          10.7091458          10.7091458           6.3270487
 Basis read from chk: "cyc4.chk" (5D, 7F)
 There are    92 symmetry adapted cartesian basis functions of A1  symmetry.
 There are    38 symmetry adapted cartesian basis functions of A2  symmetry.
 There are    65 symmetry adapted cartesian basis functions of B1  symmetry.
 There are    65 symmetry adapted cartesian basis functions of B2  symmetry.
 There are    80 symmetry adapted basis functions of A1  symmetry.
 There are    36 symmetry adapted basis functions of A2  symmetry.
 There are    58 symmetry adapted basis functions of B1  symmetry.
 There are    58 symmetry adapted basis functions of B2  symmetry.
   232 basis functions,   348 primitive gaussians,   260 cartesian basis functions
    16 alpha electrons       16 beta electrons
       nuclear repulsion energy       127.0290966005 Hartrees.
 NAtoms=   12 NActive=   12 NUniq=    3 SFac= 4.00D+00 NAtFMM=   60 NAOKFM=F Big=F
 Integral buffers will be    131072 words long.
 Raffenetti 2 integral format.
 Two-electron integral symmetry is turned on.
 One-electron integrals computed using PRISM.
 NBasis=   232 RedAO= T EigKep=  1.67D-04  NBF=    80    36    58    58
 NBsUse=   232 1.00D-06 EigRej= -1.00D+00 NBFU=    80    36    58    58
 Initial guess from the checkpoint file:  "cyc4.chk"
 B after Tr=    -0.000000   -0.000000   -0.000000
         Rot=    1.000000   -0.000000    0.000000    0.000000 Ang=   0.00 deg.
 Initial guess orbital symmetries:
       Occupied  (A1) (E) (E) (B2) (A1) (E) (E) (B2) (B2) (A1)
                 (E) (E) (B1) (A1) (E) (E)
       Virtual   (A1) (B2) (E) (E) (B2) (E) (E) (A1) (E) (E) (B1)
                 (A1) (B2) (A2) (E) (E) (B2) (A1) (E) (E) (B2)
                 (E) (E) (A1) (E) (E) (E) (E) (A2) (B2) (A1) (B2)
                 (A1) (E) (E) (A2) (B2) (B1) (A1) (E) (E) (B2)
                 (E) (E) (A1) (B1) (E) (E) (A1) (B2) (E) (E) (E)
                 (E) (A1) (A2) (B2) (E) (E) (B2) (E) (E) (A1) (B1)
                 (A2) (B2) (E) (E) (A1) (B2) (E) (E) (E) (E) (A2)
[...]
                 (B2) (E) (E) (A1) (B2) (A1) (E) (E) (A2) (E) (E)
                 (A1) (E) (E) (B1) (E) (E) (B1) (A1) (B2) (B2)
                 (E) (E) (A1) (B2) (A1) (E) (E) (B2) (E) (E) (E)
                 (E) (B2) (A1) (A2) (B1) (A1) (E) (E) (B2) (A1)
                 (E) (E) (E) (E) (B2) (A2) (A1) (E) (E) (B2)
 The electronic state is 1-A1.
 Alpha  occ. eigenvalues --  -11.21473 -11.21418 -11.21418 -11.21362  -1.11896
 Alpha  occ. eigenvalues --   -0.89146  -0.89146  -0.74760  -0.64723  -0.63903
 Alpha  occ. eigenvalues --   -0.53529  -0.53529  -0.48366  -0.45061  -0.43383
 Alpha  occ. eigenvalues --   -0.43383
 Alpha virt. eigenvalues --    0.05220   0.05220   0.05826   0.05834   0.07778
 Alpha virt. eigenvalues --    0.09374   0.09374   0.09576   0.10045   0.12709
 Alpha virt. eigenvalues --    0.12709   0.13792   0.14419   0.17424   0.17424
 Alpha virt. eigenvalues --    0.18028   0.21885   0.25117   0.25117   0.27083
 Alpha virt. eigenvalues --    0.28085   0.28085   0.28273   0.28492   0.34005
 Alpha virt. eigenvalues --    0.34772   0.34772   0.36322   0.37787   0.38814
 Alpha virt. eigenvalues --    0.39329   0.39329   0.41402   0.42316   0.45717
 Alpha virt. eigenvalues --    0.46569   0.46569   0.46739   0.50352   0.50352
 Alpha virt. eigenvalues --    0.54276   0.54276   0.54457   0.56124   0.56307
 Alpha virt. eigenvalues --    0.57441   0.57441   0.58636   0.61270   0.63527
 Alpha virt. eigenvalues --    0.65986   0.65986   0.70688   0.73900   0.73900
 Alpha virt. eigenvalues --    0.74680   0.75048   0.75048   0.78956   0.81429
 Alpha virt. eigenvalues --    0.83564   0.83564   0.84549   0.84694   0.86276
 Alpha virt. eigenvalues --    0.87731   0.87731   0.90906   0.93889   0.96630
 Alpha virt. eigenvalues --    0.96630   0.96800   0.97754   1.01879   1.02721
 Alpha virt. eigenvalues --    1.02721   1.03381   1.05904   1.05904   1.05933
 Alpha virt. eigenvalues --    1.07179   1.07197   1.08154   1.14284   1.14284
 Alpha virt. eigenvalues --    1.17523   1.17523   1.20676   1.24010   1.29379
 Alpha virt. eigenvalues --    1.29902   1.30677   1.30677   1.33777   1.33777
 Alpha virt. eigenvalues --    1.36100   1.42335   1.53967   1.57035   1.58282
 Alpha virt. eigenvalues --    1.59186   1.59186   1.64979   1.66347   1.66347
 Alpha virt. eigenvalues --    1.67987   1.71767   1.71767   1.73562   1.73869
 Alpha virt. eigenvalues --    1.73869   1.74246   1.81579   1.84578   1.85105
 Alpha virt. eigenvalues --    1.86757   1.86757   1.89092   1.89742   1.89742
 Alpha virt. eigenvalues --    1.90459   1.92216   1.92216   1.92498   1.95547
 Alpha virt. eigenvalues --    1.96539   1.96539   1.97395   2.00800   2.01214
 Alpha virt. eigenvalues --    2.04628   2.04628   2.04633   2.06323   2.08501
 Alpha virt. eigenvalues --    2.08574   2.08574   2.10130   2.11613   2.11622
 Alpha virt. eigenvalues --    2.13443   2.13443   2.20539   2.22296   2.22296
 Alpha virt. eigenvalues --    2.23411   2.23500   2.23696   2.23696   2.29338
 Alpha virt. eigenvalues --    2.32370   2.33254   2.34009   2.34009   2.38221
 Alpha virt. eigenvalues --    2.38221   2.39064   2.42914   2.49331   2.49975
 Alpha virt. eigenvalues --    2.50551   2.50551   2.55106   2.55106   2.56819
 Alpha virt. eigenvalues --    2.62336   2.62336   2.63071   2.66226   2.68187
 Alpha virt. eigenvalues --    2.68187   2.68796   2.68797   2.70869   2.70869
 Alpha virt. eigenvalues --    2.76210   2.83960   2.85369   2.85369   2.87865
 Alpha virt. eigenvalues --    2.89604   2.89765   2.91204   2.94351   2.94351
 Alpha virt. eigenvalues --    2.98961   3.00394   3.06079   3.06079   3.07095
 Alpha virt. eigenvalues --    3.08406   3.10243   3.10243   3.14559   3.14559
 Alpha virt. eigenvalues --    3.16453   3.20974   3.21898   3.21898   3.23643
 Alpha virt. eigenvalues --    3.26370   3.31680   3.38595   3.39077   3.39077
 Alpha virt. eigenvalues --    3.45547   3.45547   3.49444   3.51723   3.54323
 Alpha virt. eigenvalues --    3.58906   3.58906   3.59962   3.67471   3.67471
 Alpha virt. eigenvalues --    3.69274   3.72431   3.73823   3.83896   3.83896
 Alpha virt. eigenvalues --    3.91720   3.93609   3.93609   4.02458   4.05955
 Alpha virt. eigenvalues --    4.05955   4.07778   4.10931   4.15873   4.24371
 Alpha virt. eigenvalues --    4.24371   4.48460   4.48774   4.71647   4.80799
 Alpha virt. eigenvalues --    4.83776   4.83866   4.85039   4.85039   4.89827
 Alpha virt. eigenvalues --    4.89827   5.07643   5.07643   5.09687   5.16198
 Alpha virt. eigenvalues --    5.16198   5.17822   5.26881   5.37013   5.39038
 Alpha virt. eigenvalues --    5.39038   5.61761   5.61761   5.64681   5.71427
 Alpha virt. eigenvalues --    5.71427   5.73244   5.83074   5.87969   5.89993
 Alpha virt. eigenvalues --    5.98159   6.10641   6.10641   6.11088   6.12758
 Alpha virt. eigenvalues --    6.13738   6.13738   6.14087   6.15014   6.22302
 Alpha virt. eigenvalues --    6.25373   6.37250   6.37644   6.37644   6.40893
 Alpha virt. eigenvalues --    6.40893   6.50422   6.51305   6.51305   6.53050
 Alpha virt. eigenvalues --    6.69763   6.76766   6.77680   6.77680   6.81061
 Alpha virt. eigenvalues --    6.83540   6.83540   6.95018   7.23347   7.26877
 Alpha virt. eigenvalues --    7.26877   7.33368   7.39006   7.39099   7.53406
 Alpha virt. eigenvalues --    7.53406   8.18463   8.37604   8.37604   8.37712
 Alpha virt. eigenvalues --    8.51308   8.51308   8.56688   8.61409   8.61409
 Alpha virt. eigenvalues --    8.63933   8.69315   8.78437   8.94830   9.07409
 Alpha virt. eigenvalues --    9.07409   9.27131   9.48666   9.50764   9.52254
 Alpha virt. eigenvalues --    9.52254   9.67783   9.73114   9.73114   9.84428
 Alpha virt. eigenvalues --    9.84428   9.94670  10.11940  10.19399  21.45809
 Alpha virt. eigenvalues --   21.47902  21.55455  21.55455  21.62210  21.64764
 Alpha virt. eigenvalues --   21.73216  21.73216  21.89932  21.89932  21.98170
 Alpha virt. eigenvalues --   22.05829  22.90426  23.87817  23.87817  24.20734
          Condensed to atoms (all electrons):
               1          2          3          4          5          6
     1  C    5.089637  -0.116916   0.248118   0.248118   0.418887   0.412000
     2  C   -0.116916   5.089637   0.248118   0.248118   0.010242   0.030013
     3  C    0.248118   0.248118   5.089637  -0.116916  -0.043540  -0.042068
     4  C    0.248118   0.248118  -0.116916   5.089637  -0.043540  -0.042068
     5  H    0.418887   0.010242  -0.043540  -0.043540   0.594358  -0.017936
     6  H    0.412000   0.030013  -0.042068  -0.042068  -0.017936   0.581612
     7  H    0.010242   0.418887  -0.043540  -0.043540  -0.002829  -0.001024
     8  H    0.030013   0.412000  -0.042068  -0.042068  -0.001024  -0.001052
     9  H   -0.043540  -0.043540   0.418887   0.010242   0.004227  -0.003736
    10  H   -0.042068  -0.042068   0.412000   0.030013  -0.003736   0.001754
    11  H   -0.043540  -0.043540   0.010242   0.418887   0.004227  -0.003736
    12  H   -0.042068  -0.042068   0.030013   0.412000  -0.003736   0.001754
               7          8          9         10         11         12
     1  C    0.010242   0.030013  -0.043540  -0.042068  -0.043540  -0.042068
     2  C    0.418887   0.412000  -0.043540  -0.042068  -0.043540  -0.042068
     3  C   -0.043540  -0.042068   0.418887   0.412000   0.010242   0.030013
     4  C   -0.043540  -0.042068   0.010242   0.030013   0.418887   0.412000
     5  H   -0.002829  -0.001024   0.004227  -0.003736   0.004227  -0.003736
     6  H   -0.001024  -0.001052  -0.003736   0.001754  -0.003736   0.001754
     7  H    0.594358  -0.017936   0.004227  -0.003736   0.004227  -0.003736
     8  H   -0.017936   0.581612  -0.003736   0.001754  -0.003736   0.001754
     9  H    0.004227  -0.003736   0.594358  -0.017936  -0.002829  -0.001024
    10  H   -0.003736   0.001754  -0.017936   0.581612  -0.001024  -0.001052
    11  H    0.004227  -0.003736  -0.002829  -0.001024   0.594358  -0.017936
    12  H   -0.003736   0.001754  -0.001024  -0.001052  -0.017936   0.581612
          Atomic-Atomic Spin Densities.
               1          2          3          4          5          6
     1  C    0.000000   0.000000   0.000000   0.000000   0.000000   0.000000
     2  C    0.000000   0.000000   0.000000   0.000000   0.000000   0.000000
     3  C    0.000000   0.000000   0.000000   0.000000   0.000000   0.000000
     4  C    0.000000   0.000000   0.000000   0.000000   0.000000   0.000000
     5  H    0.000000   0.000000   0.000000   0.000000   0.000000   0.000000
     6  H    0.000000   0.000000   0.000000   0.000000   0.000000   0.000000
     7  H    0.000000   0.000000   0.000000   0.000000   0.000000   0.000000
     8  H    0.000000   0.000000   0.000000   0.000000   0.000000   0.000000
     9  H    0.000000   0.000000   0.000000   0.000000   0.000000   0.000000
    10  H    0.000000   0.000000   0.000000   0.000000   0.000000   0.000000
    11  H    0.000000   0.000000   0.000000   0.000000   0.000000   0.000000
    12  H    0.000000   0.000000   0.000000   0.000000   0.000000   0.000000
               7          8          9         10         11         12
     1  C    0.000000   0.000000   0.000000   0.000000   0.000000   0.000000
     2  C    0.000000   0.000000   0.000000   0.000000   0.000000   0.000000
     3  C    0.000000   0.000000   0.000000   0.000000   0.000000   0.000000
     4  C    0.000000   0.000000   0.000000   0.000000   0.000000   0.000000
     5  H    0.000000   0.000000   0.000000   0.000000   0.000000   0.000000
     6  H    0.000000   0.000000   0.000000   0.000000   0.000000   0.000000
     7  H    0.000000   0.000000   0.000000   0.000000   0.000000   0.000000
     8  H    0.000000   0.000000   0.000000   0.000000   0.000000   0.000000
     9  H    0.000000   0.000000   0.000000   0.000000   0.000000   0.000000
    10  H    0.000000   0.000000   0.000000   0.000000   0.000000   0.000000
    11  H    0.000000   0.000000   0.000000   0.000000   0.000000   0.000000
    12  H    0.000000   0.000000   0.000000   0.000000   0.000000   0.000000
 Mulliken charges and spin densities:
               1          2
     1  C   -0.168885   0.000000
     2  C   -0.168885   0.000000
     3  C   -0.168885   0.000000
     4  C   -0.168885   0.000000
     5  H    0.084398   0.000000
     6  H    0.084487   0.000000
     7  H    0.084398   0.000000
     8  H    0.084487   0.000000
     9  H    0.084398   0.000000
    10  H    0.084487   0.000000
    11  H    0.084398   0.000000
    12  H    0.084487   0.000000
 Sum of Mulliken charges =  -0.00000   0.00000
 Mulliken charges and spin densities with hydrogens summed into heavy atoms:
               1          2
     1  C   -0.000000   0.000000
     2  C   -0.000000   0.000000
     3  C   -0.000000   0.000000
     4  C   -0.000000   0.000000
 Electronic spatial extent (au):  <R**2>=            268.7419
 Charge=             -0.0000 electrons
 Dipole moment (field-independent basis, Debye):
    X=              0.0000    Y=              0.0000    Z=             -0.0000  Tot=              0.0000
 Quadrupole moment (field-independent basis, Debye-Ang):
   XX=            -27.4999   YY=            -27.4999   ZZ=            -25.9802
   XY=              0.0000   XZ=             -0.0000   YZ=             -0.0000
 Traceless Quadrupole moment (field-independent basis, Debye-Ang):
   XX=             -0.5066   YY=             -0.5066   ZZ=              1.0132
   XY=              0.0000   XZ=             -0.0000   YZ=             -0.0000
 Octapole moment (field-independent basis, Debye-Ang**2):
  XXX=              0.0000  YYY=             -0.0000  ZZZ=              0.0000  XYY=              0.0000
  XXY=              0.0000  XXZ=              0.7272  XZZ=              0.0000  YZZ=             -0.0000
  YYZ=             -0.7272  XYZ=             -0.0000
 Hexadecapole moment (field-independent basis, Debye-Ang**3):
 XXXX=           -158.4606 YYYY=           -158.4606 ZZZZ=            -57.3210 XXXY=              0.0000
 XXXZ=              0.0000 YYYX=              0.0000 YYYZ=              0.0000 ZZZX=              0.0000
 ZZZY=              0.0000 XXYY=            -54.7157 XXZZ=            -34.7919 YYZZ=            -34.7919
 XXYZ=             -0.0000 YYXZ=              0.0000 ZZXY=              0.0000
 N-N= 1.270290966005D+02 E-N=-6.170621062961D+02  KE= 1.560155034901D+02
 Symmetry A1   KE= 7.497727012058D+01
 Symmetry A2   KE= 2.377263251989D+00
 Symmetry B1   KE= 3.933048505876D+01
 Symmetry B2   KE= 3.933048505876D+01
 Symmetry A1   SP= 0.000000000000D+00
 Symmetry A2   SP= 0.000000000000D+00
 Symmetry B1   SP= 0.000000000000D+00
 Symmetry B2   SP= 0.000000000000D+00
                          Isotropic Fermi Contact Couplings
        Atom                 a.u.       MegaHertz       Gauss      10(-4) cm-1
     1  C(13)              0.00000       0.00000       0.00000       0.00000
     2  C(13)              0.00000       0.00000       0.00000       0.00000
     3  C(13)              0.00000       0.00000       0.00000       0.00000
     4  C(13)              0.00000       0.00000       0.00000       0.00000
     5  H(1)               0.00000       0.00000       0.00000       0.00000
     6  H(1)               0.00000       0.00000       0.00000       0.00000
     7  H(1)               0.00000       0.00000       0.00000       0.00000
     8  H(1)               0.00000       0.00000       0.00000       0.00000
     9  H(1)               0.00000       0.00000       0.00000       0.00000
    10  H(1)               0.00000       0.00000       0.00000       0.00000
    11  H(1)               0.00000       0.00000       0.00000       0.00000
    12  H(1)               0.00000       0.00000       0.00000       0.00000
 --------------------------------------------------------
       Center         ----  Spin Dipole Couplings  ----
                      3XX-RR        3YY-RR        3ZZ-RR
 --------------------------------------------------------
     1   Atom        0.000000      0.000000      0.000000
     2   Atom        0.000000      0.000000      0.000000
     3   Atom        0.000000      0.000000      0.000000
     4   Atom        0.000000      0.000000      0.000000
     5   Atom        0.000000      0.000000      0.000000
     6   Atom        0.000000      0.000000      0.000000
     7   Atom        0.000000      0.000000      0.000000
     8   Atom        0.000000      0.000000      0.000000
     9   Atom        0.000000      0.000000      0.000000
    10   Atom        0.000000      0.000000      0.000000
    11   Atom        0.000000      0.000000      0.000000
    12   Atom        0.000000      0.000000      0.000000
 --------------------------------------------------------
                        XY            XZ            YZ
 --------------------------------------------------------
     1   Atom        0.000000      0.000000      0.000000
     2   Atom        0.000000      0.000000      0.000000
     3   Atom        0.000000      0.000000      0.000000
     4   Atom        0.000000      0.000000      0.000000
     5   Atom        0.000000      0.000000      0.000000
     6   Atom        0.000000      0.000000      0.000000
     7   Atom        0.000000      0.000000      0.000000
     8   Atom        0.000000      0.000000      0.000000
     9   Atom        0.000000      0.000000      0.000000
    10   Atom        0.000000      0.000000      0.000000
    11   Atom        0.000000      0.000000      0.000000
    12   Atom        0.000000      0.000000      0.000000
 --------------------------------------------------------


 ---------------------------------------------------------------------------------
              Anisotropic Spin Dipole Couplings in Principal Axis System
 ---------------------------------------------------------------------------------

       Atom             a.u.   MegaHertz   Gauss  10(-4) cm-1        Axes

              Baa     0.0000     0.000     0.000     0.000  1.0000  0.0000  0.0000
     1 C(13)  Bbb     0.0000     0.000     0.000     0.000 -0.0000  1.0000  0.0000
              Bcc     0.0000     0.000     0.000     0.000  0.0000  0.0000  1.0000
 
              Baa     0.0000     0.000     0.000     0.000  1.0000  0.0000  0.0000
     2 C(13)  Bbb     0.0000     0.000     0.000     0.000 -0.0000  1.0000  0.0000
              Bcc     0.0000     0.000     0.000     0.000  0.0000  0.0000  1.0000
 
              Baa     0.0000     0.000     0.000     0.000  1.0000  0.0000  0.0000
     3 C(13)  Bbb     0.0000     0.000     0.000     0.000 -0.0000  1.0000  0.0000
              Bcc     0.0000     0.000     0.000     0.000  0.0000  0.0000  1.0000
 
              Baa     0.0000     0.000     0.000     0.000  1.0000  0.0000  0.0000
     4 C(13)  Bbb     0.0000     0.000     0.000     0.000 -0.0000  1.0000  0.0000
              Bcc     0.0000     0.000     0.000     0.000  0.0000  0.0000  1.0000
 
              Baa     0.0000     0.000     0.000     0.000  1.0000  0.0000  0.0000
     5 H(1)   Bbb     0.0000     0.000     0.000     0.000 -0.0000  1.0000  0.0000
              Bcc     0.0000     0.000     0.000     0.000  0.0000  0.0000  1.0000
 
              Baa     0.0000     0.000     0.000     0.000  1.0000  0.0000  0.0000
     6 H(1)   Bbb     0.0000     0.000     0.000     0.000 -0.0000  1.0000  0.0000
              Bcc     0.0000     0.000     0.000     0.000  0.0000  0.0000  1.0000
 
              Baa     0.0000     0.000     0.000     0.000  1.0000  0.0000  0.0000
     7 H(1)   Bbb     0.0000     0.000     0.000     0.000 -0.0000  1.0000  0.0000
              Bcc     0.0000     0.000     0.000     0.000  0.0000  0.0000  1.0000
 
              Baa     0.0000     0.000     0.000     0.000  1.0000  0.0000  0.0000
     8 H(1)   Bbb     0.0000     0.000     0.000     0.000 -0.0000  1.0000  0.0000
              Bcc     0.0000     0.000     0.000     0.000  0.0000  0.0000  1.0000
 
              Baa     0.0000     0.000     0.000     0.000  1.0000  0.0000  0.0000
     9 H(1)   Bbb     0.0000     0.000     0.000     0.000 -0.0000  1.0000  0.0000
              Bcc     0.0000     0.000     0.000     0.000  0.0000  0.0000  1.0000
 
              Baa     0.0000     0.000     0.000     0.000  1.0000  0.0000  0.0000
    10 H(1)   Bbb     0.0000     0.000     0.000     0.000 -0.0000  1.0000  0.0000
              Bcc     0.0000     0.000     0.000     0.000  0.0000  0.0000  1.0000
 
              Baa     0.0000     0.000     0.000     0.000  1.0000  0.0000  0.0000
    11 H(1)   Bbb     0.0000     0.000     0.000     0.000 -0.0000  1.0000  0.0000
              Bcc     0.0000     0.000     0.000     0.000  0.0000  0.0000  1.0000
 
              Baa     0.0000     0.000     0.000     0.000  1.0000  0.0000  0.0000
    12 H(1)   Bbb     0.0000     0.000     0.000     0.000 -0.0000  1.0000  0.0000
              Bcc     0.0000     0.000     0.000     0.000  0.0000  0.0000  1.0000
 

 ---------------------------------------------------------------------------------

 1\1\GINC-GAMBA\SP\ROHF\Gen\C4H8\IRIKURA\29-Sep-2023\0\\# rohf/gen geom
 =check guess=check\\cyclobutane, ROHF/cc-pVTZ-F12\\0,1\C,0,0.,1.082812
 ,0.122477\C,0,0.,-1.082812,0.122477\C,0,-1.082812,0.,-0.122477\C,0,1.0
 82812,0.,-0.122477\H,0,0.,1.424137,1.157991\H,0,0.,1.955821,-0.528877\
 H,0,0.,-1.424137,1.157991\H,0,0.,-1.955821,-0.528877\H,0,-1.424137,0.,
 -1.157991\H,0,-1.955821,0.,0.528877\H,0,1.424137,0.,-1.157991\H,0,1.95
 5821,0.,0.528877\\Version=ES64L-G16RevB.01\State=1-A1\HF=-156.1591447\
 RMSD=2.545e-09\Dipole=0.,0.,0.\Quadrupole=-0.3766308,-0.3766308,0.7532
 616,0.,0.,0.\PG=D02D [2SGD(C2H4)]\\@


 The hours that make us happy make us wise.
                         -- John Masefield
 Job cpu time:       0 days  0 hours  1 minutes 52.1 seconds.
 Elapsed time:       0 days  0 hours  0 minutes 28.1 seconds.
 File lengths (MBytes):  RWF=     93 Int=      0 D2E=      0 Chk=     12 Scr=      1
 Normal termination of Gaussian 16 at Fri Sep 29 04:08:09 2023.
