 Entering Gaussian System, Link 0=g16
 AtFile(1): pcseg2.gbs
            -H     0
            S   4   1.00
                  0.754732D+02           0.427821D-02
                  0.113575D+02           0.328672D-01
                  0.260081D+01           0.159578D+00
                  0.735503D+00           0.500000D+00
            S   1   1.00
                  0.231761D+00           1.0000000
            S   1   1.00
                  0.741675D-01           1.0000000
            P   1   1.00
                  0.160000D+01           1.0000000
            P   1   1.00
                  0.450000D+00           1.0000000
            D   1   1.00
                  0.125000D+01           1.0000000
            ****
            -C     0
            S   7   1.00
                  0.731999D+04           0.695369D-03
                  0.109818D+04           0.537138D-02
                  0.250014D+03           0.274734D-01
                  0.707586D+02           0.105078D+00
                  0.228595D+02           0.291262D+00
                  0.803936D+01           0.500000D+00
                  0.289309D+01           0.362224D+00
            S   2   1.00
                  0.521640D+01          -0.957844D-01
                  0.556124D+00           0.500000D+00
            S   1   1.00
                  0.228813D+00           1.0000000
            S   1   1.00
                  0.936338D-01           1.0000000
            P   4   1.00
                  0.339855D+02           0.818395D-02
                  0.772957D+01           0.586921D-01
                  0.224954D+01           0.222514D+00
                  0.767681D+00           0.500000D+00
            P   1   1.00
                  0.263283D+00           1.0000000
            P   1   1.00
                  0.848744D-01           1.0000000
            D   1   1.00
                  0.140000D+01           1.0000000
            D   1   1.00
                  0.450000D+00           1.0000000
            F   1   1.00
                  0.950000D+00           1.0000000
            ****
            -O     0
            S   7   1.00
                  0.135887D+05           0.665492D-03
                  0.203847D+04           0.514222D-02
                  0.464041D+03           0.263472D-01
                  0.131339D+03           0.101500D+00
                  0.425340D+02           0.285877D+00
                  0.150429D+02           0.500000D+00
                  0.546616D+01           0.368211D+00
            S   2   1.00
                  0.100915D+02          -0.100084D+00
                  0.110429D+01           0.500000D+00
            S   1   1.00
                  0.448082D+00           1.0000000
            S   1   1.00
                  0.175325D+00           1.0000000
            P   4   1.00
                  0.608220D+02           0.908253D-02
                  0.140332D+02           0.645878D-01
                  0.418244D+01           0.241502D+00
                  0.142490D+01           0.500000D+00
            P   1   1.00
                  0.478741D+00           1.0000000
            P   1   1.00
                  0.146257D+00           1.0000000
            D   1   1.00
                  0.220000D+01           1.0000000
            D   1   1.00
                  0.650000D+00           1.0000000
            F   1   1.00
                  0.110000D+01           1.0000000
            ****
            -N     0
            S   7   1.00
                  0.101643D+05           0.682757D-03
                  0.152481D+04           0.527488D-02
                  0.347119D+03           0.270037D-01
                  0.982389D+02           0.103673D+00
                  0.317799D+02           0.289575D+00
                  0.112240D+02           0.500000D+00
                  0.406611D+01           0.364621D+00
            S   2   1.00
                  0.747898D+01          -0.975681D-01
                  0.805040D+00           0.500000D+00
            S   1   1.00
                  0.324626D+00           1.0000000
            S   1   1.00
                  0.128132D+00           1.0000000
            P   4   1.00
                  0.482704D+02           0.829547D-02
                  0.110815D+02           0.596223D-01
                  0.326643D+01           0.227889D+00
                  0.111680D+01           0.500000D+00
            P   1   1.00
                  0.382049D+00           1.0000000
            P   1   1.00
                  0.121222D+00           1.0000000
            D   1   1.00
                  0.180000D+01           1.0000000
            D   1   1.00
                  0.550000D+00           1.0000000
            F   1   1.00
                  0.102000D+01           1.0000000
            ****
            -F     0
            S   7   1.00
                  0.174507D+05           0.655972D-03
                  0.261768D+04           0.506944D-02
                  0.595857D+03           0.259899D-01
                  0.168651D+03           0.100353D+00
                  0.546654D+02           0.284095D+00
                  0.193717D+02           0.500000D+00
                  0.706202D+01           0.370721D+00
            S   2   1.00
                  0.131197D+02          -0.101997D+00
                  0.145046D+01           0.500000D+00
            S   1   1.00
                  0.588255D+00           1.0000000
            S   1   1.00
                  0.227960D+00           1.0000000
            P   4   1.00
                  0.779407D+02           0.931135D-02
                  0.180425D+02           0.663964D-01
                  0.542342D+01           0.246386D+00
                  0.184876D+01           0.500000D+00
            P   1   1.00
                  0.617455D+00           1.0000000
            P   1   1.00
                  0.185496D+00           1.0000000
            D   1   1.00
                  0.280000D+01           1.0000000
            D   1   1.00
                  0.800000D+00           1.0000000
            F   1   1.00
                  0.120000D+01           1.0000000
            ****
            -Cl     0
            S   8   1.00
                  0.154272D+06           0.222473D-03
                  0.231232D+05           0.172590D-02
                  0.526257D+04           0.899286D-02
                  0.148995D+04           0.367724D-01
                  0.485417D+03           0.121446D+00
                  0.174634D+03           0.304148D+00
                  0.672393D+02           0.500000D+00
                  0.265780D+02           0.360252D+00
            S   3   1.00
                  0.131826D+03          -0.531330D-01
                  0.400703D+02          -0.233346D+00
                  0.789448D+01           0.500000D+00
            S   2   1.00
                  0.427711D+01           0.500000D+00
                  0.196233D+01           0.370517D+00
            S   1   1.00
                  0.520793D+00           1.0000000
            S   1   1.00
                  0.181633D+00           1.0000000
            P   7   1.00
                  0.124440D+04           0.988206D-03
                  0.295109D+03           0.829674D-02
                  0.947224D+02           0.430906D-01
                  0.352588D+02           0.148443D+00
                  0.144211D+02           0.344744D+00
                  0.610371D+01           0.500000D+00
                  0.258886D+01           0.348278D+00
            P   2   1.00
                  0.109447D+02          -0.196768D-01
                  0.104413D+01           0.500000D+00
            P   1   1.00
                  0.376184D+00           1.0000000
            P   1   1.00
                  0.120613D+00           1.0000000
            D   1   1.00
                  0.231000D+01           1.0000000
            D   1   1.00
                  0.520000D+00           1.0000000
            F   1   1.00
                  0.720000D+00           1.0000000
            ****
            -S     0
            S   8   1.00
                  0.134700D+06           0.226231D-03
                  0.201904D+05           0.175488D-02
                  0.459528D+04           0.914190D-02
                  0.130109D+04           0.373551D-01
                  0.423902D+03           0.123121D+00
                  0.152485D+03           0.306801D+00
                  0.586925D+02           0.500000D+00
                  0.231461D+02           0.354358D+00
            S   3   1.00
                  0.116327D+03          -0.491772D-01
                  0.352841D+02          -0.215962D+00
                  0.677831D+01           0.500000D+00
            S   2   1.00
                  0.360404D+01           0.500000D+00
                  0.164871D+01           0.366278D+00
            S   1   1.00
                  0.421821D+00           1.0000000
            S   1   1.00
                  0.147554D+00           1.0000000
            P   7   1.00
                  0.104863D+04           0.105273D-02
                  0.248717D+03           0.879338D-02
                  0.797887D+02           0.453358D-01
                  0.296023D+02           0.154476D+00
                  0.120627D+02           0.352366D+00
                  0.507628D+01           0.500000D+00
                  0.213375D+01           0.346429D+00
            P   2   1.00
                  0.928958D+01          -0.185932D-01
                  0.837819D+00           0.500000D+00
            P   1   1.00
                  0.301495D+00           1.0000000
            P   1   1.00
                  0.974740D-01           1.0000000
            D   1   1.00
                  0.210000D+01           1.0000000
            D   1   1.00
                  0.480000D+00           1.0000000
            F   1   1.00
                  0.660000D+00           1.0000000
            ****
            -Br     0
            S    10   1.00
                  0.233625D+07           0.532336D-04
                  0.349961D+06           0.413715D-03
                  0.796444D+05           0.217123D-02
                  0.225555D+05           0.910109D-02
                  0.735546D+04           0.323789D-01
                  0.265352D+04           0.988755D-01
                  0.103517D+04           0.248138D+00
                  0.422205D+03           0.474328D+00
                  0.180035D+03           0.500000D+00
                  0.793308D+02           0.187769D+00
            S    4   1.00
                  0.620834D+03          -0.226511D-01
                  0.190829D+03          -0.109497D+00
                  0.312505D+02           0.500000D+00
                  0.135270D+02           0.492812D+00
            S    2   1.00
                  0.216097D+02          -0.165418D+00
                  0.372566D+01           0.500000D+00
            S    1   1.00
                  0.169770D+01           1.0000000
            S    1   1.00
                  0.489332D+00           1.0000000
            S    1   1.00
                  0.175712D+00           1.0000000
            P    8   1.00
                  0.960829D+04           0.478974D-03
                  0.227618D+04           0.417853D-02
                  0.736723D+03           0.229315D-01
                  0.281579D+03           0.892653D-01
                  0.118395D+03           0.255288D+00
                  0.527481D+02           0.479074D+00
                  0.245098D+02           0.500000D+00
                  0.112009D+02           0.200944D+00
            P    4   1.00
                  0.587849D+02          -0.189674D-01
                  0.918962D+01           0.264104D+00
                  0.413895D+01           0.500000D+00
                  0.184225D+01           0.319316D+00
            P    1   1.00
                  0.713862D+00           1.0000000
            P    1   1.00
                  0.274232D+00           1.0000000
            P    1   1.00
                  0.944411D-01           1.0000000
            D    7   1.00
                  0.398470D+03           0.204066D-02
                  0.118967D+03           0.175171D-01
                  0.450197D+02           0.829708D-01
                  0.190320D+02           0.236284D+00
                  0.855686D+01           0.428468D+00
                  0.382950D+01           0.500000D+00
                  0.166291D+01           0.349360D+00
            D    1   1.00
                  0.672953D+00           1.0000000
            D    1   1.00
                  0.252000D+00           1.0000000
            F    1   1.00
                  0.530000D+00           1.0000000
            ****
            -Si     0
            S    8   1.00
                  0.996133D+05           0.235546D-03
                  0.149311D+05           0.182707D-02
                  0.339820D+04           0.951425D-02
                  0.962140D+03           0.388172D-01
                  0.313430D+03           0.127328D+00
                  0.112683D+03           0.313522D+00
                  0.433372D+02           0.500000D+00
                  0.170029D+02           0.340347D+00
            S    3   1.00
                  0.884208D+02          -0.404451D-01
                  0.266756D+02          -0.178059D+00
                  0.479640D+01           0.500000D+00
            S    2   1.00
                  0.239385D+01           0.500000D+00
                  0.108333D+01           0.338016D+00
            S    1   1.00
                  0.252420D+00           1.0000000
            S    1   1.00
                  0.891210D-01           1.0000000
            P    7   1.00
                  0.709901D+03           0.123028D-02
                  0.168426D+03           0.101366D-01
                  0.539946D+02           0.511840D-01
                  0.198646D+02           0.169967D+00
                  0.801369D+01           0.370717D+00
                  0.331870D+01           0.500000D+00
                  0.136112D+01           0.344128D+00
            P    2   1.00
                  0.622158D+01          -0.166609D-01
                  0.503049D+00           0.500000D+00
            P    1   1.00
                  0.179848D+00           1.0000000
            P    1   1.00
                  0.591912D-01           1.0000000
            D    1   1.00
                  0.168000D+01           1.0000000
            D    1   1.00
                  0.380000D+00           1.0000000
            F    1   1.00
                  0.540000D+00           1.0000000
            ****
            -P     0
            S    8   1.00
                  0.116416D+06           0.230715D-03
                  0.174500D+05           0.178960D-02
                  0.397149D+04           0.932116D-02
                  0.112447D+04           0.380591D-01
                  0.366347D+03           0.125148D+00
                  0.131757D+03           0.310022D+00
                  0.506988D+02           0.500000D+00
                  0.199436D+02           0.347528D+00
            S    3   1.00
                  0.101878D+03          -0.446755D-01
                  0.308249D+02          -0.196376D+00
                  0.573688D+01           0.500000D+00
            S    2   1.00
                  0.296868D+01           0.500000D+00
                  0.135315D+01           0.355098D+00
            S    1   1.00
                  0.332196D+00           1.0000000
            S    1   1.00
                  0.116229D+00           1.0000000
            P    7   1.00
                  0.873928D+03           0.112375D-02
                  0.207298D+03           0.933330D-02
                  0.664628D+02           0.477213D-01
                  0.245665D+02           0.160733D+00
                  0.996820D+01           0.359760D+00
                  0.416536D+01           0.500000D+00
                  0.173022D+01           0.346593D+00
            P    2   1.00
                  0.772530D+01          -0.175718D-01
                  0.657252D+00           0.500000D+00
            P    1   1.00
                  0.239903D+00           1.0000000
            P    1   1.00
                  0.800988D-01           1.0000000
            D    1   1.00
                  0.189000D+01           1.0000000
            D    1   1.00
                  0.430000D+00           1.0000000
            F    1   1.00
                  0.600000D+00           1.0000000
            ****
            
 Initial command:
 /usr/local/apps/g16_b01_avx/g16/l1.exe "/wrk/irikura/Gau-431807.inp" -scrdir="/wrk/irikura/"
 Entering Link 1 = /usr/local/apps/g16_b01_avx/g16/l1.exe PID=    431809.
  
 Copyright (c) 1988-2017, Gaussian, Inc.  All Rights Reserved.
  
 This is part of the Gaussian(R) 16 program.  It is based on
 the Gaussian(R) 09 system (copyright 2009, Gaussian, Inc.),
 the Gaussian(R) 03 system (copyright 2003, Gaussian, Inc.),
 the Gaussian(R) 98 system (copyright 1998, Gaussian, Inc.),
 the Gaussian(R) 94 system (copyright 1995, Gaussian, Inc.),
 the Gaussian 92(TM) system (copyright 1992, Gaussian, Inc.),
 the Gaussian 90(TM) system (copyright 1990, Gaussian, Inc.),
 the Gaussian 88(TM) system (copyright 1988, Gaussian, Inc.),
 the Gaussian 86(TM) system (copyright 1986, Carnegie Mellon
 University), and the Gaussian 82(TM) system (copyright 1983,
 Carnegie Mellon University). Gaussian is a federally registered
 trademark of Gaussian, Inc.
  
 This software contains proprietary and confidential information,
 including trade secrets, belonging to Gaussian, Inc.
  
 This software is provided under written license and may be
 used, copied, transmitted, or stored only in accord with that
 written license.
  
 The following legend is applicable only to US Government
 contracts under FAR:
  
                    RESTRICTED RIGHTS LEGEND
  
 Use, reproduction and disclosure by the US Government is
 subject to restrictions as set forth in subparagraphs (a)
 and (c) of the Commercial Computer Software - Restricted
 Rights clause in FAR 52.227-19.
  
 Gaussian, Inc.
 340 Quinnipiac St., Bldg. 40, Wallingford CT 06492
  
  
 ---------------------------------------------------------------
 Warning -- This program may not be used in any manner that
 competes with the business of Gaussian, Inc. or will provide
 assistance to any competitor of Gaussian, Inc.  The licensee
 of this program is prohibited from giving any competitor of
 Gaussian, Inc. access to this program.  By using this program,
 the user acknowledges that Gaussian, Inc. is engaged in the
 business of creating and licensing software in the field of
 computational chemistry and represents and warrants to the
 licensee that it is not a competitor of Gaussian, Inc. and that
 it will not use this program in any manner prohibited above.
 ---------------------------------------------------------------
  

 Cite this work as:
 Gaussian 16, Revision B.01,
 M. J. Frisch, G. W. Trucks, H. B. Schlegel, G. E. Scuseria, 
 M. A. Robb, J. R. Cheeseman, G. Scalmani, V. Barone, 
 G. A. Petersson, H. Nakatsuji, X. Li, M. Caricato, A. V. Marenich, 
 J. Bloino, B. G. Janesko, R. Gomperts, B. Mennucci, H. P. Hratchian, 
 J. V. Ortiz, A. F. Izmaylov, J. L. Sonnenberg, D. Williams-Young, 
 F. Ding, F. Lipparini, F. Egidi, J. Goings, B. Peng, A. Petrone, 
 T. Henderson, D. Ranasinghe, V. G. Zakrzewski, J. Gao, N. Rega, 
 G. Zheng, W. Liang, M. Hada, M. Ehara, K. Toyota, R. Fukuda, 
 J. Hasegawa, M. Ishida, T. Nakajima, Y. Honda, O. Kitao, H. Nakai, 
 T. Vreven, K. Throssell, J. A. Montgomery, Jr., J. E. Peralta, 
 F. Ogliaro, M. J. Bearpark, J. J. Heyd, E. N. Brothers, K. N. Kudin, 
 V. N. Staroverov, T. A. Keith, R. Kobayashi, J. Normand, 
 K. Raghavachari, A. P. Rendell, J. C. Burant, S. S. Iyengar, 
 J. Tomasi, M. Cossi, J. M. Millam, M. Klene, C. Adamo, R. Cammi, 
 J. W. Ochterski, R. L. Martin, K. Morokuma, O. Farkas, 
 J. B. Foresman, and D. J. Fox, Gaussian, Inc., Wallingford CT, 2016.
 
 ******************************************
 Gaussian 16:  ES64L-G16RevB.01 20-Dec-2017
                30-Sep-2023 
 ******************************************
 %chk=cyc5me.chk
 %mem=1000mw
 %nprocs=4
 Will use up to    4 processors via shared memory.
 ---------------------------------------
 # b3lyp/gen opt freq CPHF(Grid=OneStep)
 ---------------------------------------
 1/18=20,19=15,26=3,38=1/1,3;
 2/9=110,12=2,17=6,18=5,40=1/2;
 3/5=7,11=2,25=1,30=1,71=1,74=-5/1,2,3;
 4//1;
 5/5=2,38=5/2;
 6/7=2,8=2,9=2,10=2,28=1/1;
 7//1,2,3,16;
 1/18=20,19=15,26=3/3(2);
 2/9=110/2;
 99//99;
 2/9=110/2;
 3/5=7,6=1,11=2,25=1,30=1,71=1,74=-5,82=7/1,2,3;
 4/5=5,16=3,69=1/1;
 5/5=2,38=5/2;
 7//1,2,3,16;
 1/18=20,19=15,26=3/3(-5);
 2/9=110/2;
 6/7=2,8=2,9=2,10=2,19=2,28=1/1;
 99/9=1/99;
 ---------------------------------
 methylcyclopentane, B3LYP/pcseg-2
 ---------------------------------
 Symbolic Z-matrix:
 Charge =  0 Multiplicity = 1
 C                     0.21393   2.21671   0. 
 C                     0.45073   0.71122   0. 
 C                    -0.15843  -0.036     1.19591 
 C                    -0.15843  -0.036    -1.19591 
 C                    -0.15843  -1.52028  -0.77829 
 C                    -0.15843  -1.52028   0.77829 
 H                     0.65197   2.68977  -0.88081 
 H                     0.65197   2.68977   0.88081 
 H                    -0.85565   2.44039   0. 
 H                     1.53191   0.52746   0. 
 H                     0.38076   0.1422    2.12733 
 H                     0.38076   0.1422   -2.12733 
 H                    -1.1837    0.31556   1.3466 
 H                    -1.1837    0.31556  -1.3466 
 H                     0.73367  -2.02136  -1.15612 
 H                     0.73367  -2.02136   1.15612 
 H                    -1.01368  -2.05617  -1.18937 
 H                    -1.01368  -2.05617   1.18937 
 

 GradGradGradGradGradGradGradGradGradGradGradGradGradGradGradGradGradGrad
 Berny optimization.
 Initialization pass.
                           ----------------------------
                           !    Initial Parameters    !
                           ! (Angstroms and Degrees)  !
 --------------------------                            --------------------------
 ! Name  Definition              Value          Derivative Info.                !
 --------------------------------------------------------------------------------
 ! R1    R(1,2)                  1.524          estimate D2E/DX2                !
 ! R2    R(1,7)                  1.0916         estimate D2E/DX2                !
 ! R3    R(1,8)                  1.0916         estimate D2E/DX2                !
 ! R4    R(1,9)                  1.0927         estimate D2E/DX2                !
 ! R5    R(2,3)                  1.5361         estimate D2E/DX2                !
 ! R6    R(2,4)                  1.5361         estimate D2E/DX2                !
 ! R7    R(2,10)                 1.0967         estimate D2E/DX2                !
 ! R8    R(3,6)                  1.5419         estimate D2E/DX2                !
 ! R9    R(3,11)                 1.0909         estimate D2E/DX2                !
 ! R10   R(3,13)                 1.0943         estimate D2E/DX2                !
 ! R11   R(4,5)                  1.5419         estimate D2E/DX2                !
 ! R12   R(4,12)                 1.0909         estimate D2E/DX2                !
 ! R13   R(4,14)                 1.0943         estimate D2E/DX2                !
 ! R14   R(5,6)                  1.5566         estimate D2E/DX2                !
 ! R15   R(5,15)                 1.0907         estimate D2E/DX2                !
 ! R16   R(5,17)                 1.0898         estimate D2E/DX2                !
 ! R17   R(6,16)                 1.0907         estimate D2E/DX2                !
 ! R18   R(6,18)                 1.0898         estimate D2E/DX2                !
 ! A1    A(2,1,7)              111.4544         estimate D2E/DX2                !
 ! A2    A(2,1,8)              111.4544         estimate D2E/DX2                !
 ! A3    A(2,1,9)              110.7512         estimate D2E/DX2                !
 ! A4    A(7,1,8)              107.5944         estimate D2E/DX2                !
 ! A5    A(7,1,9)              107.7034         estimate D2E/DX2                !
 ! A6    A(8,1,9)              107.7034         estimate D2E/DX2                !
 ! A7    A(1,2,3)              114.7659         estimate D2E/DX2                !
 ! A8    A(1,2,4)              114.7659         estimate D2E/DX2                !
 ! A9    A(1,2,10)             108.5855         estimate D2E/DX2                !
 ! A10   A(3,2,4)              102.2531         estimate D2E/DX2                !
 ! A11   A(3,2,10)             108.0257         estimate D2E/DX2                !
 ! A12   A(4,2,10)             108.0257         estimate D2E/DX2                !
 ! A13   A(2,3,6)              104.9154         estimate D2E/DX2                !
 ! A14   A(2,3,11)             112.9085         estimate D2E/DX2                !
 ! A15   A(2,3,13)             108.8129         estimate D2E/DX2                !
 ! A16   A(6,3,11)             112.8615         estimate D2E/DX2                !
 ! A17   A(6,3,13)             110.2766         estimate D2E/DX2                !
 ! A18   A(11,3,13)            107.0399         estimate D2E/DX2                !
 ! A19   A(2,4,5)              104.9154         estimate D2E/DX2                !
 ! A20   A(2,4,12)             112.9085         estimate D2E/DX2                !
 ! A21   A(2,4,14)             108.8129         estimate D2E/DX2                !
 ! A22   A(5,4,12)             112.8615         estimate D2E/DX2                !
 ! A23   A(5,4,14)             110.2766         estimate D2E/DX2                !
 ! A24   A(12,4,14)            107.0399         estimate D2E/DX2                !
 ! A25   A(4,5,6)              105.7149         estimate D2E/DX2                !
 ! A26   A(4,5,15)             110.3896         estimate D2E/DX2                !
 ! A27   A(4,5,17)             111.7887         estimate D2E/DX2                !
 ! A28   A(6,5,15)             110.2677         estimate D2E/DX2                !
 ! A29   A(6,5,17)             112.1614         estimate D2E/DX2                !
 ! A30   A(15,5,17)            106.5773         estimate D2E/DX2                !
 ! A31   A(3,6,5)              105.7149         estimate D2E/DX2                !
 ! A32   A(3,6,16)             110.3896         estimate D2E/DX2                !
 ! A33   A(3,6,18)             111.7887         estimate D2E/DX2                !
 ! A34   A(5,6,16)             110.2677         estimate D2E/DX2                !
 ! A35   A(5,6,18)             112.1614         estimate D2E/DX2                !
 ! A36   A(16,6,18)            106.5773         estimate D2E/DX2                !
 ! D1    D(7,1,2,3)           -178.9122         estimate D2E/DX2                !
 ! D2    D(7,1,2,4)            -60.8624         estimate D2E/DX2                !
 ! D3    D(7,1,2,10)            60.1127         estimate D2E/DX2                !
 ! D4    D(8,1,2,3)             60.8624         estimate D2E/DX2                !
 ! D5    D(8,1,2,4)            178.9122         estimate D2E/DX2                !
 ! D6    D(8,1,2,10)           -60.1127         estimate D2E/DX2                !
 ! D7    D(9,1,2,3)            -59.0249         estimate D2E/DX2                !
 ! D8    D(9,1,2,4)             59.0249         estimate D2E/DX2                !
 ! D9    D(9,1,2,10)           180.0            estimate D2E/DX2                !
 ! D10   D(1,2,3,6)            163.9201         estimate D2E/DX2                !
 ! D11   D(1,2,3,11)           -72.7785         estimate D2E/DX2                !
 ! D12   D(1,2,3,13)            45.9103         estimate D2E/DX2                !
 ! D13   D(4,2,3,6)             39.01           estimate D2E/DX2                !
 ! D14   D(4,2,3,11)           162.3113         estimate D2E/DX2                !
 ! D15   D(4,2,3,13)           -78.9999         estimate D2E/DX2                !
 ! D16   D(10,2,3,6)           -74.7981         estimate D2E/DX2                !
 ! D17   D(10,2,3,11)           48.5032         estimate D2E/DX2                !
 ! D18   D(10,2,3,13)          167.1921         estimate D2E/DX2                !
 ! D19   D(1,2,4,5)           -163.9201         estimate D2E/DX2                !
 ! D20   D(1,2,4,12)            72.7785         estimate D2E/DX2                !
 ! D21   D(1,2,4,14)           -45.9103         estimate D2E/DX2                !
 ! D22   D(3,2,4,5)            -39.01           estimate D2E/DX2                !
 ! D23   D(3,2,4,12)          -162.3113         estimate D2E/DX2                !
 ! D24   D(3,2,4,14)            78.9999         estimate D2E/DX2                !
 ! D25   D(10,2,4,5)            74.7981         estimate D2E/DX2                !
 ! D26   D(10,2,4,12)          -48.5032         estimate D2E/DX2                !
 ! D27   D(10,2,4,14)         -167.1921         estimate D2E/DX2                !
 ! D28   D(2,3,6,5)            -24.2292         estimate D2E/DX2                !
 ! D29   D(2,3,6,16)            95.0124         estimate D2E/DX2                !
 ! D30   D(2,3,6,18)          -146.5384         estimate D2E/DX2                !
 ! D31   D(11,3,6,5)          -147.5607         estimate D2E/DX2                !
 ! D32   D(11,3,6,16)          -28.319          estimate D2E/DX2                !
 ! D33   D(11,3,6,18)           90.1301         estimate D2E/DX2                !
 ! D34   D(13,3,6,5)            92.7829         estimate D2E/DX2                !
 ! D35   D(13,3,6,16)         -147.9754         estimate D2E/DX2                !
 ! D36   D(13,3,6,18)          -29.5263         estimate D2E/DX2                !
 ! D37   D(2,4,5,6)             24.2292         estimate D2E/DX2                !
 ! D38   D(2,4,5,15)           -95.0124         estimate D2E/DX2                !
 ! D39   D(2,4,5,17)           146.5384         estimate D2E/DX2                !
 ! D40   D(12,4,5,6)           147.5607         estimate D2E/DX2                !
 ! D41   D(12,4,5,15)           28.319          estimate D2E/DX2                !
 ! D42   D(12,4,5,17)          -90.1301         estimate D2E/DX2                !
 ! D43   D(14,4,5,6)           -92.7829         estimate D2E/DX2                !
 ! D44   D(14,4,5,15)          147.9754         estimate D2E/DX2                !
 ! D45   D(14,4,5,17)           29.5263         estimate D2E/DX2                !
 ! D46   D(4,5,6,3)              0.0            estimate D2E/DX2                !
 ! D47   D(4,5,6,16)          -119.3221         estimate D2E/DX2                !
 ! D48   D(4,5,6,18)           122.0703         estimate D2E/DX2                !
 ! D49   D(15,5,6,3)           119.3221         estimate D2E/DX2                !
 ! D50   D(15,5,6,16)            0.0            estimate D2E/DX2                !
 ! D51   D(15,5,6,18)         -118.6076         estimate D2E/DX2                !
 ! D52   D(17,5,6,3)          -122.0703         estimate D2E/DX2                !
 ! D53   D(17,5,6,16)          118.6076         estimate D2E/DX2                !
 ! D54   D(17,5,6,18)            0.0            estimate D2E/DX2                !
 --------------------------------------------------------------------------------
 Trust Radius=3.00D-01 FncErr=1.00D-07 GrdErr=1.00D-06 EigMax=2.50D+02 EigMin=1.00D-04
 Number of steps in this run=    108 maximum allowed number of steps=    108.
 GradGradGradGradGradGradGradGradGradGradGradGradGradGradGradGradGradGrad

                          Input orientation:                          
 ---------------------------------------------------------------------
 Center     Atomic      Atomic             Coordinates (Angstroms)
 Number     Number       Type             X           Y           Z
 ---------------------------------------------------------------------
      1          6           0        0.213925    2.216708    0.000000
      2          6           0        0.450734    0.711224    0.000000
      3          6           0       -0.158426   -0.036002    1.195913
      4          6           0       -0.158426   -0.036002   -1.195913
      5          6           0       -0.158426   -1.520284   -0.778285
      6          6           0       -0.158426   -1.520284    0.778285
      7          1           0        0.651967    2.689767   -0.880809
      8          1           0        0.651967    2.689767    0.880809
      9          1           0       -0.855653    2.440388    0.000000
     10          1           0        1.531908    0.527459    0.000000
     11          1           0        0.380763    0.142197    2.127331
     12          1           0        0.380763    0.142197   -2.127331
     13          1           0       -1.183704    0.315558    1.346604
     14          1           0       -1.183704    0.315558   -1.346604
     15          1           0        0.733669   -2.021357   -1.156118
     16          1           0        0.733669   -2.021357    1.156118
     17          1           0       -1.013684   -2.056169   -1.189371
     18          1           0       -1.013684   -2.056169    1.189371
 ---------------------------------------------------------------------
                    Distance matrix (angstroms):
                    1          2          3          4          5
     1  C    0.000000
     2  C    1.523995   0.000000
     3  C    2.577510   1.536109   0.000000
     4  C    2.577510   1.536109   2.391826   0.000000
     5  C    3.835294   2.440580   2.469929   1.541916   0.000000
     6  C    3.835294   2.440580   1.541916   2.469929   1.556570
     7  H    1.091554   2.175075   3.521268   2.861091   4.288564
     8  H    1.091554   2.175075   2.861091   3.521268   4.597158
     9  H    1.092717   2.167177   2.837048   2.837048   4.096190
    10  H    2.142578   1.096680   2.145909   2.145909   2.766985
    11  H    2.976066   2.203231   1.090880   3.371414   3.390748
    12  H    2.976066   2.203231   3.371414   1.090880   2.207825
    13  H    2.716814   2.154363   1.094302   2.763907   2.989425
    14  H    2.716814   2.154363   2.763907   1.094302   2.178187
    15  H    4.423566   2.980547   3.204609   2.176936   1.090718
    16  H    4.423566   2.980547   2.176936   3.204609   2.188338
    17  H    4.602076   3.349267   3.240698   2.193760   1.089785
    18  H    4.602076   3.349267   2.193760   3.240698   2.211404
                    6          7          8          9         10
     6  C    0.000000
     7  H    4.597158   0.000000
     8  H    4.288564   1.761618   0.000000
     9  H    4.096190   1.763784   1.763784   0.000000
    10  H    2.766985   2.495135   2.495135   3.059370   0.000000
    11  H    2.207825   3.951275   2.849119   3.366889   2.449306
    12  H    3.390748   2.849119   3.951275   3.366889   2.449306
    13  H    2.178187   3.737369   3.037025   2.536900   3.038551
    14  H    2.989425   3.037025   3.737369   2.536900   3.038551
    15  H    2.188338   4.719869   5.133268   4.875420   2.910371
    16  H    1.090718   5.133268   4.719869   4.875420   2.910371
    17  H    2.211404   5.039198   5.439113   4.653880   3.817038
    18  H    1.089785   5.439113   5.039198   4.653880   3.817038
                   11         12         13         14         15
    11  H    0.000000
    12  H    4.254662   0.000000
    13  H    1.757028   3.813900   0.000000
    14  H    3.813900   1.757028   2.693208   0.000000
    15  H    3.947980   2.397658   3.924425   3.028824   0.000000
    16  H    2.397658   3.947980   3.028824   3.924425   2.312236
    17  H    4.216374   2.767140   3.476372   2.383006   1.748016
    18  H    2.767140   4.216374   2.383006   3.476372   2.925025
                   16         17         18
    16  H    0.000000
    17  H    2.925025   0.000000
    18  H    1.748016   2.378742   0.000000
 Stoichiometry    C6H12
 Framework group  CS[SG(C2H2),X(C4H10)]
 Deg. of freedom    26
 Full point group                 CS      NOp   2
 Largest Abelian subgroup         CS      NOp   2
 Largest concise Abelian subgroup CS      NOp   2
                         Standard orientation:                         
 ---------------------------------------------------------------------
 Center     Atomic      Atomic             Coordinates (Angstroms)
 Number     Number       Type             X           Y           Z
 ---------------------------------------------------------------------
      1          6           0        0.213925    2.216708   -0.000000
      2          6           0        0.450734    0.711224   -0.000000
      3          6           0       -0.158426   -0.036002    1.195913
      4          6           0       -0.158426   -0.036002   -1.195913
      5          6           0       -0.158426   -1.520284   -0.778285
      6          6           0       -0.158426   -1.520284    0.778285
      7          1           0        0.651967    2.689767   -0.880809
      8          1           0        0.651967    2.689767    0.880809
      9          1           0       -0.855653    2.440388   -0.000000
     10          1           0        1.531908    0.527459   -0.000000
     11          1           0        0.380763    0.142197    2.127331
     12          1           0        0.380763    0.142197   -2.127331
     13          1           0       -1.183704    0.315558    1.346604
     14          1           0       -1.183704    0.315558   -1.346604
     15          1           0        0.733669   -2.021357   -1.156118
     16          1           0        0.733669   -2.021357    1.156118
     17          1           0       -1.013684   -2.056169   -1.189371
     18          1           0       -1.013684   -2.056169    1.189371
 ---------------------------------------------------------------------
 Rotational constants (GHZ):           6.2477245           2.9244626           2.2028726
 General basis read from cards:  (5D, 7F)
 There are   215 symmetry adapted cartesian basis functions of A'  symmetry.
 There are   175 symmetry adapted cartesian basis functions of A"  symmetry.
 There are   190 symmetry adapted basis functions of A'  symmetry.
 There are   158 symmetry adapted basis functions of A"  symmetry.
   348 basis functions,   522 primitive gaussians,   390 cartesian basis functions
    24 alpha electrons       24 beta electrons
       nuclear repulsion energy       252.8250622572 Hartrees.
 NAtoms=   18 NActive=   18 NUniq=   11 SFac= 2.68D+00 NAtFMM=   60 NAOKFM=F Big=F
 Integral buffers will be    131072 words long.
 Raffenetti 2 integral format.
 Two-electron integral symmetry is turned on.
 One-electron integrals computed using PRISM.
 NBasis=   348 RedAO= T EigKep=  1.16D-04  NBF=   190   158
 NBsUse=   348 1.00D-06 EigRej= -1.00D+00 NBFU=   190   158
 ExpMin= 7.42D-02 ExpMax= 7.32D+03 ExpMxC= 2.50D+02 IAcc=3 IRadAn=         5 AccDes= 0.00D+00
 Harris functional with IExCor=  402 and IRadAn=       5 diagonalized for initial guess.
 HarFok:  IExCor=  402 AccDes= 0.00D+00 IRadAn=         5 IDoV= 1 UseB2=F ITyADJ=14
 ICtDFT=  3500011 ScaDFX=  1.000000  1.000000  1.000000  1.000000
 FoFCou: FMM=F IPFlag=           0 FMFlag=      100000 FMFlg1=           0
         NFxFlg=           0 DoJE=T BraDBF=F KetDBF=T FulRan=T
         wScrn=  0.000000 ICntrl=       500 IOpCl=  0 I1Cent=   200000004 NGrid=           0
         NMat0=    1 NMatS0=      1 NMatT0=    0 NMatD0=    1 NMtDS0=    0 NMtDT0=    0
 Petite list used in FoFCou.
 Initial guess orbital symmetries:
       Occupied  (A') (A") (A') (A') (A") (A') (A') (A') (A") (A')
                 (A") (A') (A') (A') (A') (A") (A") (A') (A') (A")
                 (A') (A") (A") (A')
       Virtual   (A') (A') (A') (A") (A") (A') (A') (A') (A') (A")
                 (A") (A") (A') (A') (A') (A") (A") (A") (A') (A')
                 (A") (A') (A') (A") (A') (A') (A") (A') (A") (A')
                 (A") (A') (A") (A') (A') (A") (A') (A') (A") (A")
                 (A') (A') (A") (A') (A") (A') (A") (A') (A') (A")
                 (A') (A") (A') (A') (A") (A") (A') (A') (A") (A')
                 (A") (A") (A') (A') (A") (A") (A') (A') (A") (A')
                 (A') (A") (A') (A') (A") (A") (A") (A') (A") (A')
                 (A") (A') (A') (A") (A') (A') (A") (A') (A") (A')
                 (A") (A') (A") (A') (A') (A") (A') (A") (A') (A')
                 (A") (A') (A') (A") (A') (A") (A') (A') (A") (A")
                 (A') (A') (A') (A") (A') (A") (A") (A") (A') (A")
                 (A') (A") (A') (A') (A") (A') (A") (A') (A") (A")
                 (A') (A") (A') (A") (A') (A') (A') (A") (A') (A')
                 (A') (A") (A") (A') (A') (A") (A") (A') (A') (A")
                 (A") (A') (A') (A') (A") (A') (A") (A') (A") (A')
                 (A') (A") (A') (A") (A') (A") (A") (A') (A') (A')
                 (A") (A') (A") (A") (A') (A") (A') (A') (A") (A")
                 (A') (A") (A') (A") (A") (A') (A") (A') (A") (A')
                 (A") (A") (A') (A') (A") (A') (A") (A') (A') (A")
                 (A") (A') (A") (A') (A') (A") (A') (A") (A') (A')
                 (A") (A") (A') (A") (A') (A') (A") (A') (A") (A')
                 (A') (A") (A") (A') (A') (A') (A") (A") (A') (A')
                 (A") (A') (A') (A") (A") (A') (A") (A') (A") (A")
                 (A') (A') (A") (A') (A") (A") (A') (A') (A") (A")
                 (A') (A') (A") (A') (A") (A") (A') (A') (A") (A')
                 (A") (A') (A') (A") (A') (A") (A") (A') (A') (A')
                 (A") (A') (A") (A') (A") (A") (A') (A") (A') (A")
                 (A') (A") (A') (A") (A') (A') (A") (A') (A') (A")
                 (A') (A") (A") (A') (A") (A') (A') (A') (A") (A")
                 (A") (A') (A') (A") (A") (A') (A') (A") (A') (A")
                 (A') (A") (A') (A") (A') (A") (A') (A") (A") (A')
                 (A') (A") (A') (A")
 The electronic state of the initial guess is 1-A'.
 Requested convergence on RMS density matrix=1.00D-08 within 128 cycles.
 Requested convergence on MAX density matrix=1.00D-06.
 Requested convergence on             energy=1.00D-06.
 No special actions if energy rises.
 Integral accuracy reduced to 1.0D-05 until final iterations.
 Initial convergence to 1.0D-05 achieved.  Increase integral accuracy.
 SCF Done:  E(RB3LYP) =  -235.965207906     A.U. after   11 cycles
            NFock= 11  Conv=0.72D-08     -V/T= 2.0047

 **********************************************************************

            Population analysis using the SCF Density.

 **********************************************************************

 Orbital symmetries:
       Occupied  (A') (A') (A") (A") (A') (A') (A') (A') (A") (A')
                 (A") (A') (A') (A') (A') (A") (A") (A') (A") (A')
                 (A') (A') (A") (A")
       Virtual   (A') (A') (A') (A") (A") (A') (A') (A') (A") (A")
                 (A') (A') (A") (A') (A') (A") (A") (A') (A') (A")
                 (A') (A") (A") (A') (A') (A') (A") (A") (A') (A')
                 (A") (A') (A') (A') (A") (A") (A") (A') (A') (A')
                 (A") (A") (A') (A') (A") (A') (A") (A') (A') (A")
                 (A') (A") (A') (A") (A') (A") (A') (A') (A") (A')
                 (A") (A") (A') (A') (A") (A") (A') (A') (A") (A')
                 (A") (A') (A') (A") (A') (A") (A') (A") (A") (A')
                 (A") (A') (A") (A') (A') (A') (A") (A') (A") (A")
                 (A') (A') (A") (A') (A') (A") (A') (A") (A') (A')
                 (A") (A') (A') (A') (A") (A") (A') (A') (A") (A")
                 (A') (A') (A') (A") (A') (A") (A") (A") (A') (A")
                 (A') (A") (A') (A') (A") (A') (A') (A") (A") (A")
                 (A') (A") (A') (A') (A") (A') (A') (A") (A') (A')
                 (A') (A") (A") (A') (A') (A") (A") (A') (A") (A')
                 (A") (A') (A') (A') (A") (A') (A") (A') (A") (A')
                 (A') (A") (A') (A") (A') (A") (A") (A') (A') (A')
                 (A") (A') (A") (A") (A') (A") (A') (A') (A") (A")
                 (A') (A") (A') (A") (A") (A') (A") (A') (A") (A')
                 (A") (A") (A') (A') (A") (A') (A") (A') (A") (A')
                 (A") (A') (A") (A') (A') (A") (A') (A") (A') (A')
                 (A") (A") (A') (A") (A') (A') (A') (A") (A') (A")
                 (A') (A") (A") (A') (A') (A') (A") (A") (A') (A')
                 (A') (A") (A') (A") (A") (A') (A") (A') (A") (A')
                 (A") (A') (A") (A') (A") (A') (A") (A") (A') (A")
                 (A') (A") (A') (A') (A") (A") (A') (A') (A") (A')
                 (A") (A') (A") (A') (A') (A") (A') (A") (A') (A')
                 (A') (A") (A") (A') (A") (A") (A") (A') (A') (A")
                 (A') (A") (A') (A") (A') (A') (A") (A') (A') (A")
                 (A') (A") (A") (A') (A") (A') (A') (A") (A") (A')
                 (A") (A') (A') (A") (A") (A') (A') (A") (A') (A")
                 (A') (A") (A') (A") (A') (A") (A') (A') (A") (A")
                 (A') (A") (A') (A")
 The electronic state is 1-A'.
 Alpha  occ. eigenvalues --  -10.16709 -10.16016 -10.15996 -10.15853 -10.15853
 Alpha  occ. eigenvalues --  -10.15591  -0.83571  -0.74144  -0.70540  -0.65217
 Alpha  occ. eigenvalues --   -0.56284  -0.55634  -0.48259  -0.45929  -0.43007
 Alpha  occ. eigenvalues --   -0.41924  -0.40062  -0.37369  -0.33731  -0.33484
 Alpha  occ. eigenvalues --   -0.33106  -0.31631  -0.31618  -0.31273
 Alpha virt. eigenvalues --    0.01221   0.03107   0.03194   0.04505   0.07101
 Alpha virt. eigenvalues --    0.07363   0.07458   0.07959   0.08456   0.10620
 Alpha virt. eigenvalues --    0.11611   0.12947   0.13304   0.14388   0.15557
 Alpha virt. eigenvalues --    0.15963   0.16444   0.18670   0.21592   0.21927
 Alpha virt. eigenvalues --    0.21933   0.23155   0.25440   0.25578   0.27348
 Alpha virt. eigenvalues --    0.29873   0.30730   0.31734   0.32784   0.33791
 Alpha virt. eigenvalues --    0.33972   0.34285   0.34752   0.35050   0.35898
 Alpha virt. eigenvalues --    0.36598   0.36983   0.37091   0.38251   0.38942
 Alpha virt. eigenvalues --    0.39581   0.40116   0.40707   0.42494   0.43478
 Alpha virt. eigenvalues --    0.43791   0.44966   0.49904   0.52428   0.54764
 Alpha virt. eigenvalues --    0.59361   0.62806   0.64635   0.66947   0.67558
 Alpha virt. eigenvalues --    0.73506   0.80043   0.81959   0.82661   0.87742
 Alpha virt. eigenvalues --    0.88786   0.89173   0.90029   0.90352   0.90524
 Alpha virt. eigenvalues --    0.94595   0.96164   0.97406   0.99032   1.00244
 Alpha virt. eigenvalues --    1.01340   1.01587   1.01989   1.03449   1.05260
 Alpha virt. eigenvalues --    1.05379   1.09243   1.09341   1.09697   1.11290
 Alpha virt. eigenvalues --    1.12145   1.12394   1.15147   1.15260   1.18465
 Alpha virt. eigenvalues --    1.18846   1.22363   1.24160   1.24705   1.26309
 Alpha virt. eigenvalues --    1.26497   1.27066   1.29482   1.30745   1.31874
 Alpha virt. eigenvalues --    1.32518   1.35263   1.37284   1.40013   1.42642
 Alpha virt. eigenvalues --    1.44465   1.48206   1.49927   1.52308   1.53307
 Alpha virt. eigenvalues --    1.56058   1.57204   1.58806   1.61977   1.62887
 Alpha virt. eigenvalues --    1.65627   1.69427   1.72233   1.72714   1.76276
 Alpha virt. eigenvalues --    1.77096   1.80442   1.81231   1.86016   1.86296
 Alpha virt. eigenvalues --    1.87289   1.88578   1.91237   1.93474   1.94415
 Alpha virt. eigenvalues --    1.94695   1.96671   1.98221   2.01667   2.04050
 Alpha virt. eigenvalues --    2.06866   2.07468   2.10406   2.14146   2.15709
 Alpha virt. eigenvalues --    2.16842   2.25341   2.29211   2.29466   2.39465
 Alpha virt. eigenvalues --    2.41616   2.42945   2.47820   2.48351   2.49827
 Alpha virt. eigenvalues --    2.57401   2.60067   2.64919   2.66954   2.67169
 Alpha virt. eigenvalues --    2.93834   2.99934   3.03880   3.03997   3.04831
 Alpha virt. eigenvalues --    3.07215   3.13903   3.15192   3.15775   3.16585
 Alpha virt. eigenvalues --    3.19538   3.21568   3.23322   3.25986   3.29300
 Alpha virt. eigenvalues --    3.29952   3.31276   3.32908   3.40526   3.42598
 Alpha virt. eigenvalues --    3.44091   3.46969   3.47893   3.51456   3.52210
 Alpha virt. eigenvalues --    3.56494   3.57544   3.60463   3.61712   3.64318
 Alpha virt. eigenvalues --    3.68015   3.69892   3.71997   3.73164   3.74541
 Alpha virt. eigenvalues --    3.76178   3.77835   3.84732   3.84942   3.86946
 Alpha virt. eigenvalues --    3.87921   3.88669   3.90606   3.91837   3.93043
 Alpha virt. eigenvalues --    3.96103   3.97301   3.98992   4.01428   4.01449
 Alpha virt. eigenvalues --    4.05633   4.06120   4.07861   4.09170   4.15847
 Alpha virt. eigenvalues --    4.17640   4.18788   4.19812   4.20824   4.26814
 Alpha virt. eigenvalues --    4.27232   4.28226   4.29710   4.31124   4.33932
 Alpha virt. eigenvalues --    4.37986   4.39964   4.40134   4.41084   4.41276
 Alpha virt. eigenvalues --    4.42530   4.43129   4.46039   4.47958   4.49983
 Alpha virt. eigenvalues --    4.50895   4.51751   4.53111   4.53894   4.58942
 Alpha virt. eigenvalues --    4.59484   4.59727   4.61717   4.62770   4.63319
 Alpha virt. eigenvalues --    4.65291   4.67044   4.67842   4.68353   4.70509
 Alpha virt. eigenvalues --    4.71100   4.71419   4.75168   4.75419   4.76377
 Alpha virt. eigenvalues --    4.77610   4.77681   4.79967   4.80131   4.82892
 Alpha virt. eigenvalues --    4.85269   4.87877   4.90687   4.91352   4.93884
 Alpha virt. eigenvalues --    4.95459   4.95995   5.01447   5.04523   5.06756
 Alpha virt. eigenvalues --    5.07895   5.10114   5.15097   5.16050   5.17609
 Alpha virt. eigenvalues --    5.18744   5.21634   5.22080   5.24597   5.25841
 Alpha virt. eigenvalues --    5.28629   5.28798   5.31864   5.33856   5.36668
 Alpha virt. eigenvalues --    5.42285   5.43642   5.43967   5.44834   5.47909
 Alpha virt. eigenvalues --    5.48056   5.48490   5.50422   5.53797   5.54268
 Alpha virt. eigenvalues --    5.58000   5.58929   5.62432   5.64335   5.66140
 Alpha virt. eigenvalues --    5.70304   5.72661   5.73134   5.74134   5.79417
 Alpha virt. eigenvalues --    5.80799   5.86582   5.87492   5.88666   5.88923
 Alpha virt. eigenvalues --    5.90866   5.91356   5.92591   5.96766   5.97256
 Alpha virt. eigenvalues --    5.97712   5.99651   5.99726   6.02687   6.03066
 Alpha virt. eigenvalues --    6.08380   6.11771   6.13744   6.14105   6.15811
 Alpha virt. eigenvalues --    6.17628   6.23131   6.25127   6.25947   6.26372
 Alpha virt. eigenvalues --    6.33676   6.56485   7.55090   9.97598
          Condensed to atoms (all electrons):
               1          2          3          4          5          6
     1  C    4.603447   0.298967  -0.051266  -0.051266   0.013068   0.013068
     2  C    0.298967   4.953367   0.337013   0.337013  -0.056993  -0.056993
     3  C   -0.051266   0.337013   4.837560  -0.080895  -0.050459   0.317566
     4  C   -0.051266   0.337013  -0.080895   4.837560   0.317566  -0.050459
     5  C    0.013068  -0.056993  -0.050459   0.317566   4.785274   0.326725
     6  C    0.013068  -0.056993   0.317566  -0.050459   0.326725   4.785274
     7  H    0.425168  -0.037030   0.012761  -0.007416  -0.000153  -0.000946
     8  H    0.425168  -0.037030  -0.007416   0.012761  -0.000946  -0.000153
     9  H    0.431398  -0.041456  -0.011381  -0.011381  -0.000088  -0.000088
    10  H   -0.029284   0.446823  -0.047994  -0.047994  -0.001998  -0.001998
    11  H   -0.000014  -0.035299   0.433101   0.010625   0.009293  -0.033860
    12  H   -0.000014  -0.035299   0.010625   0.433101  -0.033860   0.009293
    13  H   -0.006015  -0.046241   0.451252  -0.008184   0.004688  -0.053398
    14  H   -0.006015  -0.046241  -0.008184   0.451252  -0.053398   0.004688
    15  H   -0.000615  -0.002422   0.006357  -0.037308   0.438379  -0.039673
    16  H   -0.000615  -0.002422  -0.037308   0.006357  -0.039673   0.438379
    17  H   -0.000730   0.011837   0.004521  -0.038219   0.442738  -0.039224
    18  H   -0.000730   0.011837  -0.038219   0.004521  -0.039224   0.442738
               7          8          9         10         11         12
     1  C    0.425168   0.425168   0.431398  -0.029284  -0.000014  -0.000014
     2  C   -0.037030  -0.037030  -0.041456   0.446823  -0.035299  -0.035299
     3  C    0.012761  -0.007416  -0.011381  -0.047994   0.433101   0.010625
     4  C   -0.007416   0.012761  -0.011381  -0.047994   0.010625   0.433101
     5  C   -0.000153  -0.000946  -0.000088  -0.001998   0.009293  -0.033860
     6  C   -0.000946  -0.000153  -0.000088  -0.001998  -0.033860   0.009293
     7  H    0.640435  -0.026540  -0.027847  -0.006649  -0.000493   0.002840
     8  H   -0.026540   0.640435  -0.027847  -0.006649   0.002840  -0.000493
     9  H   -0.027847  -0.027847   0.650888   0.010900  -0.000401  -0.000401
    10  H   -0.006649  -0.006649   0.010900   0.661554  -0.007277  -0.007277
    11  H   -0.000493   0.002840  -0.000401  -0.007277   0.616009  -0.000410
    12  H    0.002840  -0.000493  -0.000401  -0.007277  -0.000410   0.616009
    13  H    0.000404  -0.001769   0.005600   0.009252  -0.019840  -0.000562
    14  H   -0.001769   0.000404   0.005600   0.009252  -0.000562  -0.019840
    15  H   -0.000022   0.000055  -0.000055   0.002088  -0.000593  -0.007147
    16  H    0.000055  -0.000022  -0.000055   0.002088  -0.007147  -0.000593
    17  H   -0.000044   0.000071  -0.000050  -0.000246  -0.000337   0.000834
    18  H    0.000071  -0.000044  -0.000050  -0.000246   0.000834  -0.000337
              13         14         15         16         17         18
     1  C   -0.006015  -0.006015  -0.000615  -0.000615  -0.000730  -0.000730
     2  C   -0.046241  -0.046241  -0.002422  -0.002422   0.011837   0.011837
     3  C    0.451252  -0.008184   0.006357  -0.037308   0.004521  -0.038219
     4  C   -0.008184   0.451252  -0.037308   0.006357  -0.038219   0.004521
     5  C    0.004688  -0.053398   0.438379  -0.039673   0.442738  -0.039224
     6  C   -0.053398   0.004688  -0.039673   0.438379  -0.039224   0.442738
     7  H    0.000404  -0.001769  -0.000022   0.000055  -0.000044   0.000071
     8  H   -0.001769   0.000404   0.000055  -0.000022   0.000071  -0.000044
     9  H    0.005600   0.005600  -0.000055  -0.000055  -0.000050  -0.000050
    10  H    0.009252   0.009252   0.002088   0.002088  -0.000246  -0.000246
    11  H   -0.019840  -0.000562  -0.000593  -0.007147  -0.000337   0.000834
    12  H   -0.000562  -0.019840  -0.007147  -0.000593   0.000834  -0.000337
    13  H    0.634085   0.003755  -0.000396   0.007593   0.000339  -0.009675
    14  H    0.003755   0.634085   0.007593  -0.000396  -0.009675   0.000339
    15  H   -0.000396   0.007593   0.628630  -0.011661  -0.021887   0.005101
    16  H    0.007593  -0.000396  -0.011661   0.628630   0.005101  -0.021887
    17  H    0.000339  -0.009675  -0.021887   0.005101   0.624170  -0.009770
    18  H   -0.009675   0.000339   0.005101  -0.021887  -0.009770   0.624170
 Mulliken charges:
               1
     1  C   -0.063721
     2  C    0.000568
     3  C   -0.077633
     4  C   -0.077633
     5  C   -0.060937
     6  C   -0.060937
     7  H    0.027177
     8  H    0.027177
     9  H    0.016711
    10  H    0.015655
    11  H    0.033529
    12  H    0.033529
    13  H    0.029112
    14  H    0.029112
    15  H    0.033577
    16  H    0.033577
    17  H    0.030569
    18  H    0.030569
 Sum of Mulliken charges =  -0.00000
 Mulliken charges with hydrogens summed into heavy atoms:
               1
     1  C    0.007345
     2  C    0.016223
     3  C   -0.014992
     4  C   -0.014992
     5  C    0.003208
     6  C    0.003208
 Electronic spatial extent (au):  <R**2>=            641.6907
 Charge=             -0.0000 electrons
 Dipole moment (field-independent basis, Debye):
    X=              0.0988    Y=             -0.0204    Z=              0.0000  Tot=              0.1008
 Quadrupole moment (field-independent basis, Debye-Ang):
   XX=            -39.6760   YY=            -41.5672   ZZ=            -40.9543
   XY=              0.0743   XZ=              0.0000   YZ=              0.0000
 Traceless Quadrupole moment (field-independent basis, Debye-Ang):
   XX=              1.0565   YY=             -0.8347   ZZ=             -0.2218
   XY=              0.0743   XZ=              0.0000   YZ=              0.0000
 Octapole moment (field-independent basis, Debye-Ang**2):
  XXX=             -0.5978  YYY=             -1.3524  ZZZ=             -0.0000  XYY=              0.2978
  XXY=             -0.9376  XXZ=             -0.0000  XZZ=              1.7125  YZZ=              0.7730
  YYZ=              0.0000  XYZ=              0.0000
 Hexadecapole moment (field-independent basis, Debye-Ang**3):
 XXXX=           -102.3874 YYYY=           -558.8956 ZZZZ=           -270.4929 XXXY=            -27.2033
 XXXZ=              0.0000 YYYX=            -25.2080 YYYZ=              0.0000 ZZZX=              0.0000
 ZZZY=              0.0000 XXYY=           -104.5841 XXZZ=            -60.6419 YYZZ=           -135.7744
 XXYZ=              0.0000 YYXZ=              0.0000 ZZXY=             -7.0148
 N-N= 2.528250622572D+02 E-N=-1.051769878905D+03  KE= 2.348685751669D+02
 Symmetry A'   KE= 1.539973389536D+02
 Symmetry A"   KE= 8.087123621329D+01
 Calling FoFJK, ICntrl=      2127 FMM=F ISym2X=1 I1Cent= 0 IOpClX= 0 NMat=1 NMatS=1 NMatT=0.
 ***** Axes restored to original set *****
 -------------------------------------------------------------------
 Center     Atomic                   Forces (Hartrees/Bohr)
 Number     Number              X              Y              Z
 -------------------------------------------------------------------
      1        6           0.000012730   -0.000093192    0.000000000
      2        6           0.000050741    0.000063022    0.000000000
      3        6          -0.000034356   -0.000058165   -0.000030971
      4        6          -0.000034356   -0.000058165    0.000030971
      5        6           0.000016150    0.000059587   -0.000032784
      6        6           0.000016150    0.000059587    0.000032784
      7        1           0.000003438    0.000012481   -0.000011884
      8        1           0.000003438    0.000012481    0.000011884
      9        1          -0.000027403    0.000017534    0.000000000
     10        1           0.000022147   -0.000010799    0.000000000
     11        1           0.000008697    0.000014761    0.000011048
     12        1           0.000008697    0.000014761   -0.000011048
     13        1          -0.000022217    0.000009126    0.000018191
     14        1          -0.000022217    0.000009126   -0.000018191
     15        1           0.000012165   -0.000016777   -0.000003159
     16        1           0.000012165   -0.000016777    0.000003159
     17        1          -0.000012985   -0.000009295   -0.000002210
     18        1          -0.000012985   -0.000009295    0.000002210
 -------------------------------------------------------------------
 Cartesian Forces:  Max     0.000093192 RMS     0.000028067

 GradGradGradGradGradGradGradGradGradGradGradGradGradGradGradGradGradGrad
 Berny optimization.
 FormGI is forming the generalized inverse of G from B-inverse, IUseBI=4.
 Internal  Forces:  Max     0.000048982 RMS     0.000011412
 Search for a local minimum.
 Step number   1 out of a maximum of  108
 All quantities printed in internal units (Hartrees-Bohrs-Radians)
 Mixed Optimization -- En-DIIS/RFO-DIIS
 Second derivative matrix not updated -- first step.
 ITU=  0
     Eigenvalues ---    0.00260   0.00449   0.00459   0.01952   0.02029
     Eigenvalues ---    0.03765   0.03921   0.04051   0.04102   0.04865
     Eigenvalues ---    0.05124   0.05471   0.05501   0.05559   0.05576
     Eigenvalues ---    0.05637   0.06242   0.07048   0.07069   0.07171
     Eigenvalues ---    0.07177   0.08858   0.09454   0.11300   0.13500
     Eigenvalues ---    0.16000   0.16000   0.16000   0.19369   0.20440
     Eigenvalues ---    0.25948   0.26582   0.27755   0.28060   0.28460
     Eigenvalues ---    0.29985   0.34052   0.34320   0.34320   0.34501
     Eigenvalues ---    0.34634   0.34634   0.34711   0.34711   0.34730
     Eigenvalues ---    0.34730   0.34838   0.34838
 RFO step:  Lambda=-8.71850168D-08 EMin= 2.60272078D-03
 Linear search not attempted -- first point.
 Iteration  1 RMS(Cart)=  0.00019702 RMS(Int)=  0.00000002
 Iteration  2 RMS(Cart)=  0.00000003 RMS(Int)=  0.00000001
 ClnCor:  largest displacement from symmetrization is 9.37D-09 for atom    16.
 Variable       Old X    -DE/DX   Delta X   Delta X   Delta X     New X
                                 (Linear)    (Quad)   (Total)
    R1        2.87993  -0.00005   0.00000  -0.00016  -0.00016   2.87977
    R2        2.06274   0.00002   0.00000   0.00005   0.00005   2.06279
    R3        2.06274   0.00002   0.00000   0.00005   0.00005   2.06279
    R4        2.06494   0.00003   0.00000   0.00009   0.00009   2.06502
    R5        2.90283   0.00002   0.00000   0.00006   0.00006   2.90288
    R6        2.90283   0.00002   0.00000   0.00006   0.00006   2.90288
    R7        2.07242   0.00002   0.00000   0.00007   0.00007   2.07249
    R8        2.91380  -0.00003   0.00000  -0.00012  -0.00012   2.91368
    R9        2.06146   0.00002   0.00000   0.00005   0.00005   2.06151
   R10        2.06793   0.00003   0.00000   0.00008   0.00008   2.06801
   R11        2.91380  -0.00003   0.00000  -0.00012  -0.00012   2.91368
   R12        2.06146   0.00002   0.00000   0.00005   0.00005   2.06151
   R13        2.06793   0.00003   0.00000   0.00008   0.00008   2.06801
   R14        2.94149   0.00003   0.00000   0.00012   0.00012   2.94161
   R15        2.06116   0.00002   0.00000   0.00005   0.00005   2.06121
   R16        2.05939   0.00002   0.00000   0.00004   0.00004   2.05944
   R17        2.06116   0.00002   0.00000   0.00005   0.00005   2.06121
   R18        2.05939   0.00002   0.00000   0.00004   0.00004   2.05944
    A1        1.94525   0.00000   0.00000   0.00003   0.00003   1.94527
    A2        1.94525   0.00000   0.00000   0.00003   0.00003   1.94527
    A3        1.93297   0.00001   0.00000   0.00009   0.00009   1.93306
    A4        1.87788  -0.00001   0.00000  -0.00004  -0.00004   1.87784
    A5        1.87978  -0.00001   0.00000  -0.00006  -0.00006   1.87972
    A6        1.87978  -0.00001   0.00000  -0.00006  -0.00006   1.87972
    A7        2.00304  -0.00001   0.00000  -0.00006  -0.00006   2.00299
    A8        2.00304  -0.00001   0.00000  -0.00006  -0.00006   2.00299
    A9        1.89517   0.00000   0.00000   0.00013   0.00013   1.89530
   A10        1.78465  -0.00000   0.00000  -0.00014  -0.00014   1.78451
   A11        1.88540   0.00000   0.00000   0.00006   0.00006   1.88547
   A12        1.88540   0.00000   0.00000   0.00006   0.00006   1.88547
   A13        1.83112  -0.00001   0.00000  -0.00010  -0.00010   1.83102
   A14        1.97062  -0.00001   0.00000  -0.00013  -0.00013   1.97050
   A15        1.89914   0.00001   0.00000   0.00015   0.00015   1.89930
   A16        1.96981   0.00001   0.00000   0.00004   0.00004   1.96985
   A17        1.92469   0.00001   0.00000   0.00011   0.00011   1.92480
   A18        1.86820  -0.00001   0.00000  -0.00006  -0.00006   1.86814
   A19        1.83112  -0.00001   0.00000  -0.00010  -0.00010   1.83102
   A20        1.97062  -0.00001   0.00000  -0.00013  -0.00013   1.97050
   A21        1.89914   0.00001   0.00000   0.00015   0.00015   1.89930
   A22        1.96981   0.00001   0.00000   0.00004   0.00004   1.96985
   A23        1.92469   0.00001   0.00000   0.00011   0.00011   1.92480
   A24        1.86820  -0.00001   0.00000  -0.00006  -0.00006   1.86814
   A25        1.84507   0.00000   0.00000  -0.00004  -0.00004   1.84503
   A26        1.92666   0.00001   0.00000   0.00011   0.00011   1.92678
   A27        1.95108  -0.00000   0.00000  -0.00000  -0.00000   1.95108
   A28        1.92454  -0.00000   0.00000   0.00000   0.00000   1.92454
   A29        1.95759  -0.00000   0.00000  -0.00006  -0.00006   1.95753
   A30        1.86013  -0.00000   0.00000  -0.00001  -0.00001   1.86011
   A31        1.84507   0.00000   0.00000  -0.00004  -0.00004   1.84503
   A32        1.92666   0.00001   0.00000   0.00011   0.00011   1.92678
   A33        1.95108  -0.00000   0.00000  -0.00000  -0.00000   1.95108
   A34        1.92454  -0.00000   0.00000   0.00000   0.00000   1.92454
   A35        1.95759  -0.00000   0.00000  -0.00006  -0.00006   1.95753
   A36        1.86013  -0.00000   0.00000  -0.00001  -0.00001   1.86011
    D1       -3.12261   0.00000   0.00000   0.00013   0.00013  -3.12247
    D2       -1.06225  -0.00000   0.00000  -0.00015  -0.00015  -1.06240
    D3        1.04916  -0.00000   0.00000  -0.00001  -0.00001   1.04916
    D4        1.06225   0.00000   0.00000   0.00015   0.00015   1.06240
    D5        3.12261  -0.00000   0.00000  -0.00013  -0.00013   3.12247
    D6       -1.04916   0.00000   0.00000   0.00001   0.00001  -1.04916
    D7       -1.03018   0.00000   0.00000   0.00014   0.00014  -1.03004
    D8        1.03018  -0.00000   0.00000  -0.00014  -0.00014   1.03004
    D9        3.14159  -0.00000   0.00000  -0.00000   0.00000   3.14159
   D10        2.86095   0.00000   0.00000   0.00027   0.00027   2.86121
   D11       -1.27023  -0.00000   0.00000   0.00018   0.00018  -1.27005
   D12        0.80129  -0.00001   0.00000   0.00012   0.00012   0.80141
   D13        0.68085   0.00001   0.00000   0.00047   0.00047   0.68133
   D14        2.83287   0.00001   0.00000   0.00038   0.00038   2.83325
   D15       -1.37881   0.00000   0.00000   0.00033   0.00033  -1.37848
   D16       -1.30547   0.00001   0.00000   0.00044   0.00044  -1.30503
   D17        0.84654   0.00000   0.00000   0.00035   0.00035   0.84689
   D18        2.91805  -0.00000   0.00000   0.00030   0.00030   2.91835
   D19       -2.86095  -0.00000   0.00000  -0.00027  -0.00027  -2.86121
   D20        1.27023   0.00000   0.00000  -0.00018  -0.00018   1.27005
   D21       -0.80129   0.00001   0.00000  -0.00012  -0.00012  -0.80141
   D22       -0.68085  -0.00001   0.00000  -0.00047  -0.00047  -0.68133
   D23       -2.83287  -0.00001   0.00000  -0.00038  -0.00038  -2.83325
   D24        1.37881  -0.00000   0.00000  -0.00033  -0.00033   1.37848
   D25        1.30547  -0.00001   0.00000  -0.00044  -0.00044   1.30503
   D26       -0.84654  -0.00000   0.00000  -0.00035  -0.00035  -0.84689
   D27       -2.91805   0.00000   0.00000  -0.00030  -0.00030  -2.91835
   D28       -0.42288  -0.00001   0.00000  -0.00030  -0.00030  -0.42318
   D29        1.65828  -0.00001   0.00000  -0.00026  -0.00026   1.65802
   D30       -2.55758  -0.00000   0.00000  -0.00020  -0.00020  -2.55778
   D31       -2.57542   0.00000   0.00000  -0.00010  -0.00010  -2.57552
   D32       -0.49426   0.00000   0.00000  -0.00006  -0.00006  -0.49432
   D33        1.57307   0.00001   0.00000   0.00000   0.00000   1.57307
   D34        1.61937   0.00000   0.00000  -0.00012  -0.00012   1.61924
   D35       -2.58266   0.00000   0.00000  -0.00008  -0.00008  -2.58274
   D36       -0.51533   0.00001   0.00000  -0.00002  -0.00002  -0.51535
   D37        0.42288   0.00001   0.00000   0.00030   0.00030   0.42318
   D38       -1.65828   0.00001   0.00000   0.00026   0.00026  -1.65802
   D39        2.55758   0.00000   0.00000   0.00020   0.00020   2.55778
   D40        2.57542  -0.00000   0.00000   0.00010   0.00010   2.57552
   D41        0.49426  -0.00000   0.00000   0.00006   0.00006   0.49432
   D42       -1.57307  -0.00001   0.00000  -0.00000  -0.00000  -1.57307
   D43       -1.61937  -0.00000   0.00000   0.00012   0.00012  -1.61924
   D44        2.58266  -0.00000   0.00000   0.00008   0.00008   2.58274
   D45        0.51533  -0.00001   0.00000   0.00002   0.00002   0.51535
   D46       -0.00000   0.00000   0.00000   0.00000   0.00000   0.00000
   D47       -2.08256  -0.00001   0.00000  -0.00012  -0.00012  -2.08268
   D48        2.13053  -0.00000   0.00000  -0.00006  -0.00006   2.13047
   D49        2.08256   0.00001   0.00000   0.00012   0.00012   2.08268
   D50        0.00000  -0.00000   0.00000   0.00000  -0.00000   0.00000
   D51       -2.07009   0.00001   0.00000   0.00005   0.00005  -2.07004
   D52       -2.13053   0.00000   0.00000   0.00006   0.00006  -2.13047
   D53        2.07009  -0.00001   0.00000  -0.00005  -0.00005   2.07004
   D54       -0.00000   0.00000   0.00000   0.00000  -0.00000  -0.00000
         Item               Value     Threshold  Converged?
 Maximum Force            0.000049     0.000450     YES
 RMS     Force            0.000011     0.000300     YES
 Maximum Displacement     0.000650     0.001800     YES
 RMS     Displacement     0.000197     0.001200     YES
 Predicted change in Energy=-4.358835D-08
 Optimization completed.
    -- Stationary point found.
                           ----------------------------
                           !   Optimized Parameters   !
                           ! (Angstroms and Degrees)  !
 --------------------------                            --------------------------
 ! Name  Definition              Value          Derivative Info.                !
 --------------------------------------------------------------------------------
 ! R1    R(1,2)                  1.524          -DE/DX =    0.0                 !
 ! R2    R(1,7)                  1.0916         -DE/DX =    0.0                 !
 ! R3    R(1,8)                  1.0916         -DE/DX =    0.0                 !
 ! R4    R(1,9)                  1.0927         -DE/DX =    0.0                 !
 ! R5    R(2,3)                  1.5361         -DE/DX =    0.0                 !
 ! R6    R(2,4)                  1.5361         -DE/DX =    0.0                 !
 ! R7    R(2,10)                 1.0967         -DE/DX =    0.0                 !
 ! R8    R(3,6)                  1.5419         -DE/DX =    0.0                 !
 ! R9    R(3,11)                 1.0909         -DE/DX =    0.0                 !
 ! R10   R(3,13)                 1.0943         -DE/DX =    0.0                 !
 ! R11   R(4,5)                  1.5419         -DE/DX =    0.0                 !
 ! R12   R(4,12)                 1.0909         -DE/DX =    0.0                 !
 ! R13   R(4,14)                 1.0943         -DE/DX =    0.0                 !
 ! R14   R(5,6)                  1.5566         -DE/DX =    0.0                 !
 ! R15   R(5,15)                 1.0907         -DE/DX =    0.0                 !
 ! R16   R(5,17)                 1.0898         -DE/DX =    0.0                 !
 ! R17   R(6,16)                 1.0907         -DE/DX =    0.0                 !
 ! R18   R(6,18)                 1.0898         -DE/DX =    0.0                 !
 ! A1    A(2,1,7)              111.4544         -DE/DX =    0.0                 !
 ! A2    A(2,1,8)              111.4544         -DE/DX =    0.0                 !
 ! A3    A(2,1,9)              110.7512         -DE/DX =    0.0                 !
 ! A4    A(7,1,8)              107.5944         -DE/DX =    0.0                 !
 ! A5    A(7,1,9)              107.7034         -DE/DX =    0.0                 !
 ! A6    A(8,1,9)              107.7034         -DE/DX =    0.0                 !
 ! A7    A(1,2,3)              114.7659         -DE/DX =    0.0                 !
 ! A8    A(1,2,4)              114.7659         -DE/DX =    0.0                 !
 ! A9    A(1,2,10)             108.5855         -DE/DX =    0.0                 !
 ! A10   A(3,2,4)              102.2531         -DE/DX =    0.0                 !
 ! A11   A(3,2,10)             108.0257         -DE/DX =    0.0                 !
 ! A12   A(4,2,10)             108.0257         -DE/DX =    0.0                 !
 ! A13   A(2,3,6)              104.9154         -DE/DX =    0.0                 !
 ! A14   A(2,3,11)             112.9085         -DE/DX =    0.0                 !
 ! A15   A(2,3,13)             108.8129         -DE/DX =    0.0                 !
 ! A16   A(6,3,11)             112.8615         -DE/DX =    0.0                 !
 ! A17   A(6,3,13)             110.2766         -DE/DX =    0.0                 !
 ! A18   A(11,3,13)            107.0399         -DE/DX =    0.0                 !
 ! A19   A(2,4,5)              104.9154         -DE/DX =    0.0                 !
 ! A20   A(2,4,12)             112.9085         -DE/DX =    0.0                 !
 ! A21   A(2,4,14)             108.8129         -DE/DX =    0.0                 !
 ! A22   A(5,4,12)             112.8615         -DE/DX =    0.0                 !
 ! A23   A(5,4,14)             110.2766         -DE/DX =    0.0                 !
 ! A24   A(12,4,14)            107.0399         -DE/DX =    0.0                 !
 ! A25   A(4,5,6)              105.7149         -DE/DX =    0.0                 !
 ! A26   A(4,5,15)             110.3896         -DE/DX =    0.0                 !
 ! A27   A(4,5,17)             111.7887         -DE/DX =    0.0                 !
 ! A28   A(6,5,15)             110.2677         -DE/DX =    0.0                 !
 ! A29   A(6,5,17)             112.1614         -DE/DX =    0.0                 !
 ! A30   A(15,5,17)            106.5773         -DE/DX =    0.0                 !
 ! A31   A(3,6,5)              105.7149         -DE/DX =    0.0                 !
 ! A32   A(3,6,16)             110.3896         -DE/DX =    0.0                 !
 ! A33   A(3,6,18)             111.7887         -DE/DX =    0.0                 !
 ! A34   A(5,6,16)             110.2677         -DE/DX =    0.0                 !
 ! A35   A(5,6,18)             112.1614         -DE/DX =    0.0                 !
 ! A36   A(16,6,18)            106.5773         -DE/DX =    0.0                 !
 ! D1    D(7,1,2,3)           -178.9122         -DE/DX =    0.0                 !
 ! D2    D(7,1,2,4)            -60.8624         -DE/DX =    0.0                 !
 ! D3    D(7,1,2,10)            60.1127         -DE/DX =    0.0                 !
 ! D4    D(8,1,2,3)             60.8624         -DE/DX =    0.0                 !
 ! D5    D(8,1,2,4)            178.9122         -DE/DX =    0.0                 !
 ! D6    D(8,1,2,10)           -60.1127         -DE/DX =    0.0                 !
 ! D7    D(9,1,2,3)            -59.0249         -DE/DX =    0.0                 !
 ! D8    D(9,1,2,4)             59.0249         -DE/DX =    0.0                 !
 ! D9    D(9,1,2,10)           180.0            -DE/DX =    0.0                 !
 ! D10   D(1,2,3,6)            163.9201         -DE/DX =    0.0                 !
 ! D11   D(1,2,3,11)           -72.7785         -DE/DX =    0.0                 !
 ! D12   D(1,2,3,13)            45.9103         -DE/DX =    0.0                 !
 ! D13   D(4,2,3,6)             39.01           -DE/DX =    0.0                 !
 ! D14   D(4,2,3,11)           162.3113         -DE/DX =    0.0                 !
 ! D15   D(4,2,3,13)           -78.9999         -DE/DX =    0.0                 !
 ! D16   D(10,2,3,6)           -74.7981         -DE/DX =    0.0                 !
 ! D17   D(10,2,3,11)           48.5032         -DE/DX =    0.0                 !
 ! D18   D(10,2,3,13)          167.1921         -DE/DX =    0.0                 !
 ! D19   D(1,2,4,5)           -163.9201         -DE/DX =    0.0                 !
 ! D20   D(1,2,4,12)            72.7785         -DE/DX =    0.0                 !
 ! D21   D(1,2,4,14)           -45.9103         -DE/DX =    0.0                 !
 ! D22   D(3,2,4,5)            -39.01           -DE/DX =    0.0                 !
 ! D23   D(3,2,4,12)          -162.3113         -DE/DX =    0.0                 !
 ! D24   D(3,2,4,14)            78.9999         -DE/DX =    0.0                 !
 ! D25   D(10,2,4,5)            74.7981         -DE/DX =    0.0                 !
 ! D26   D(10,2,4,12)          -48.5032         -DE/DX =    0.0                 !
 ! D27   D(10,2,4,14)         -167.1921         -DE/DX =    0.0                 !
 ! D28   D(2,3,6,5)            -24.2292         -DE/DX =    0.0                 !
 ! D29   D(2,3,6,16)            95.0124         -DE/DX =    0.0                 !
 ! D30   D(2,3,6,18)          -146.5384         -DE/DX =    0.0                 !
 ! D31   D(11,3,6,5)          -147.5607         -DE/DX =    0.0                 !
 ! D32   D(11,3,6,16)          -28.319          -DE/DX =    0.0                 !
 ! D33   D(11,3,6,18)           90.1301         -DE/DX =    0.0                 !
 ! D34   D(13,3,6,5)            92.7829         -DE/DX =    0.0                 !
 ! D35   D(13,3,6,16)         -147.9754         -DE/DX =    0.0                 !
 ! D36   D(13,3,6,18)          -29.5263         -DE/DX =    0.0                 !
 ! D37   D(2,4,5,6)             24.2292         -DE/DX =    0.0                 !
 ! D38   D(2,4,5,15)           -95.0124         -DE/DX =    0.0                 !
 ! D39   D(2,4,5,17)           146.5384         -DE/DX =    0.0                 !
 ! D40   D(12,4,5,6)           147.5607         -DE/DX =    0.0                 !
 ! D41   D(12,4,5,15)           28.319          -DE/DX =    0.0                 !
 ! D42   D(12,4,5,17)          -90.1301         -DE/DX =    0.0                 !
 ! D43   D(14,4,5,6)           -92.7829         -DE/DX =    0.0                 !
 ! D44   D(14,4,5,15)          147.9754         -DE/DX =    0.0                 !
 ! D45   D(14,4,5,17)           29.5263         -DE/DX =    0.0                 !
 ! D46   D(4,5,6,3)              0.0            -DE/DX =    0.0                 !
 ! D47   D(4,5,6,16)          -119.3221         -DE/DX =    0.0                 !
 ! D48   D(4,5,6,18)           122.0703         -DE/DX =    0.0                 !
 ! D49   D(15,5,6,3)           119.3221         -DE/DX =    0.0                 !
 ! D50   D(15,5,6,16)            0.0            -DE/DX =    0.0                 !
 ! D51   D(15,5,6,18)         -118.6076         -DE/DX =    0.0                 !
 ! D52   D(17,5,6,3)          -122.0703         -DE/DX =    0.0                 !
 ! D53   D(17,5,6,16)          118.6076         -DE/DX =    0.0                 !
 ! D54   D(17,5,6,18)            0.0            -DE/DX =    0.0                 !
 --------------------------------------------------------------------------------
 GradGradGradGradGradGradGradGradGradGradGradGradGradGradGradGradGradGrad

                          Input orientation:                          
 ---------------------------------------------------------------------
 Center     Atomic      Atomic             Coordinates (Angstroms)
 Number     Number       Type             X           Y           Z
 ---------------------------------------------------------------------
      1          6           0        0.213925    2.216708    0.000000
      2          6           0        0.450734    0.711224    0.000000
      3          6           0       -0.158426   -0.036002    1.195913
      4          6           0       -0.158426   -0.036002   -1.195913
      5          6           0       -0.158426   -1.520284   -0.778285
      6          6           0       -0.158426   -1.520284    0.778285
      7          1           0        0.651967    2.689767   -0.880809
      8          1           0        0.651967    2.689767    0.880809
      9          1           0       -0.855653    2.440388    0.000000
     10          1           0        1.531908    0.527459    0.000000
     11          1           0        0.380763    0.142197    2.127331
     12          1           0        0.380763    0.142197   -2.127331
     13          1           0       -1.183704    0.315558    1.346604
     14          1           0       -1.183704    0.315558   -1.346604
     15          1           0        0.733669   -2.021357   -1.156118
     16          1           0        0.733669   -2.021357    1.156118
     17          1           0       -1.013684   -2.056169   -1.189371
     18          1           0       -1.013684   -2.056169    1.189371
 ---------------------------------------------------------------------
                    Distance matrix (angstroms):
                    1          2          3          4          5
     1  C    0.000000
[...]
     5  C    0.004293  -0.004455   0.000225  -0.001015   0.004888  -0.019156
     6  C   -0.004455   0.004293   0.000225  -0.001015  -0.019156   0.004888
     7  H    0.592651  -0.030317  -0.036673  -0.008379  -0.000463   0.000854
     8  H   -0.030317   0.592651  -0.036673  -0.008379   0.000854  -0.000463
     9  H   -0.036673  -0.036673   0.595919   0.006030   0.001507   0.001507
    10  H   -0.008379  -0.008379   0.006030   0.537808  -0.004917  -0.004917
    11  H   -0.000463   0.000854   0.001507  -0.004917   0.585562  -0.000486
    12  H    0.000854  -0.000463   0.001507  -0.004917  -0.000486   0.585562
    13  H   -0.000565  -0.000089   0.003525   0.006398  -0.020602  -0.000653
    14  H   -0.000089  -0.000565   0.003525   0.006398  -0.000653  -0.020602
    15  H   -0.000040   0.000032  -0.000003   0.001021  -0.000783  -0.006095
    16  H    0.000032  -0.000040  -0.000003   0.001021  -0.006095  -0.000783
    17  H   -0.000039   0.000017  -0.000000  -0.000615  -0.000182  -0.002167
    18  H    0.000017  -0.000039  -0.000000  -0.000615  -0.002167  -0.000182
              13         14         15         16         17         18
     1  C    0.001008   0.001008  -0.000843  -0.000843  -0.000661  -0.000661
     2  C   -0.046023  -0.046023  -0.007154  -0.007154   0.025005   0.025005
     3  C    0.448425  -0.001658   0.016405  -0.051131  -0.003653  -0.041264
     4  C   -0.001658   0.448425  -0.051131   0.016405  -0.041264  -0.003653
     5  C    0.003200  -0.068421   0.438272  -0.058171   0.430347  -0.047305
     6  C   -0.068421   0.003200  -0.058171   0.438272  -0.047305   0.430347
     7  H   -0.000565  -0.000089  -0.000040   0.000032  -0.000039   0.000017
     8  H   -0.000089  -0.000565   0.000032  -0.000040   0.000017  -0.000039
     9  H    0.003525   0.003525  -0.000003  -0.000003  -0.000000  -0.000000
    10  H    0.006398   0.006398   0.001021   0.001021  -0.000615  -0.000615
    11  H   -0.020602  -0.000653  -0.000783  -0.006095  -0.000182  -0.002167
    12  H   -0.000653  -0.020602  -0.006095  -0.000783  -0.002167  -0.000182
    13  H    0.590402   0.000573  -0.000320   0.007716  -0.000016  -0.007184
    14  H    0.000573   0.590402   0.007716  -0.000320  -0.007184  -0.000016
    15  H   -0.000320   0.007716   0.590855  -0.006849  -0.014904   0.003618
    16  H    0.007716  -0.000320  -0.006849   0.590855   0.003618  -0.014904
    17  H   -0.000016  -0.007184  -0.014904   0.003618   0.584994  -0.002274
    18  H   -0.007184  -0.000016   0.003618  -0.014904  -0.002274   0.584994
          Atomic-Atomic Spin Densities.
               1          2          3          4          5          6
     1  C    0.000000   0.000000   0.000000   0.000000   0.000000   0.000000
     2  C    0.000000   0.000000   0.000000   0.000000   0.000000   0.000000
     3  C    0.000000   0.000000   0.000000   0.000000   0.000000   0.000000
     4  C    0.000000   0.000000   0.000000   0.000000   0.000000   0.000000
     5  C    0.000000   0.000000   0.000000   0.000000   0.000000   0.000000
     6  C    0.000000   0.000000   0.000000   0.000000   0.000000   0.000000
     7  H    0.000000   0.000000   0.000000   0.000000   0.000000   0.000000
     8  H    0.000000   0.000000   0.000000   0.000000   0.000000   0.000000
     9  H    0.000000   0.000000   0.000000   0.000000   0.000000   0.000000
    10  H    0.000000   0.000000   0.000000   0.000000   0.000000   0.000000
    11  H    0.000000   0.000000   0.000000   0.000000   0.000000   0.000000
    12  H    0.000000   0.000000   0.000000   0.000000   0.000000   0.000000
    13  H    0.000000   0.000000   0.000000   0.000000   0.000000   0.000000
    14  H    0.000000   0.000000   0.000000   0.000000   0.000000   0.000000
    15  H    0.000000   0.000000   0.000000   0.000000   0.000000   0.000000
    16  H    0.000000   0.000000   0.000000   0.000000   0.000000   0.000000
    17  H    0.000000   0.000000   0.000000   0.000000   0.000000   0.000000
    18  H    0.000000   0.000000   0.000000   0.000000   0.000000   0.000000
               7          8          9         10         11         12
     1  C    0.000000   0.000000   0.000000   0.000000   0.000000   0.000000
     2  C    0.000000   0.000000   0.000000   0.000000   0.000000   0.000000
     3  C    0.000000   0.000000   0.000000   0.000000   0.000000   0.000000
     4  C    0.000000   0.000000   0.000000   0.000000   0.000000   0.000000
     5  C    0.000000   0.000000   0.000000   0.000000   0.000000   0.000000
     6  C    0.000000   0.000000   0.000000   0.000000   0.000000   0.000000
     7  H    0.000000   0.000000   0.000000   0.000000   0.000000   0.000000
     8  H    0.000000   0.000000   0.000000   0.000000   0.000000   0.000000
     9  H    0.000000   0.000000   0.000000   0.000000   0.000000   0.000000
    10  H    0.000000   0.000000   0.000000   0.000000   0.000000   0.000000
    11  H    0.000000   0.000000   0.000000   0.000000   0.000000   0.000000
    12  H    0.000000   0.000000   0.000000   0.000000   0.000000   0.000000
    13  H    0.000000   0.000000   0.000000   0.000000   0.000000   0.000000
    14  H    0.000000   0.000000   0.000000   0.000000   0.000000   0.000000
    15  H    0.000000   0.000000   0.000000   0.000000   0.000000   0.000000
    16  H    0.000000   0.000000   0.000000   0.000000   0.000000   0.000000
    17  H    0.000000   0.000000   0.000000   0.000000   0.000000   0.000000
    18  H    0.000000   0.000000   0.000000   0.000000   0.000000   0.000000
              13         14         15         16         17         18
     1  C    0.000000   0.000000   0.000000   0.000000   0.000000   0.000000
     2  C    0.000000   0.000000   0.000000   0.000000   0.000000   0.000000
     3  C    0.000000   0.000000   0.000000   0.000000   0.000000   0.000000
     4  C    0.000000   0.000000   0.000000   0.000000   0.000000   0.000000
     5  C    0.000000   0.000000   0.000000   0.000000   0.000000   0.000000
     6  C    0.000000   0.000000   0.000000   0.000000   0.000000   0.000000
     7  H    0.000000   0.000000   0.000000   0.000000   0.000000   0.000000
     8  H    0.000000   0.000000   0.000000   0.000000   0.000000   0.000000
     9  H    0.000000   0.000000   0.000000   0.000000   0.000000   0.000000
    10  H    0.000000   0.000000   0.000000   0.000000   0.000000   0.000000
    11  H    0.000000   0.000000   0.000000   0.000000   0.000000   0.000000
    12  H    0.000000   0.000000   0.000000   0.000000   0.000000   0.000000
    13  H    0.000000   0.000000   0.000000   0.000000   0.000000   0.000000
    14  H    0.000000   0.000000   0.000000   0.000000   0.000000   0.000000
    15  H    0.000000   0.000000   0.000000   0.000000   0.000000   0.000000
    16  H    0.000000   0.000000   0.000000   0.000000   0.000000   0.000000
    17  H    0.000000   0.000000   0.000000   0.000000   0.000000   0.000000
    18  H    0.000000   0.000000   0.000000   0.000000   0.000000   0.000000
 Mulliken charges and spin densities:
               1          2
     1  C   -0.361796   0.000000
     2  C    0.067313   0.000000
     3  C   -0.155867   0.000000
     4  C   -0.155867   0.000000
     5  C   -0.189415   0.000000
     6  C   -0.189415   0.000000
     7  H    0.090917   0.000000
     8  H    0.090917   0.000000
     9  H    0.097558   0.000000
    10  H    0.087318   0.000000
    11  H    0.060227   0.000000
    12  H    0.060227   0.000000
    13  H    0.084285   0.000000
    14  H    0.084285   0.000000
    15  H    0.088374   0.000000
    16  H    0.088374   0.000000
    17  H    0.076282   0.000000
    18  H    0.076282   0.000000
 Sum of Mulliken charges =  -0.00000   0.00000
 Mulliken charges and spin densities with hydrogens summed into heavy atoms:
               1          2
     1  C   -0.082404   0.000000
     2  C    0.154631   0.000000
     3  C   -0.011355   0.000000
     4  C   -0.011355   0.000000
     5  C   -0.024759   0.000000
     6  C   -0.024759   0.000000
 Electronic spatial extent (au):  <R**2>=            641.3953
 Charge=             -0.0000 electrons
 Dipole moment (field-independent basis, Debye):
    X=              0.0836    Y=             -0.0304    Z=              0.0000  Tot=              0.0890
 Quadrupole moment (field-independent basis, Debye-Ang):
   XX=            -39.4995   YY=            -41.4702   ZZ=            -40.8306
   XY=              0.0401   XZ=              0.0000   YZ=              0.0000
 Traceless Quadrupole moment (field-independent basis, Debye-Ang):
   XX=              1.1006   YY=             -0.8701   ZZ=             -0.2305
   XY=              0.0401   XZ=              0.0000   YZ=              0.0000
 Octapole moment (field-independent basis, Debye-Ang**2):
  XXX=             -0.7129  YYY=             -1.4048  ZZZ=              0.0000  XYY=              0.2510
  XXY=             -0.8756  XXZ=             -0.0000  XZZ=              1.6990  YZZ=              0.8221
  YYZ=             -0.0000  XYZ=              0.0000
 Hexadecapole moment (field-independent basis, Debye-Ang**3):
 XXXX=            -98.6144 YYYY=           -552.1951 ZZZZ=           -265.4282 XXXY=            -27.3364
 XXXZ=              0.0000 YYYX=            -25.2050 YYYZ=             -0.0000 ZZZX=             -0.0000
 ZZZY=             -0.0000 XXYY=           -102.8158 XXZZ=            -59.2842 YYZZ=           -133.7280
 XXYZ=              0.0000 YYXZ=             -0.0000 ZZXY=             -6.9393
 N-N= 2.528250622572D+02 E-N=-1.050338647030D+03  KE= 2.340943982971D+02
 Symmetry A'   KE= 1.535436752765D+02
 Symmetry A"   KE= 8.055072302060D+01
 Symmetry A'   SP= 0.000000000000D+00
 Symmetry A"   SP= 0.000000000000D+00
                          Isotropic Fermi Contact Couplings
        Atom                 a.u.       MegaHertz       Gauss      10(-4) cm-1
     1  C(13)              0.00000       0.00000       0.00000       0.00000
     2  C(13)              0.00000       0.00000       0.00000       0.00000
     3  C(13)              0.00000       0.00000       0.00000       0.00000
     4  C(13)              0.00000       0.00000       0.00000       0.00000
     5  C(13)              0.00000       0.00000       0.00000       0.00000
     6  C(13)              0.00000       0.00000       0.00000       0.00000
     7  H(1)               0.00000       0.00000       0.00000       0.00000
     8  H(1)               0.00000       0.00000       0.00000       0.00000
     9  H(1)               0.00000       0.00000       0.00000       0.00000
    10  H(1)               0.00000       0.00000       0.00000       0.00000
    11  H(1)               0.00000       0.00000       0.00000       0.00000
    12  H(1)               0.00000       0.00000       0.00000       0.00000
    13  H(1)               0.00000       0.00000       0.00000       0.00000
    14  H(1)               0.00000       0.00000       0.00000       0.00000
    15  H(1)               0.00000       0.00000       0.00000       0.00000
    16  H(1)               0.00000       0.00000       0.00000       0.00000
    17  H(1)               0.00000       0.00000       0.00000       0.00000
    18  H(1)               0.00000       0.00000       0.00000       0.00000
 --------------------------------------------------------
       Center         ----  Spin Dipole Couplings  ----
                      3XX-RR        3YY-RR        3ZZ-RR
 --------------------------------------------------------
     1   Atom        0.000000      0.000000      0.000000
     2   Atom        0.000000      0.000000      0.000000
     3   Atom        0.000000      0.000000      0.000000
     4   Atom        0.000000      0.000000      0.000000
     5   Atom        0.000000      0.000000      0.000000
     6   Atom        0.000000      0.000000      0.000000
     7   Atom        0.000000      0.000000      0.000000
     8   Atom        0.000000      0.000000      0.000000
     9   Atom        0.000000      0.000000      0.000000
    10   Atom        0.000000      0.000000      0.000000
    11   Atom        0.000000      0.000000      0.000000
    12   Atom        0.000000      0.000000      0.000000
    13   Atom        0.000000      0.000000      0.000000
    14   Atom        0.000000      0.000000      0.000000
    15   Atom        0.000000      0.000000      0.000000
    16   Atom        0.000000      0.000000      0.000000
    17   Atom        0.000000      0.000000      0.000000
    18   Atom        0.000000      0.000000      0.000000
 --------------------------------------------------------
                        XY            XZ            YZ
 --------------------------------------------------------
     1   Atom        0.000000      0.000000      0.000000
     2   Atom        0.000000      0.000000      0.000000
     3   Atom        0.000000      0.000000      0.000000
     4   Atom        0.000000      0.000000      0.000000
     5   Atom        0.000000      0.000000      0.000000
     6   Atom        0.000000      0.000000      0.000000
     7   Atom        0.000000      0.000000      0.000000
     8   Atom        0.000000      0.000000      0.000000
     9   Atom        0.000000      0.000000      0.000000
    10   Atom        0.000000      0.000000      0.000000
    11   Atom        0.000000      0.000000      0.000000
    12   Atom        0.000000      0.000000      0.000000
    13   Atom        0.000000      0.000000      0.000000
    14   Atom        0.000000      0.000000      0.000000
    15   Atom        0.000000      0.000000      0.000000
    16   Atom        0.000000      0.000000      0.000000
    17   Atom        0.000000      0.000000      0.000000
    18   Atom        0.000000      0.000000      0.000000
 --------------------------------------------------------


 ---------------------------------------------------------------------------------
              Anisotropic Spin Dipole Couplings in Principal Axis System
 ---------------------------------------------------------------------------------

       Atom             a.u.   MegaHertz   Gauss  10(-4) cm-1        Axes

              Baa     0.0000     0.000     0.000     0.000  1.0000  0.0000  0.0000
     1 C(13)  Bbb     0.0000     0.000     0.000     0.000 -0.0000  1.0000  0.0000
              Bcc     0.0000     0.000     0.000     0.000  0.0000  0.0000  1.0000
 
              Baa     0.0000     0.000     0.000     0.000  1.0000  0.0000  0.0000
     2 C(13)  Bbb     0.0000     0.000     0.000     0.000 -0.0000  1.0000  0.0000
              Bcc     0.0000     0.000     0.000     0.000  0.0000  0.0000  1.0000
 
              Baa     0.0000     0.000     0.000     0.000  1.0000  0.0000  0.0000
     3 C(13)  Bbb     0.0000     0.000     0.000     0.000 -0.0000  1.0000  0.0000
              Bcc     0.0000     0.000     0.000     0.000  0.0000  0.0000  1.0000
 
              Baa     0.0000     0.000     0.000     0.000  1.0000  0.0000  0.0000
     4 C(13)  Bbb     0.0000     0.000     0.000     0.000 -0.0000  1.0000  0.0000
              Bcc     0.0000     0.000     0.000     0.000  0.0000  0.0000  1.0000
 
              Baa     0.0000     0.000     0.000     0.000  1.0000  0.0000  0.0000
     5 C(13)  Bbb     0.0000     0.000     0.000     0.000 -0.0000  1.0000  0.0000
              Bcc     0.0000     0.000     0.000     0.000  0.0000  0.0000  1.0000
 
              Baa     0.0000     0.000     0.000     0.000  1.0000  0.0000  0.0000
     6 C(13)  Bbb     0.0000     0.000     0.000     0.000 -0.0000  1.0000  0.0000
              Bcc     0.0000     0.000     0.000     0.000  0.0000  0.0000  1.0000
 
              Baa     0.0000     0.000     0.000     0.000  1.0000  0.0000  0.0000
     7 H(1)   Bbb     0.0000     0.000     0.000     0.000 -0.0000  1.0000  0.0000
              Bcc     0.0000     0.000     0.000     0.000  0.0000  0.0000  1.0000
 
              Baa     0.0000     0.000     0.000     0.000  1.0000  0.0000  0.0000
     8 H(1)   Bbb     0.0000     0.000     0.000     0.000 -0.0000  1.0000  0.0000
              Bcc     0.0000     0.000     0.000     0.000  0.0000  0.0000  1.0000
 
              Baa     0.0000     0.000     0.000     0.000  1.0000  0.0000  0.0000
     9 H(1)   Bbb     0.0000     0.000     0.000     0.000 -0.0000  1.0000  0.0000
              Bcc     0.0000     0.000     0.000     0.000  0.0000  0.0000  1.0000
 
              Baa     0.0000     0.000     0.000     0.000  1.0000  0.0000  0.0000
    10 H(1)   Bbb     0.0000     0.000     0.000     0.000 -0.0000  1.0000  0.0000
              Bcc     0.0000     0.000     0.000     0.000  0.0000  0.0000  1.0000
 
              Baa     0.0000     0.000     0.000     0.000  1.0000  0.0000  0.0000
    11 H(1)   Bbb     0.0000     0.000     0.000     0.000 -0.0000  1.0000  0.0000
              Bcc     0.0000     0.000     0.000     0.000  0.0000  0.0000  1.0000
 
              Baa     0.0000     0.000     0.000     0.000  1.0000  0.0000  0.0000
    12 H(1)   Bbb     0.0000     0.000     0.000     0.000 -0.0000  1.0000  0.0000
              Bcc     0.0000     0.000     0.000     0.000  0.0000  0.0000  1.0000
 
              Baa     0.0000     0.000     0.000     0.000  1.0000  0.0000  0.0000
    13 H(1)   Bbb     0.0000     0.000     0.000     0.000 -0.0000  1.0000  0.0000
              Bcc     0.0000     0.000     0.000     0.000  0.0000  0.0000  1.0000
 
              Baa     0.0000     0.000     0.000     0.000  1.0000  0.0000  0.0000
    14 H(1)   Bbb     0.0000     0.000     0.000     0.000 -0.0000  1.0000  0.0000
              Bcc     0.0000     0.000     0.000     0.000  0.0000  0.0000  1.0000
 
              Baa     0.0000     0.000     0.000     0.000  1.0000  0.0000  0.0000
    15 H(1)   Bbb     0.0000     0.000     0.000     0.000 -0.0000  1.0000  0.0000
              Bcc     0.0000     0.000     0.000     0.000  0.0000  0.0000  1.0000
 
              Baa     0.0000     0.000     0.000     0.000  1.0000  0.0000  0.0000
    16 H(1)   Bbb     0.0000     0.000     0.000     0.000 -0.0000  1.0000  0.0000
              Bcc     0.0000     0.000     0.000     0.000  0.0000  0.0000  1.0000
 
              Baa     0.0000     0.000     0.000     0.000  1.0000  0.0000  0.0000
    17 H(1)   Bbb     0.0000     0.000     0.000     0.000 -0.0000  1.0000  0.0000
              Bcc     0.0000     0.000     0.000     0.000  0.0000  0.0000  1.0000
 
              Baa     0.0000     0.000     0.000     0.000  1.0000  0.0000  0.0000
    18 H(1)   Bbb     0.0000     0.000     0.000     0.000 -0.0000  1.0000  0.0000
              Bcc     0.0000     0.000     0.000     0.000  0.0000  0.0000  1.0000
 

 ---------------------------------------------------------------------------------

 1\1\GINC-GAMBA\SP\ROHF\Gen\C6H12\IRIKURA\30-Sep-2023\0\\# rohf/gen geo
 m=check guess=check\\methylcyclopentane, ROHF/cc-pVTZ-F12\\0,1\C,0,0.2
 13925,2.216708,0.\C,0,0.450734,0.711224,0.\C,0,-0.158426,-0.036002,1.1
 95913\C,0,-0.158426,-0.036002,-1.195913\C,0,-0.158426,-1.520284,-0.778
 285\C,0,-0.158426,-1.520284,0.778285\H,0,0.651967,2.689767,-0.880809\H
 ,0,0.651967,2.689767,0.880809\H,0,-0.855653,2.440388,0.\H,0,1.531908,0
 .527459,0.\H,0,0.380763,0.142197,2.127331\H,0,0.380763,0.142197,-2.127
 331\H,0,-1.183704,0.315558,1.346604\H,0,-1.183704,0.315558,-1.346604\H
 ,0,0.733669,-2.021357,-1.156118\H,0,0.733669,-2.021357,1.156118\H,0,-1
 .013684,-2.056169,-1.189371\H,0,-1.013684,-2.056169,1.189371\\Version=
 ES64L-G16RevB.01\State=1-A'\HF=-234.2915535\RMSD=9.893e-09\Dipole=0.03
 29003,-0.0119763,0.\Quadrupole=0.8182853,-0.646928,-0.1713572,0.029796
 6,0.,0.\PG=CS [SG(C2H2),X(C4H10)]\\@


 ...THOSE SCIENCES ARE VAIN AND FULL OF ERRORS WHICH 
 ARE NOT BORN FROM EXPERIMENT, THE MOTHER OF CERTAINTY...

                          -- LEONARDO DA VINCI, 1452-1519
 Job cpu time:       0 days  0 hours 23 minutes 26.7 seconds.
 Elapsed time:       0 days  0 hours  5 minutes 51.9 seconds.
 File lengths (MBytes):  RWF=    204 Int=      0 D2E=      0 Chk=     26 Scr=      1
 Normal termination of Gaussian 16 at Sat Sep 30 02:52:19 2023.
