 Entering Gaussian System, Link 0=g16
 AtFile(1): pcseg2.gbs
            -H     0
            S   4   1.00
                  0.754732D+02           0.427821D-02
                  0.113575D+02           0.328672D-01
                  0.260081D+01           0.159578D+00
                  0.735503D+00           0.500000D+00
            S   1   1.00
                  0.231761D+00           1.0000000
            S   1   1.00
                  0.741675D-01           1.0000000
            P   1   1.00
                  0.160000D+01           1.0000000
            P   1   1.00
                  0.450000D+00           1.0000000
            D   1   1.00
                  0.125000D+01           1.0000000
            ****
            -C     0
            S   7   1.00
                  0.731999D+04           0.695369D-03
                  0.109818D+04           0.537138D-02
                  0.250014D+03           0.274734D-01
                  0.707586D+02           0.105078D+00
                  0.228595D+02           0.291262D+00
                  0.803936D+01           0.500000D+00
                  0.289309D+01           0.362224D+00
            S   2   1.00
                  0.521640D+01          -0.957844D-01
                  0.556124D+00           0.500000D+00
            S   1   1.00
                  0.228813D+00           1.0000000
            S   1   1.00
                  0.936338D-01           1.0000000
            P   4   1.00
                  0.339855D+02           0.818395D-02
                  0.772957D+01           0.586921D-01
                  0.224954D+01           0.222514D+00
                  0.767681D+00           0.500000D+00
            P   1   1.00
                  0.263283D+00           1.0000000
            P   1   1.00
                  0.848744D-01           1.0000000
            D   1   1.00
                  0.140000D+01           1.0000000
            D   1   1.00
                  0.450000D+00           1.0000000
            F   1   1.00
                  0.950000D+00           1.0000000
            ****
            -O     0
            S   7   1.00
                  0.135887D+05           0.665492D-03
                  0.203847D+04           0.514222D-02
                  0.464041D+03           0.263472D-01
                  0.131339D+03           0.101500D+00
                  0.425340D+02           0.285877D+00
                  0.150429D+02           0.500000D+00
                  0.546616D+01           0.368211D+00
            S   2   1.00
                  0.100915D+02          -0.100084D+00
                  0.110429D+01           0.500000D+00
            S   1   1.00
                  0.448082D+00           1.0000000
            S   1   1.00
                  0.175325D+00           1.0000000
            P   4   1.00
                  0.608220D+02           0.908253D-02
                  0.140332D+02           0.645878D-01
                  0.418244D+01           0.241502D+00
                  0.142490D+01           0.500000D+00
            P   1   1.00
                  0.478741D+00           1.0000000
            P   1   1.00
                  0.146257D+00           1.0000000
            D   1   1.00
                  0.220000D+01           1.0000000
            D   1   1.00
                  0.650000D+00           1.0000000
            F   1   1.00
                  0.110000D+01           1.0000000
            ****
            -N     0
            S   7   1.00
                  0.101643D+05           0.682757D-03
                  0.152481D+04           0.527488D-02
                  0.347119D+03           0.270037D-01
                  0.982389D+02           0.103673D+00
                  0.317799D+02           0.289575D+00
                  0.112240D+02           0.500000D+00
                  0.406611D+01           0.364621D+00
            S   2   1.00
                  0.747898D+01          -0.975681D-01
                  0.805040D+00           0.500000D+00
            S   1   1.00
                  0.324626D+00           1.0000000
            S   1   1.00
                  0.128132D+00           1.0000000
            P   4   1.00
                  0.482704D+02           0.829547D-02
                  0.110815D+02           0.596223D-01
                  0.326643D+01           0.227889D+00
                  0.111680D+01           0.500000D+00
            P   1   1.00
                  0.382049D+00           1.0000000
            P   1   1.00
                  0.121222D+00           1.0000000
            D   1   1.00
                  0.180000D+01           1.0000000
            D   1   1.00
                  0.550000D+00           1.0000000
            F   1   1.00
                  0.102000D+01           1.0000000
            ****
            -F     0
            S   7   1.00
                  0.174507D+05           0.655972D-03
                  0.261768D+04           0.506944D-02
                  0.595857D+03           0.259899D-01
                  0.168651D+03           0.100353D+00
                  0.546654D+02           0.284095D+00
                  0.193717D+02           0.500000D+00
                  0.706202D+01           0.370721D+00
            S   2   1.00
                  0.131197D+02          -0.101997D+00
                  0.145046D+01           0.500000D+00
            S   1   1.00
                  0.588255D+00           1.0000000
            S   1   1.00
                  0.227960D+00           1.0000000
            P   4   1.00
                  0.779407D+02           0.931135D-02
                  0.180425D+02           0.663964D-01
                  0.542342D+01           0.246386D+00
                  0.184876D+01           0.500000D+00
            P   1   1.00
                  0.617455D+00           1.0000000
            P   1   1.00
                  0.185496D+00           1.0000000
            D   1   1.00
                  0.280000D+01           1.0000000
            D   1   1.00
                  0.800000D+00           1.0000000
            F   1   1.00
                  0.120000D+01           1.0000000
            ****
            -Cl     0
            S   8   1.00
                  0.154272D+06           0.222473D-03
                  0.231232D+05           0.172590D-02
                  0.526257D+04           0.899286D-02
                  0.148995D+04           0.367724D-01
                  0.485417D+03           0.121446D+00
                  0.174634D+03           0.304148D+00
                  0.672393D+02           0.500000D+00
                  0.265780D+02           0.360252D+00
            S   3   1.00
                  0.131826D+03          -0.531330D-01
                  0.400703D+02          -0.233346D+00
                  0.789448D+01           0.500000D+00
            S   2   1.00
                  0.427711D+01           0.500000D+00
                  0.196233D+01           0.370517D+00
            S   1   1.00
                  0.520793D+00           1.0000000
            S   1   1.00
                  0.181633D+00           1.0000000
            P   7   1.00
                  0.124440D+04           0.988206D-03
                  0.295109D+03           0.829674D-02
                  0.947224D+02           0.430906D-01
                  0.352588D+02           0.148443D+00
                  0.144211D+02           0.344744D+00
                  0.610371D+01           0.500000D+00
                  0.258886D+01           0.348278D+00
            P   2   1.00
                  0.109447D+02          -0.196768D-01
                  0.104413D+01           0.500000D+00
            P   1   1.00
                  0.376184D+00           1.0000000
            P   1   1.00
                  0.120613D+00           1.0000000
            D   1   1.00
                  0.231000D+01           1.0000000
            D   1   1.00
                  0.520000D+00           1.0000000
            F   1   1.00
                  0.720000D+00           1.0000000
            ****
            -S     0
            S   8   1.00
                  0.134700D+06           0.226231D-03
                  0.201904D+05           0.175488D-02
                  0.459528D+04           0.914190D-02
                  0.130109D+04           0.373551D-01
                  0.423902D+03           0.123121D+00
                  0.152485D+03           0.306801D+00
                  0.586925D+02           0.500000D+00
                  0.231461D+02           0.354358D+00
            S   3   1.00
                  0.116327D+03          -0.491772D-01
                  0.352841D+02          -0.215962D+00
                  0.677831D+01           0.500000D+00
            S   2   1.00
                  0.360404D+01           0.500000D+00
                  0.164871D+01           0.366278D+00
            S   1   1.00
                  0.421821D+00           1.0000000
            S   1   1.00
                  0.147554D+00           1.0000000
            P   7   1.00
                  0.104863D+04           0.105273D-02
                  0.248717D+03           0.879338D-02
                  0.797887D+02           0.453358D-01
                  0.296023D+02           0.154476D+00
                  0.120627D+02           0.352366D+00
                  0.507628D+01           0.500000D+00
                  0.213375D+01           0.346429D+00
            P   2   1.00
                  0.928958D+01          -0.185932D-01
                  0.837819D+00           0.500000D+00
            P   1   1.00
                  0.301495D+00           1.0000000
            P   1   1.00
                  0.974740D-01           1.0000000
            D   1   1.00
                  0.210000D+01           1.0000000
            D   1   1.00
                  0.480000D+00           1.0000000
            F   1   1.00
                  0.660000D+00           1.0000000
            ****
            -Br     0
            S    10   1.00
                  0.233625D+07           0.532336D-04
                  0.349961D+06           0.413715D-03
                  0.796444D+05           0.217123D-02
                  0.225555D+05           0.910109D-02
                  0.735546D+04           0.323789D-01
                  0.265352D+04           0.988755D-01
                  0.103517D+04           0.248138D+00
                  0.422205D+03           0.474328D+00
                  0.180035D+03           0.500000D+00
                  0.793308D+02           0.187769D+00
            S    4   1.00
                  0.620834D+03          -0.226511D-01
                  0.190829D+03          -0.109497D+00
                  0.312505D+02           0.500000D+00
                  0.135270D+02           0.492812D+00
            S    2   1.00
                  0.216097D+02          -0.165418D+00
                  0.372566D+01           0.500000D+00
            S    1   1.00
                  0.169770D+01           1.0000000
            S    1   1.00
                  0.489332D+00           1.0000000
            S    1   1.00
                  0.175712D+00           1.0000000
            P    8   1.00
                  0.960829D+04           0.478974D-03
                  0.227618D+04           0.417853D-02
                  0.736723D+03           0.229315D-01
                  0.281579D+03           0.892653D-01
                  0.118395D+03           0.255288D+00
                  0.527481D+02           0.479074D+00
                  0.245098D+02           0.500000D+00
                  0.112009D+02           0.200944D+00
            P    4   1.00
                  0.587849D+02          -0.189674D-01
                  0.918962D+01           0.264104D+00
                  0.413895D+01           0.500000D+00
                  0.184225D+01           0.319316D+00
            P    1   1.00
                  0.713862D+00           1.0000000
            P    1   1.00
                  0.274232D+00           1.0000000
            P    1   1.00
                  0.944411D-01           1.0000000
            D    7   1.00
                  0.398470D+03           0.204066D-02
                  0.118967D+03           0.175171D-01
                  0.450197D+02           0.829708D-01
                  0.190320D+02           0.236284D+00
                  0.855686D+01           0.428468D+00
                  0.382950D+01           0.500000D+00
                  0.166291D+01           0.349360D+00
            D    1   1.00
                  0.672953D+00           1.0000000
            D    1   1.00
                  0.252000D+00           1.0000000
            F    1   1.00
                  0.530000D+00           1.0000000
            ****
            -Si     0
            S    8   1.00
                  0.996133D+05           0.235546D-03
                  0.149311D+05           0.182707D-02
                  0.339820D+04           0.951425D-02
                  0.962140D+03           0.388172D-01
                  0.313430D+03           0.127328D+00
                  0.112683D+03           0.313522D+00
                  0.433372D+02           0.500000D+00
                  0.170029D+02           0.340347D+00
            S    3   1.00
                  0.884208D+02          -0.404451D-01
                  0.266756D+02          -0.178059D+00
                  0.479640D+01           0.500000D+00
            S    2   1.00
                  0.239385D+01           0.500000D+00
                  0.108333D+01           0.338016D+00
            S    1   1.00
                  0.252420D+00           1.0000000
            S    1   1.00
                  0.891210D-01           1.0000000
            P    7   1.00
                  0.709901D+03           0.123028D-02
                  0.168426D+03           0.101366D-01
                  0.539946D+02           0.511840D-01
                  0.198646D+02           0.169967D+00
                  0.801369D+01           0.370717D+00
                  0.331870D+01           0.500000D+00
                  0.136112D+01           0.344128D+00
            P    2   1.00
                  0.622158D+01          -0.166609D-01
                  0.503049D+00           0.500000D+00
            P    1   1.00
                  0.179848D+00           1.0000000
            P    1   1.00
                  0.591912D-01           1.0000000
            D    1   1.00
                  0.168000D+01           1.0000000
            D    1   1.00
                  0.380000D+00           1.0000000
            F    1   1.00
                  0.540000D+00           1.0000000
            ****
            -P     0
            S    8   1.00
                  0.116416D+06           0.230715D-03
                  0.174500D+05           0.178960D-02
                  0.397149D+04           0.932116D-02
                  0.112447D+04           0.380591D-01
                  0.366347D+03           0.125148D+00
                  0.131757D+03           0.310022D+00
                  0.506988D+02           0.500000D+00
                  0.199436D+02           0.347528D+00
            S    3   1.00
                  0.101878D+03          -0.446755D-01
                  0.308249D+02          -0.196376D+00
                  0.573688D+01           0.500000D+00
            S    2   1.00
                  0.296868D+01           0.500000D+00
                  0.135315D+01           0.355098D+00
            S    1   1.00
                  0.332196D+00           1.0000000
            S    1   1.00
                  0.116229D+00           1.0000000
            P    7   1.00
                  0.873928D+03           0.112375D-02
                  0.207298D+03           0.933330D-02
                  0.664628D+02           0.477213D-01
                  0.245665D+02           0.160733D+00
                  0.996820D+01           0.359760D+00
                  0.416536D+01           0.500000D+00
                  0.173022D+01           0.346593D+00
            P    2   1.00
                  0.772530D+01          -0.175718D-01
                  0.657252D+00           0.500000D+00
            P    1   1.00
                  0.239903D+00           1.0000000
            P    1   1.00
                  0.800988D-01           1.0000000
            D    1   1.00
                  0.189000D+01           1.0000000
            D    1   1.00
                  0.430000D+00           1.0000000
            F    1   1.00
                  0.600000D+00           1.0000000
            ****
            
 Initial command:
 /usr/local/apps/g16_b01_avx/g16/l1.exe "/wrk/irikura/Gau-183285.inp" -scrdir="/wrk/irikura/"
 Entering Link 1 = /usr/local/apps/g16_b01_avx/g16/l1.exe PID=    183287.
  
 Copyright (c) 1988-2017, Gaussian, Inc.  All Rights Reserved.
  
 This is part of the Gaussian(R) 16 program.  It is based on
 the Gaussian(R) 09 system (copyright 2009, Gaussian, Inc.),
 the Gaussian(R) 03 system (copyright 2003, Gaussian, Inc.),
 the Gaussian(R) 98 system (copyright 1998, Gaussian, Inc.),
 the Gaussian(R) 94 system (copyright 1995, Gaussian, Inc.),
 the Gaussian 92(TM) system (copyright 1992, Gaussian, Inc.),
 the Gaussian 90(TM) system (copyright 1990, Gaussian, Inc.),
 the Gaussian 88(TM) system (copyright 1988, Gaussian, Inc.),
 the Gaussian 86(TM) system (copyright 1986, Carnegie Mellon
 University), and the Gaussian 82(TM) system (copyright 1983,
 Carnegie Mellon University). Gaussian is a federally registered
 trademark of Gaussian, Inc.
  
 This software contains proprietary and confidential information,
 including trade secrets, belonging to Gaussian, Inc.
  
 This software is provided under written license and may be
 used, copied, transmitted, or stored only in accord with that
 written license.
  
 The following legend is applicable only to US Government
 contracts under FAR:
  
                    RESTRICTED RIGHTS LEGEND
  
 Use, reproduction and disclosure by the US Government is
 subject to restrictions as set forth in subparagraphs (a)
 and (c) of the Commercial Computer Software - Restricted
 Rights clause in FAR 52.227-19.
  
 Gaussian, Inc.
 340 Quinnipiac St., Bldg. 40, Wallingford CT 06492
  
  
 ---------------------------------------------------------------
 Warning -- This program may not be used in any manner that
 competes with the business of Gaussian, Inc. or will provide
 assistance to any competitor of Gaussian, Inc.  The licensee
 of this program is prohibited from giving any competitor of
 Gaussian, Inc. access to this program.  By using this program,
 the user acknowledges that Gaussian, Inc. is engaged in the
 business of creating and licensing software in the field of
 computational chemistry and represents and warrants to the
 licensee that it is not a competitor of Gaussian, Inc. and that
 it will not use this program in any manner prohibited above.
 ---------------------------------------------------------------
  

 Cite this work as:
 Gaussian 16, Revision B.01,
 M. J. Frisch, G. W. Trucks, H. B. Schlegel, G. E. Scuseria, 
 M. A. Robb, J. R. Cheeseman, G. Scalmani, V. Barone, 
 G. A. Petersson, H. Nakatsuji, X. Li, M. Caricato, A. V. Marenich, 
 J. Bloino, B. G. Janesko, R. Gomperts, B. Mennucci, H. P. Hratchian, 
 J. V. Ortiz, A. F. Izmaylov, J. L. Sonnenberg, D. Williams-Young, 
 F. Ding, F. Lipparini, F. Egidi, J. Goings, B. Peng, A. Petrone, 
 T. Henderson, D. Ranasinghe, V. G. Zakrzewski, J. Gao, N. Rega, 
 G. Zheng, W. Liang, M. Hada, M. Ehara, K. Toyota, R. Fukuda, 
 J. Hasegawa, M. Ishida, T. Nakajima, Y. Honda, O. Kitao, H. Nakai, 
 T. Vreven, K. Throssell, J. A. Montgomery, Jr., J. E. Peralta, 
 F. Ogliaro, M. J. Bearpark, J. J. Heyd, E. N. Brothers, K. N. Kudin, 
 V. N. Staroverov, T. A. Keith, R. Kobayashi, J. Normand, 
 K. Raghavachari, A. P. Rendell, J. C. Burant, S. S. Iyengar, 
 J. Tomasi, M. Cossi, J. M. Millam, M. Klene, C. Adamo, R. Cammi, 
 J. W. Ochterski, R. L. Martin, K. Morokuma, O. Farkas, 
 J. B. Foresman, and D. J. Fox, Gaussian, Inc., Wallingford CT, 2016.
 
 ******************************************
 Gaussian 16:  ES64L-G16RevB.01 20-Dec-2017
                 7-Dec-2023 
 ******************************************
 %chk=cyc5dime11.chk
 %mem=1000mw
 %nprocs=8
 Will use up to    8 processors via shared memory.
 ---------------------------------------
 # b3lyp/gen opt freq CPHF(Grid=OneStep)
 ---------------------------------------
 1/18=20,19=15,26=3,38=1/1,3;
 2/9=110,12=2,17=6,18=5,40=1/2;
 3/5=7,11=2,25=1,30=1,71=1,74=-5/1,2,3;
 4//1;
 5/5=2,38=5/2;
 6/7=2,8=2,9=2,10=2,28=1/1;
 7//1,2,3,16;
 1/18=20,19=15,26=3/3(2);
 2/9=110/2;
 99//99;
 2/9=110/2;
 3/5=7,6=1,11=2,25=1,30=1,71=1,74=-5,82=7/1,2,3;
 4/5=5,16=3,69=1/1;
 5/5=2,38=5/2;
 7//1,2,3,16;
 1/18=20,19=15,26=3/3(-5);
 2/9=110/2;
 6/7=2,8=2,9=2,10=2,19=2,28=1/1;
 99/9=1/99;
 ---------------------------------------
 1,1-dimethylcyclopentane, B3LYP/pcseg-2
 ---------------------------------------
 Symbolic Z-matrix:
 Charge =  0 Multiplicity = 1
 C                    -0.2261    2.13076   0. 
 C                     0.16543   0.64744   0. 
 C                     1.7018    0.52214   0. 
 C                    -0.44489  -0.12391   1.1969 
 C                    -0.44489  -0.12391  -1.1969 
 C                    -0.44489  -1.61341   0.77957 
 C                    -0.44489  -1.61341  -0.77957 
 H                     0.16823   2.6465    0.88475 
 H                    -1.31639   2.25238   0. 
 H                     0.16823   2.6465   -0.88475 
 H                     2.13317   1.00466   0.88588 
 H                     2.13317   1.00466  -0.88588 
 H                     2.03122  -0.52319   0. 
 H                     0.09599   0.05679   2.13382 
 H                    -1.47637   0.22046   1.35217 
 H                    -1.47637   0.22046  -1.35217 
 H                     0.09599   0.05679  -2.13382 
 H                    -1.30837  -2.14564   1.19251 
 H                     0.44516  -2.12447   1.16332 
 H                     0.44516  -2.12447  -1.16332 
 H                    -1.30837  -2.14564  -1.19251 
 

 GradGradGradGradGradGradGradGradGradGradGradGradGradGradGradGradGradGrad
 Berny optimization.
 Initialization pass.
                           ----------------------------
                           !    Initial Parameters    !
                           ! (Angstroms and Degrees)  !
 --------------------------                            --------------------------
 ! Name  Definition              Value          Derivative Info.                !
 --------------------------------------------------------------------------------
 ! R1    R(1,2)                  1.5341         estimate D2E/DX2                !
 ! R2    R(1,8)                  1.0974         estimate D2E/DX2                !
 ! R3    R(1,9)                  1.0971         estimate D2E/DX2                !
 ! R4    R(1,10)                 1.0974         estimate D2E/DX2                !
 ! R5    R(2,3)                  1.5415         estimate D2E/DX2                !
 ! R6    R(2,4)                  1.5492         estimate D2E/DX2                !
 ! R7    R(2,5)                  1.5492         estimate D2E/DX2                !
 ! R8    R(3,11)                 1.0971         estimate D2E/DX2                !
 ! R9    R(3,12)                 1.0971         estimate D2E/DX2                !
 ! R10   R(3,13)                 1.096          estimate D2E/DX2                !
 ! R11   R(4,6)                  1.5469         estimate D2E/DX2                !
 ! R12   R(4,14)                 1.0968         estimate D2E/DX2                !
 ! R13   R(4,15)                 1.0985         estimate D2E/DX2                !
 ! R14   R(5,7)                  1.5469         estimate D2E/DX2                !
 ! R15   R(5,16)                 1.0985         estimate D2E/DX2                !
 ! R16   R(5,17)                 1.0968         estimate D2E/DX2                !
 ! R17   R(6,7)                  1.5591         estimate D2E/DX2                !
 ! R18   R(6,18)                 1.0952         estimate D2E/DX2                !
 ! R19   R(6,19)                 1.0957         estimate D2E/DX2                !
 ! R20   R(7,20)                 1.0957         estimate D2E/DX2                !
 ! R21   R(7,21)                 1.0952         estimate D2E/DX2                !
 ! A1    A(2,1,8)              111.266          estimate D2E/DX2                !
 ! A2    A(2,1,9)              111.1512         estimate D2E/DX2                !
 ! A3    A(2,1,10)             111.266          estimate D2E/DX2                !
 ! A4    A(8,1,9)              107.7593         estimate D2E/DX2                !
 ! A5    A(8,1,10)             107.4585         estimate D2E/DX2                !
 ! A6    A(9,1,10)             107.7593         estimate D2E/DX2                !
 ! A7    A(1,2,3)              109.4488         estimate D2E/DX2                !
 ! A8    A(1,2,4)              112.3875         estimate D2E/DX2                !
 ! A9    A(1,2,5)              112.3875         estimate D2E/DX2                !
 ! A10   A(3,2,4)              110.6207         estimate D2E/DX2                !
 ! A11   A(3,2,5)              110.6207         estimate D2E/DX2                !
 ! A12   A(4,2,5)              101.1739         estimate D2E/DX2                !
 ! A13   A(2,3,11)             110.8627         estimate D2E/DX2                !
 ! A14   A(2,3,12)             110.8627         estimate D2E/DX2                !
 ! A15   A(2,3,13)             112.1539         estimate D2E/DX2                !
 ! A16   A(11,3,12)            107.6958         estimate D2E/DX2                !
 ! A17   A(11,3,13)            107.5352         estimate D2E/DX2                !
 ! A18   A(12,3,13)            107.5352         estimate D2E/DX2                !
 ! A19   A(2,4,6)              105.7237         estimate D2E/DX2                !
 ! A20   A(2,4,14)             112.5602         estimate D2E/DX2                !
 ! A21   A(2,4,15)             108.8471         estimate D2E/DX2                !
 ! A22   A(6,4,14)             112.8984         estimate D2E/DX2                !
 ! A23   A(6,4,15)             109.8774         estimate D2E/DX2                !
 ! A24   A(14,4,15)            106.8978         estimate D2E/DX2                !
 ! A25   A(2,5,7)              105.7237         estimate D2E/DX2                !
 ! A26   A(2,5,16)             108.8471         estimate D2E/DX2                !
 ! A27   A(2,5,17)             112.5602         estimate D2E/DX2                !
 ! A28   A(7,5,16)             109.8774         estimate D2E/DX2                !
 ! A29   A(7,5,17)             112.8984         estimate D2E/DX2                !
 ! A30   A(16,5,17)            106.8978         estimate D2E/DX2                !
 ! A31   A(4,6,7)              105.6519         estimate D2E/DX2                !
 ! A32   A(4,6,18)             111.4835         estimate D2E/DX2                !
 ! A33   A(4,6,19)             110.7706         estimate D2E/DX2                !
 ! A34   A(7,6,18)             112.1515         estimate D2E/DX2                !
 ! A35   A(7,6,19)             110.5009         estimate D2E/DX2                !
 ! A36   A(18,6,19)            106.3632         estimate D2E/DX2                !
 ! A37   A(5,7,6)              105.6519         estimate D2E/DX2                !
 ! A38   A(5,7,20)             110.7706         estimate D2E/DX2                !
 ! A39   A(5,7,21)             111.4835         estimate D2E/DX2                !
 ! A40   A(6,7,20)             110.5009         estimate D2E/DX2                !
 ! A41   A(6,7,21)             112.1515         estimate D2E/DX2                !
 ! A42   A(20,7,21)            106.3632         estimate D2E/DX2                !
 ! D1    D(8,1,2,3)            -59.8988         estimate D2E/DX2                !
 ! D2    D(8,1,2,4)             63.4263         estimate D2E/DX2                !
 ! D3    D(8,1,2,5)            176.776          estimate D2E/DX2                !
 ! D4    D(9,1,2,3)            180.0            estimate D2E/DX2                !
 ! D5    D(9,1,2,4)            -56.6749         estimate D2E/DX2                !
 ! D6    D(9,1,2,5)             56.6749         estimate D2E/DX2                !
 ! D7    D(10,1,2,3)            59.8988         estimate D2E/DX2                !
 ! D8    D(10,1,2,4)          -176.776          estimate D2E/DX2                !
 ! D9    D(10,1,2,5)           -63.4263         estimate D2E/DX2                !
 ! D10   D(1,2,3,11)            59.781          estimate D2E/DX2                !
 ! D11   D(1,2,3,12)           -59.781          estimate D2E/DX2                !
 ! D12   D(1,2,3,13)           180.0            estimate D2E/DX2                !
 ! D13   D(4,2,3,11)           -64.5823         estimate D2E/DX2                !
 ! D14   D(4,2,3,12)           175.8557         estimate D2E/DX2                !
 ! D15   D(4,2,3,13)            55.6367         estimate D2E/DX2                !
 ! D16   D(5,2,3,11)          -175.8557         estimate D2E/DX2                !
 ! D17   D(5,2,3,12)            64.5823         estimate D2E/DX2                !
 ! D18   D(5,2,3,13)           -55.6367         estimate D2E/DX2                !
 ! D19   D(1,2,4,6)            158.4504         estimate D2E/DX2                !
 ! D20   D(1,2,4,14)           -77.8607         estimate D2E/DX2                !
 ! D21   D(1,2,4,15)            40.4591         estimate D2E/DX2                !
 ! D22   D(3,2,4,6)            -78.8827         estimate D2E/DX2                !
 ! D23   D(3,2,4,14)            44.8062         estimate D2E/DX2                !
 ! D24   D(3,2,4,15)           163.126          estimate D2E/DX2                !
 ! D25   D(5,2,4,6)             38.3683         estimate D2E/DX2                !
 ! D26   D(5,2,4,14)           162.0571         estimate D2E/DX2                !
 ! D27   D(5,2,4,15)           -79.623          estimate D2E/DX2                !
 ! D28   D(1,2,5,7)           -158.4504         estimate D2E/DX2                !
 ! D29   D(1,2,5,16)           -40.4591         estimate D2E/DX2                !
 ! D30   D(1,2,5,17)            77.8607         estimate D2E/DX2                !
 ! D31   D(3,2,5,7)             78.8827         estimate D2E/DX2                !
 ! D32   D(3,2,5,16)          -163.126          estimate D2E/DX2                !
 ! D33   D(3,2,5,17)           -44.8062         estimate D2E/DX2                !
 ! D34   D(4,2,5,7)            -38.3683         estimate D2E/DX2                !
 ! D35   D(4,2,5,16)            79.623          estimate D2E/DX2                !
 ! D36   D(4,2,5,17)          -162.0571         estimate D2E/DX2                !
 ! D37   D(2,4,6,7)            -24.1591         estimate D2E/DX2                !
 ! D38   D(2,4,6,18)          -146.2381         estimate D2E/DX2                !
 ! D39   D(2,4,6,19)            95.5275         estimate D2E/DX2                !
 ! D40   D(14,4,6,7)          -147.6345         estimate D2E/DX2                !
 ! D41   D(14,4,6,18)           90.2865         estimate D2E/DX2                !
 ! D42   D(14,4,6,19)          -27.9479         estimate D2E/DX2                !
 ! D43   D(15,4,6,7)            93.1411         estimate D2E/DX2                !
 ! D44   D(15,4,6,18)          -28.9379         estimate D2E/DX2                !
 ! D45   D(15,4,6,19)         -147.1723         estimate D2E/DX2                !
 ! D46   D(2,5,7,6)             24.1591         estimate D2E/DX2                !
 ! D47   D(2,5,7,20)           -95.5275         estimate D2E/DX2                !
 ! D48   D(2,5,7,21)           146.2381         estimate D2E/DX2                !
 ! D49   D(16,5,7,6)           -93.1411         estimate D2E/DX2                !
 ! D50   D(16,5,7,20)          147.1723         estimate D2E/DX2                !
 ! D51   D(16,5,7,21)           28.9379         estimate D2E/DX2                !
 ! D52   D(17,5,7,6)           147.6345         estimate D2E/DX2                !
 ! D53   D(17,5,7,20)           27.9479         estimate D2E/DX2                !
 ! D54   D(17,5,7,21)          -90.2865         estimate D2E/DX2                !
 ! D55   D(4,6,7,5)              0.0            estimate D2E/DX2                !
 ! D56   D(4,6,7,20)           119.8641         estimate D2E/DX2                !
 ! D57   D(4,6,7,21)          -121.6488         estimate D2E/DX2                !
 ! D58   D(18,6,7,5)           121.6488         estimate D2E/DX2                !
 ! D59   D(18,6,7,20)         -118.4871         estimate D2E/DX2                !
 ! D60   D(18,6,7,21)            0.0            estimate D2E/DX2                !
 ! D61   D(19,6,7,5)          -119.8641         estimate D2E/DX2                !
 ! D62   D(19,6,7,20)            0.0            estimate D2E/DX2                !
 ! D63   D(19,6,7,21)          118.4871         estimate D2E/DX2                !
 --------------------------------------------------------------------------------
 Trust Radius=3.00D-01 FncErr=1.00D-07 GrdErr=1.00D-06 EigMax=2.50D+02 EigMin=1.00D-04
 Number of steps in this run=    126 maximum allowed number of steps=    126.
 GradGradGradGradGradGradGradGradGradGradGradGradGradGradGradGradGradGrad

                          Input orientation:                          
 ---------------------------------------------------------------------
 Center     Atomic      Atomic             Coordinates (Angstroms)
 Number     Number       Type             X           Y           Z
 ---------------------------------------------------------------------
      1          6           0       -0.226100    2.130760    0.000000
      2          6           0        0.165430    0.647440    0.000000
      3          6           0        1.701800    0.522140    0.000000
      4          6           0       -0.444890   -0.123910    1.196900
      5          6           0       -0.444890   -0.123910   -1.196900
      6          6           0       -0.444890   -1.613410    0.779570
      7          6           0       -0.444890   -1.613410   -0.779570
      8          1           0        0.168230    2.646500    0.884750
      9          1           0       -1.316390    2.252380    0.000000
     10          1           0        0.168230    2.646500   -0.884750
     11          1           0        2.133170    1.004660    0.885880
     12          1           0        2.133170    1.004660   -0.885880
     13          1           0        2.031220   -0.523190    0.000000
     14          1           0        0.095990    0.056790    2.133820
     15          1           0       -1.476370    0.220460    1.352170
     16          1           0       -1.476370    0.220460   -1.352170
     17          1           0        0.095990    0.056790   -2.133820
     18          1           0       -1.308370   -2.145640    1.192510
     19          1           0        0.445160   -2.124470    1.163320
     20          1           0        0.445160   -2.124470   -1.163320
     21          1           0       -1.308370   -2.145640   -1.192510
 ---------------------------------------------------------------------
                    Distance matrix (angstroms):
                    1          2          3          4          5
     1  C    0.000000
     2  C    1.534123   0.000000
     3  C    2.510868   1.541471   0.000000
     4  C    2.562026   1.549207   2.541304   0.000000
     5  C    2.562026   1.549207   2.541304   2.393800   0.000000
     6  C    3.830719   2.468129   3.126752   1.546860   2.474883
     7  C    3.830719   2.468129   3.126752   2.474883   1.546860
     8  H    1.097391   2.186100   2.765416   2.854562   3.519141
     9  H    1.097052   2.184404   3.478966   2.799792   2.799792
    10  H    1.097391   2.186100   2.765416   3.519141   2.854562
    11  H    2.760261   2.187325   1.097128   2.831395   3.501148
    12  H    2.760261   2.187325   1.097128   3.501148   2.831395
    13  H    3.484099   2.202623   1.096007   2.779049   2.779049
    14  H    2.993039   2.215147   2.710787   1.096824   3.379186
    15  H    2.653448   2.169374   3.467007   1.098476   2.771335
    16  H    2.653448   2.169374   3.467007   2.771335   1.098476
    17  H    2.993039   2.215147   2.710787   3.379186   1.096824
    18  H    4.569572   3.375717   4.195266   2.198411   3.246886
    19  H    4.462162   3.019114   3.152301   2.189876   3.219483
    20  H    4.462162   3.019114   3.152301   3.219483   2.189876
    21  H    4.569572   3.375717   4.195266   3.246886   2.198411
                    6          7          8          9         10
     6  C    0.000000
     7  C    1.559140   0.000000
     8  H    4.305091   4.614402   0.000000
     9  H    4.038759   4.038759   1.772628   0.000000
    10  H    4.614402   4.305091   1.769500   1.772628   0.000000
    11  H    3.675865   4.034155   2.560592   3.773732   3.113159
    12  H    4.034155   3.675865   3.113159   3.773732   2.560592
    13  H    2.815569   2.815569   3.781593   4.348595   3.781593
    14  H    2.217231   3.401464   2.876107   3.371738   3.977887
    15  H    2.180574   2.995220   2.967972   2.445947   3.687030
    16  H    2.995220   2.180574   3.687030   2.445947   2.967972
    17  H    3.401464   2.217231   3.977887   3.371738   2.876107
    18  H    1.095165   2.217649   5.023910   4.556833   5.427703
    19  H    1.095735   2.197315   4.787113   4.859340   5.199369
    20  H    2.197315   1.095735   5.199369   4.859340   4.787113
    21  H    2.217649   1.095165   5.427703   4.556833   5.023910
                   11         12         13         14         15
    11  H    0.000000
    12  H    1.771760   0.000000
    13  H    1.769040   1.769040   0.000000
    14  H    2.570197   3.763927   2.938483   0.000000
    15  H    3.723060   4.318867   3.832045   1.763542   0.000000
    16  H    4.318867   3.723060   3.832045   3.827693   2.704340
    17  H    3.763927   2.570197   2.938483   4.267640   3.827693
    18  H    4.675747   5.107670   3.899652   2.776507   2.377424
    19  H    3.566203   4.103663   2.536335   2.412817   3.037538
    20  H    4.103663   3.566203   2.536335   3.968746   3.939374
    21  H    5.107670   4.675747   3.899652   4.229349   3.478800
                   16         17         18         19         20
    16  H    0.000000
    17  H    1.763542   0.000000
    18  H    3.478800   4.229349   0.000000
    19  H    3.939374   3.968746   1.753901   0.000000
    20  H    3.037538   2.412817   2.936878   2.326640   0.000000
    21  H    2.377424   2.776507   2.385020   2.936878   1.753901
                   21
    21  H    0.000000
 Stoichiometry    C7H14
 Framework group  CS[SG(C3H2),X(C4H12)]
 Deg. of freedom    31
 Full point group                 CS      NOp   2
 Largest Abelian subgroup         CS      NOp   2
 Largest concise Abelian subgroup CS      NOp   2
                         Standard orientation:                         
 ---------------------------------------------------------------------
 Center     Atomic      Atomic             Coordinates (Angstroms)
 Number     Number       Type             X           Y           Z
 ---------------------------------------------------------------------
      1          6           0       -0.226098    2.130760   -0.000000
      2          6           0        0.165432    0.647440   -0.000000
      3          6           0        1.701802    0.522140    0.000000
      4          6           0       -0.444888   -0.123910    1.196900
      5          6           0       -0.444888   -0.123910   -1.196900
      6          6           0       -0.444888   -1.613410    0.779570
      7          6           0       -0.444888   -1.613410   -0.779570
      8          1           0        0.168232    2.646500    0.884750
      9          1           0       -1.316388    2.252380   -0.000000
     10          1           0        0.168232    2.646500   -0.884750
     11          1           0        2.133172    1.004660    0.885880
     12          1           0        2.133172    1.004660   -0.885880
     13          1           0        2.031222   -0.523190    0.000000
     14          1           0        0.095992    0.056790    2.133820
     15          1           0       -1.476368    0.220460    1.352170
     16          1           0       -1.476368    0.220460   -1.352170
     17          1           0        0.095992    0.056790   -2.133820
     18          1           0       -1.308368   -2.145640    1.192510
     19          1           0        0.445162   -2.124470    1.163320
     20          1           0        0.445162   -2.124470   -1.163320
     21          1           0       -1.308368   -2.145640   -1.192510
 ---------------------------------------------------------------------
 Rotational constants (GHZ):           3.8526478           2.1576940           2.0694204
 General basis read from cards:  (5D, 7F)
 There are   254 symmetry adapted cartesian basis functions of A'  symmetry.
 There are   201 symmetry adapted cartesian basis functions of A"  symmetry.
 There are   224 symmetry adapted basis functions of A'  symmetry.
 There are   182 symmetry adapted basis functions of A"  symmetry.
   406 basis functions,   609 primitive gaussians,   455 cartesian basis functions
    28 alpha electrons       28 beta electrons
       nuclear repulsion energy       332.4576003469 Hartrees.
 NAtoms=   21 NActive=   21 NUniq=   13 SFac= 2.61D+00 NAtFMM=   60 NAOKFM=F Big=F
 Integral buffers will be    131072 words long.
 Raffenetti 2 integral format.
 Two-electron integral symmetry is turned on.
 One-electron integrals computed using PRISM.
 NBasis=   406 RedAO= T EigKep=  1.01D-04  NBF=   224   182
 NBsUse=   406 1.00D-06 EigRej= -1.00D+00 NBFU=   224   182
 ExpMin= 7.42D-02 ExpMax= 7.32D+03 ExpMxC= 2.50D+02 IAcc=3 IRadAn=         5 AccDes= 0.00D+00
 Harris functional with IExCor=  402 and IRadAn=       5 diagonalized for initial guess.
 HarFok:  IExCor=  402 AccDes= 0.00D+00 IRadAn=         5 IDoV= 1 UseB2=F ITyADJ=14
 ICtDFT=  3500011 ScaDFX=  1.000000  1.000000  1.000000  1.000000
 FoFCou: FMM=F IPFlag=           0 FMFlag=      100000 FMFlg1=           0
         NFxFlg=           0 DoJE=T BraDBF=F KetDBF=T FulRan=T
         wScrn=  0.000000 ICntrl=       500 IOpCl=  0 I1Cent=   200000004 NGrid=           0
         NMat0=    1 NMatS0=      1 NMatT0=    0 NMatD0=    1 NMtDS0=    0 NMtDT0=    0
 Petite list used in FoFCou.
 Initial guess orbital symmetries:
       Occupied  (A') (A') (A') (A") (A') (A") (A') (A') (A') (A")
                 (A') (A') (A") (A') (A') (A') (A") (A') (A") (A')
                 (A") (A') (A') (A") (A') (A') (A") (A")
       Virtual   (A') (A') (A') (A") (A") (A') (A') (A') (A') (A")
                 (A") (A') (A") (A') (A") (A') (A') (A") (A') (A")
                 (A") (A') (A') (A") (A') (A') (A") (A') (A") (A')
                 (A") (A') (A') (A') (A") (A") (A') (A') (A") (A')
                 (A") (A') (A") (A') (A") (A') (A') (A") (A") (A')
                 (A') (A") (A') (A") (A') (A') (A') (A") (A') (A")
                 (A') (A') (A") (A') (A") (A') (A") (A') (A') (A")
                 (A") (A') (A') (A") (A') (A") (A") (A') (A') (A')
                 (A") (A') (A") (A") (A') (A") (A') (A") (A") (A')
                 (A') (A") (A') (A") (A") (A') (A") (A') (A') (A')
                 (A") (A") (A') (A') (A") (A') (A") (A') (A') (A")
                 (A') (A') (A") (A') (A') (A') (A") (A') (A") (A')
                 (A") (A') (A') (A") (A') (A") (A") (A') (A') (A")
                 (A') (A") (A') (A") (A') (A') (A") (A") (A') (A')
                 (A") (A") (A') (A") (A') (A') (A") (A") (A') (A')
                 (A") (A') (A") (A') (A') (A") (A") (A') (A') (A")
                 (A') (A') (A') (A') (A") (A") (A') (A') (A") (A")
                 (A') (A") (A') (A') (A") (A') (A") (A') (A') (A')
                 (A') (A") (A") (A') (A") (A') (A') (A") (A') (A")
                 (A') (A") (A') (A") (A") (A') (A') (A") (A') (A")
                 (A") (A') (A") (A') (A") (A') (A") (A') (A") (A')
                 (A") (A') (A") (A') (A") (A") (A') (A") (A') (A")
                 (A') (A") (A') (A') (A") (A") (A') (A") (A') (A")
                 (A') (A") (A') (A") (A') (A") (A') (A') (A") (A")
                 (A') (A") (A') (A') (A') (A") (A') (A") (A') (A")
                 (A') (A") (A') (A") (A') (A") (A") (A') (A') (A")
                 (A') (A') (A") (A') (A") (A') (A') (A") (A') (A")
                 (A') (A") (A') (A') (A') (A") (A') (A") (A") (A')
                 (A') (A") (A") (A') (A") (A') (A") (A") (A') (A")
                 (A') (A") (A') (A') (A') (A") (A") (A') (A') (A")
                 (A') (A") (A') (A") (A') (A") (A') (A') (A") (A")
                 (A') (A') (A") (A') (A') (A") (A') (A") (A') (A")
                 (A') (A") (A') (A") (A") (A") (A') (A') (A") (A')
                 (A') (A") (A') (A") (A') (A") (A') (A") (A') (A')
                 (A") (A") (A') (A") (A") (A') (A') (A') (A") (A')
                 (A") (A') (A') (A") (A') (A") (A') (A") (A') (A')
                 (A") (A") (A') (A') (A") (A") (A') (A") (A') (A")
                 (A") (A') (A") (A') (A") (A') (A') (A")
 The electronic state of the initial guess is 1-A'.
 Requested convergence on RMS density matrix=1.00D-08 within 128 cycles.
 Requested convergence on MAX density matrix=1.00D-06.
 Requested convergence on             energy=1.00D-06.
 No special actions if energy rises.
 Integral accuracy reduced to 1.0D-05 until final iterations.
 Initial convergence to 1.0D-05 achieved.  Increase integral accuracy.
 SCF Done:  E(RB3LYP) =  -275.292827763     A.U. after   12 cycles
            NFock= 12  Conv=0.23D-08     -V/T= 2.0052

 **********************************************************************

            Population analysis using the SCF Density.

 **********************************************************************

 Orbital symmetries:
       Occupied  (A') (A') (A") (A") (A') (A') (A') (A') (A') (A")
                 (A') (A') (A") (A') (A') (A') (A") (A') (A") (A')
                 (A") (A') (A") (A') (A') (A") (A') (A")
       Virtual   (A') (A') (A') (A") (A") (A') (A') (A') (A") (A")
                 (A') (A') (A") (A") (A') (A') (A') (A") (A') (A")
                 (A") (A') (A') (A") (A') (A') (A") (A') (A") (A')
                 (A") (A') (A') (A") (A') (A') (A') (A") (A") (A')
                 (A') (A") (A") (A') (A") (A') (A') (A') (A") (A")
                 (A") (A') (A') (A") (A') (A') (A') (A") (A') (A")
                 (A') (A') (A") (A') (A") (A') (A") (A') (A') (A")
                 (A") (A') (A") (A') (A") (A') (A") (A') (A') (A")
                 (A') (A') (A") (A") (A") (A') (A") (A') (A") (A')
                 (A') (A") (A') (A") (A") (A') (A") (A') (A') (A')
                 (A") (A") (A') (A') (A') (A") (A") (A') (A") (A')
                 (A') (A") (A') (A') (A') (A') (A") (A') (A") (A')
                 (A') (A") (A') (A') (A") (A") (A") (A') (A') (A")
                 (A') (A") (A') (A") (A') (A') (A") (A') (A") (A")
                 (A") (A') (A') (A") (A') (A') (A") (A') (A") (A')
                 (A") (A') (A") (A') (A') (A") (A") (A') (A') (A')
                 (A") (A') (A') (A') (A") (A") (A') (A') (A") (A")
                 (A') (A") (A') (A') (A") (A') (A") (A') (A') (A')
                 (A") (A') (A") (A') (A") (A') (A') (A") (A") (A')
                 (A') (A") (A') (A") (A") (A') (A') (A") (A') (A")
                 (A") (A') (A") (A') (A") (A') (A") (A') (A") (A')
                 (A") (A') (A") (A') (A") (A") (A") (A') (A') (A")
                 (A') (A") (A') (A") (A') (A") (A") (A') (A") (A')
                 (A') (A') (A") (A") (A') (A") (A') (A') (A") (A")
                 (A') (A") (A') (A') (A') (A") (A') (A") (A') (A")
                 (A') (A") (A') (A') (A") (A") (A") (A') (A") (A')
                 (A') (A') (A") (A') (A") (A') (A") (A') (A') (A")
                 (A') (A") (A') (A') (A') (A') (A") (A") (A") (A')
                 (A") (A') (A") (A') (A") (A') (A") (A') (A") (A")
                 (A') (A") (A') (A') (A") (A') (A") (A') (A') (A")
                 (A') (A") (A') (A") (A') (A") (A') (A") (A') (A')
                 (A") (A') (A") (A') (A') (A") (A') (A") (A') (A")
                 (A') (A") (A") (A') (A") (A") (A') (A") (A') (A')
                 (A') (A") (A') (A') (A") (A') (A") (A") (A') (A')
                 (A") (A") (A') (A") (A") (A') (A') (A') (A") (A')
                 (A") (A') (A') (A") (A') (A") (A") (A') (A') (A")
                 (A') (A") (A') (A') (A") (A") (A') (A") (A') (A")
                 (A") (A') (A") (A') (A") (A') (A') (A")
 The electronic state is 1-A'.
 Alpha  occ. eigenvalues --  -10.17779 -10.16262 -10.16243 -10.16036 -10.16036
 Alpha  occ. eigenvalues --  -10.15726 -10.15678  -0.84177  -0.75288  -0.70479
 Alpha  occ. eigenvalues --   -0.68266  -0.64636  -0.56382  -0.52886  -0.47316
 Alpha  occ. eigenvalues --   -0.46679  -0.43822  -0.42724  -0.40138  -0.39577
 Alpha  occ. eigenvalues --   -0.37519  -0.36196  -0.33593  -0.33547  -0.32006
 Alpha  occ. eigenvalues --   -0.31578  -0.31495  -0.30504
 Alpha virt. eigenvalues --    0.00771   0.03284   0.03412   0.04740   0.06064
 Alpha virt. eigenvalues --    0.06565   0.06807   0.07279   0.07996   0.10207
 Alpha virt. eigenvalues --    0.10774   0.11287   0.12078   0.12838   0.12937
 Alpha virt. eigenvalues --    0.13687   0.15268   0.15624   0.16526   0.18543
 Alpha virt. eigenvalues --    0.20357   0.20504   0.21075   0.22530   0.24686
 Alpha virt. eigenvalues --    0.25445   0.26303   0.26829   0.28423   0.29898
 Alpha virt. eigenvalues --    0.30455   0.30879   0.31710   0.32611   0.32995
 Alpha virt. eigenvalues --    0.33955   0.34562   0.34867   0.35881   0.35968
 Alpha virt. eigenvalues --    0.36847   0.36860   0.37265   0.37973   0.38391
 Alpha virt. eigenvalues --    0.38411   0.39635   0.40286   0.40756   0.41417
 Alpha virt. eigenvalues --    0.43081   0.43264   0.44384   0.47224   0.49297
 Alpha virt. eigenvalues --    0.51346   0.53810   0.55744   0.59340   0.62111
 Alpha virt. eigenvalues --    0.63132   0.64841   0.66895   0.70755   0.75614
 Alpha virt. eigenvalues --    0.79511   0.82857   0.84316   0.85413   0.85784
 Alpha virt. eigenvalues --    0.88572   0.89813   0.91362   0.91935   0.92370
 Alpha virt. eigenvalues --    0.92946   0.96547   0.98019   0.99990   1.00923
 Alpha virt. eigenvalues --    1.01401   1.02418   1.02844   1.02933   1.04056
 Alpha virt. eigenvalues --    1.04062   1.05266   1.06362   1.07909   1.08702
 Alpha virt. eigenvalues --    1.09490   1.10186   1.11037   1.11560   1.14558
 Alpha virt. eigenvalues --    1.15714   1.17378   1.18417   1.18653   1.21540
 Alpha virt. eigenvalues --    1.21856   1.24009   1.24439   1.27379   1.29621
 Alpha virt. eigenvalues --    1.29629   1.29995   1.33578   1.34064   1.34509
 Alpha virt. eigenvalues --    1.35655   1.37554   1.37992   1.39756   1.42338
 Alpha virt. eigenvalues --    1.44230   1.44471   1.46479   1.48194   1.49972
 Alpha virt. eigenvalues --    1.53599   1.54332   1.57485   1.58454   1.58880
 Alpha virt. eigenvalues --    1.62287   1.65185   1.65761   1.67803   1.67870
 Alpha virt. eigenvalues --    1.69959   1.73230   1.75427   1.75757   1.77322
 Alpha virt. eigenvalues --    1.78232   1.80603   1.82153   1.82207   1.85379
 Alpha virt. eigenvalues --    1.88300   1.88457   1.88957   1.92391   1.93790
 Alpha virt. eigenvalues --    1.94165   1.97604   1.99955   2.00054   2.02614
 Alpha virt. eigenvalues --    2.04648   2.09771   2.10749   2.11954   2.13773
 Alpha virt. eigenvalues --    2.13984   2.17230   2.21439   2.23993   2.28482
 Alpha virt. eigenvalues --    2.29699   2.29804   2.36046   2.41448   2.45119
 Alpha virt. eigenvalues --    2.47369   2.49283   2.53720   2.55734   2.57154
 Alpha virt. eigenvalues --    2.59271   2.60164   2.64839   2.69674   2.71346
 Alpha virt. eigenvalues --    2.89738   2.93200   2.99803   3.04088   3.05886
 Alpha virt. eigenvalues --    3.07183   3.07697   3.12956   3.13733   3.16336
 Alpha virt. eigenvalues --    3.17295   3.19576   3.21590   3.23595   3.23673
 Alpha virt. eigenvalues --    3.24532   3.28737   3.29401   3.29930   3.30797
 Alpha virt. eigenvalues --    3.37205   3.41148   3.42059   3.43671   3.44255
 Alpha virt. eigenvalues --    3.49191   3.49343   3.50434   3.53800   3.56219
 Alpha virt. eigenvalues --    3.58034   3.61148   3.62080   3.62689   3.64695
 Alpha virt. eigenvalues --    3.66935   3.69977   3.71505   3.74210   3.76613
 Alpha virt. eigenvalues --    3.78299   3.80618   3.81215   3.82131   3.85233
 Alpha virt. eigenvalues --    3.86159   3.86663   3.87784   3.89071   3.89893
 Alpha virt. eigenvalues --    3.90657   3.92687   3.93335   3.94353   3.95881
 Alpha virt. eigenvalues --    3.98356   3.99903   4.00401   4.03485   4.05193
 Alpha virt. eigenvalues --    4.06124   4.08283   4.13386   4.15315   4.17141
 Alpha virt. eigenvalues --    4.18839   4.19966   4.21263   4.22459   4.25052
 Alpha virt. eigenvalues --    4.26645   4.27124   4.28534   4.31164   4.31779
 Alpha virt. eigenvalues --    4.34071   4.35104   4.38035   4.40074   4.40173
 Alpha virt. eigenvalues --    4.41406   4.42117   4.43833   4.46128   4.46465
 Alpha virt. eigenvalues --    4.48099   4.48968   4.50502   4.52225   4.52355
 Alpha virt. eigenvalues --    4.56557   4.57618   4.58070   4.58380   4.58680
 Alpha virt. eigenvalues --    4.61728   4.62684   4.63305   4.65340   4.65558
 Alpha virt. eigenvalues --    4.66410   4.66411   4.67746   4.69630   4.70658
 Alpha virt. eigenvalues --    4.72788   4.73779   4.73987   4.74932   4.76266
 Alpha virt. eigenvalues --    4.76648   4.77821   4.80386   4.80747   4.81334
 Alpha virt. eigenvalues --    4.83747   4.84881   4.85898   4.86580   4.88442
 Alpha virt. eigenvalues --    4.89175   4.91111   4.93641   4.95081   4.97170
 Alpha virt. eigenvalues --    4.99592   5.01739   5.05698   5.06913   5.08901
 Alpha virt. eigenvalues --    5.09610   5.11871   5.15096   5.15270   5.16469
 Alpha virt. eigenvalues --    5.16751   5.19371   5.23635   5.24537   5.25930
 Alpha virt. eigenvalues --    5.27091   5.29752   5.30611   5.33265   5.37526
 Alpha virt. eigenvalues --    5.39684   5.41214   5.42334   5.42455   5.44146
 Alpha virt. eigenvalues --    5.46621   5.47170   5.48815   5.48899   5.50882
 Alpha virt. eigenvalues --    5.54041   5.56276   5.58039   5.61430   5.61742
 Alpha virt. eigenvalues --    5.67428   5.67671   5.71233   5.71679   5.74756
 Alpha virt. eigenvalues --    5.76854   5.77401   5.79109   5.80595   5.81227
 Alpha virt. eigenvalues --    5.82870   5.84493   5.86248   5.86681   5.88635
 Alpha virt. eigenvalues --    5.88760   5.90319   5.91797   5.91830   5.92916
 Alpha virt. eigenvalues --    5.96868   5.97994   5.98302   5.99703   6.00863
 Alpha virt. eigenvalues --    6.01527   6.03408   6.04839   6.06870   6.09528
 Alpha virt. eigenvalues --    6.11848   6.13853   6.15185   6.15973   6.21245
 Alpha virt. eigenvalues --    6.24768   6.25281   6.32694   6.50185   6.61796
 Alpha virt. eigenvalues --    7.21603   7.93843  10.09625
          Condensed to atoms (all electrons):
               1          2          3          4          5          6
     1  C    4.695059   0.312498  -0.059298  -0.069271  -0.069271   0.012685
     2  C    0.312498   5.037324   0.349798   0.340361   0.340361  -0.057998
     3  C   -0.059298   0.349798   4.665358  -0.064113  -0.064113  -0.003912
     4  C   -0.069271   0.340361  -0.064113   4.923109  -0.084501   0.306293
     5  C   -0.069271   0.340361  -0.064113  -0.084501   4.923109  -0.040064
     6  C    0.012685  -0.057998  -0.003912   0.306293  -0.040064   4.810411
     7  C    0.012685  -0.057998  -0.003912  -0.040064   0.306293   0.303478
     8  H    0.426802  -0.035657  -0.008507  -0.010984   0.013988   0.000122
     9  H    0.430537  -0.034973   0.013037  -0.013045  -0.013045   0.000058
    10  H    0.426802  -0.035657  -0.008507   0.013988  -0.010984  -0.001135
    11  H   -0.012025  -0.034482   0.430493  -0.010587   0.013585  -0.000668
    12  H   -0.012025  -0.034482   0.430493   0.013585  -0.010587  -0.001130
    13  H    0.014821  -0.019162   0.413647  -0.010583  -0.010583   0.001513
    14  H   -0.000551  -0.037450  -0.009806   0.440417   0.009801  -0.037739
    15  H   -0.005840  -0.044322   0.009926   0.452913  -0.010497  -0.052864
    16  H   -0.005840  -0.044322   0.009926  -0.010497   0.452913   0.007725
    17  H   -0.000551  -0.037450  -0.009806   0.009801   0.440417   0.009746
    18  H   -0.000622   0.011494  -0.000357  -0.038326   0.004880   0.443371
    19  H   -0.000594  -0.002385   0.001539  -0.039286   0.005551   0.442924
    20  H   -0.000594  -0.002385   0.001539   0.005551  -0.039286  -0.040888
    21  H   -0.000622   0.011494  -0.000357   0.004880  -0.038326  -0.037592
               7          8          9         10         11         12
     1  C    0.012685   0.426802   0.430537   0.426802  -0.012025  -0.012025
     2  C   -0.057998  -0.035657  -0.034973  -0.035657  -0.034482  -0.034482
     3  C   -0.003912  -0.008507   0.013037  -0.008507   0.430493   0.430493
     4  C   -0.040064  -0.010984  -0.013045   0.013988  -0.010587   0.013585
     5  C    0.306293   0.013988  -0.013045  -0.010984   0.013585  -0.010587
     6  C    0.303478   0.000122   0.000058  -0.001135  -0.000668  -0.001130
     7  C    4.810411  -0.001135   0.000058   0.000122  -0.001130  -0.000668
     8  H   -0.001135   0.635307  -0.025573  -0.027646   0.003927  -0.001275
     9  H    0.000058  -0.025573   0.635915  -0.025573  -0.000034  -0.000034
    10  H    0.000122  -0.027646  -0.025573   0.635307  -0.001275   0.003927
    11  H   -0.001130   0.003927  -0.000034  -0.001275   0.629237  -0.024547
    12  H   -0.000668  -0.001275  -0.000034   0.003927  -0.024547   0.629237
    13  H    0.001513   0.000060  -0.000417   0.000060  -0.025668  -0.025668
    14  H    0.009746   0.002732  -0.000435  -0.000543   0.003947  -0.000016
    15  H    0.007725  -0.001839   0.004733   0.000665   0.000063  -0.000526
    16  H   -0.052864   0.000665   0.004733  -0.001839  -0.000526   0.000063
    17  H   -0.037739  -0.000543  -0.000435   0.002732  -0.000016   0.003947
    18  H   -0.037592  -0.000015  -0.000130   0.000065  -0.000134   0.000093
    19  H   -0.040888  -0.000035  -0.000042   0.000057   0.000245   0.000097
    20  H    0.442924   0.000057  -0.000042  -0.000035   0.000097   0.000245
    21  H    0.443371   0.000065  -0.000130  -0.000015   0.000093  -0.000134
              13         14         15         16         17         18
     1  C    0.014821  -0.000551  -0.005840  -0.005840  -0.000551  -0.000622
     2  C   -0.019162  -0.037450  -0.044322  -0.044322  -0.037450   0.011494
     3  C    0.413647  -0.009806   0.009926   0.009926  -0.009806  -0.000357
     4  C   -0.010583   0.440417   0.452913  -0.010497   0.009801  -0.038326
     5  C   -0.010583   0.009801  -0.010497   0.452913   0.440417   0.004880
     6  C    0.001513  -0.037739  -0.052864   0.007725   0.009746   0.443371
     7  C    0.001513   0.009746   0.007725  -0.052864  -0.037739  -0.037592
     8  H    0.000060   0.002732  -0.001839   0.000665  -0.000543  -0.000015
     9  H   -0.000417  -0.000435   0.004733   0.004733  -0.000435  -0.000130
    10  H    0.000060  -0.000543   0.000665  -0.001839   0.002732   0.000065
    11  H   -0.025668   0.003947   0.000063  -0.000526  -0.000016  -0.000134
    12  H   -0.025668  -0.000016  -0.000526   0.000063   0.003947   0.000093
    13  H    0.634101  -0.000493  -0.000332  -0.000332  -0.000493   0.000286
    14  H   -0.000493   0.602941  -0.014756  -0.000743  -0.000315   0.000264
    15  H   -0.000332  -0.014756   0.614560   0.002943  -0.000743  -0.009090
    16  H   -0.000332  -0.000743   0.002943   0.614560  -0.014756   0.000310
    17  H   -0.000493  -0.000315  -0.000743  -0.014756   0.602941  -0.000280
    18  H    0.000286   0.000264  -0.009090   0.000310  -0.000280   0.616503
    19  H   -0.000979  -0.005413   0.006516  -0.000387  -0.000728  -0.019433
    20  H   -0.000979  -0.000728  -0.000387   0.006516  -0.005413   0.004340
    21  H    0.000286  -0.000280   0.000310  -0.009090   0.000264  -0.008512
              19         20         21
     1  C   -0.000594  -0.000594  -0.000622
     2  C   -0.002385  -0.002385   0.011494
     3  C    0.001539   0.001539  -0.000357
     4  C   -0.039286   0.005551   0.004880
     5  C    0.005551  -0.039286  -0.038326
     6  C    0.442924  -0.040888  -0.037592
     7  C   -0.040888   0.442924   0.443371
     8  H   -0.000035   0.000057   0.000065
     9  H   -0.000042  -0.000042  -0.000130
    10  H    0.000057  -0.000035  -0.000015
    11  H    0.000245   0.000097   0.000093
    12  H    0.000097   0.000245  -0.000134
    13  H   -0.000979  -0.000979   0.000286
    14  H   -0.005413  -0.000728  -0.000280
    15  H    0.006516  -0.000387   0.000310
    16  H   -0.000387   0.006516  -0.009090
    17  H   -0.000728  -0.005413   0.000264
    18  H   -0.019433   0.004340  -0.008512
    19  H    0.618364  -0.010523   0.004340
    20  H   -0.010523   0.618364  -0.019433
    21  H    0.004340  -0.019433   0.616503
 Mulliken charges:
               1
     1  C   -0.094785
     2  C    0.075391
     3  C   -0.093067
     4  C   -0.119641
     5  C   -0.119641
     6  C   -0.064337
     7  C   -0.064337
     8  H    0.029485
     9  H    0.024834
    10  H    0.029485
    11  H    0.029406
    12  H    0.029406
    13  H    0.029402
    14  H    0.039419
    15  H    0.040841
    16  H    0.040841
    17  H    0.039419
    18  H    0.032882
    19  H    0.041058
    20  H    0.041058
    21  H    0.032882
 Sum of Mulliken charges =  -0.00000
 Mulliken charges with hydrogens summed into heavy atoms:
               1
     1  C   -0.010981
     2  C    0.075391
     3  C   -0.004854
     4  C   -0.039381
     5  C   -0.039381
     6  C    0.009603
     7  C    0.009603
 Electronic spatial extent (au):  <R**2>=            800.1605
 Charge=             -0.0000 electrons
 Dipole moment (field-independent basis, Debye):
    X=             -0.0275    Y=             -0.0396    Z=              0.0000  Tot=              0.0482
 Quadrupole moment (field-independent basis, Debye-Ang):
   XX=            -47.0948   YY=            -48.3189   ZZ=            -47.7159
   XY=              0.0634   XZ=              0.0000   YZ=              0.0000
 Traceless Quadrupole moment (field-independent basis, Debye-Ang):
   XX=              0.6151   YY=             -0.6090   ZZ=             -0.0061
   XY=              0.0634   XZ=              0.0000   YZ=              0.0000
 Octapole moment (field-independent basis, Debye-Ang**2):
  XXX=             -4.1112  YYY=             -1.6635  ZZZ=              0.0000  XYY=              0.9095
  XXY=             -1.4440  XXZ=              0.0000  XZZ=              1.9087  YZZ=              1.2814
  YYZ=             -0.0000  XYZ=              0.0000
 Hexadecapole moment (field-independent basis, Debye-Ang**3):
 XXXX=           -288.1976 YYYY=           -591.7045 ZZZZ=           -287.8432 XXXY=            -42.7341
 XXXZ=             -0.0000 YYYX=            -40.8564 YYYZ=              0.0000 ZZZX=             -0.0000
 ZZZY=              0.0000 XXYY=           -139.9077 XXZZ=            -93.8953 YYZZ=           -143.4051
 XXYZ=              0.0000 YYXZ=             -0.0000 ZZXY=            -11.4675
 N-N= 3.324576003469D+02 E-N=-1.301905388471D+03  KE= 2.738601607220D+02
 Symmetry A'   KE= 1.910538422665D+02
 Symmetry A"   KE= 8.280631845552D+01
 Calling FoFJK, ICntrl=      2127 FMM=F ISym2X=1 I1Cent= 0 IOpClX= 0 NMat=1 NMatS=1 NMatT=0.
 ***** Axes restored to original set *****
 -------------------------------------------------------------------
 Center     Atomic                   Forces (Hartrees/Bohr)
 Number     Number              X              Y              Z
 -------------------------------------------------------------------
      1        6          -0.000535622    0.001213431    0.000000000
      2        6          -0.000258500    0.000110197    0.000000000
      3        6           0.001614074   -0.000195823   -0.000000000
      4        6          -0.000625998    0.000315459    0.000969192
      5        6          -0.000625998    0.000315459   -0.000969192
      6        6           0.000175143   -0.000895217    0.001018518
      7        6           0.000175143   -0.000895217   -0.001018518
      8        1          -0.001097464   -0.001707471   -0.002632289
      9        1           0.003336374   -0.000549842    0.000000000
     10        1          -0.001097464   -0.001707471    0.002632289
     11        1          -0.001511111   -0.001426692   -0.002645279
     12        1          -0.001511111   -0.001426692    0.002645279
     13        1          -0.001187670    0.003255637   -0.000000000
     14        1          -0.001455734   -0.000607768   -0.003051918
     15        1           0.003185888   -0.000974056   -0.000636864
     16        1           0.003185888   -0.000974056    0.000636864
     17        1          -0.001455734   -0.000607768    0.003051918
     18        1           0.002645399    0.001759177   -0.001455768
     19        1          -0.002800451    0.001619766   -0.001270648
     20        1          -0.002800451    0.001619766    0.001270648
     21        1           0.002645399    0.001759177    0.001455768
 -------------------------------------------------------------------
 Cartesian Forces:  Max     0.003336374 RMS     0.001664073

 GradGradGradGradGradGradGradGradGradGradGradGradGradGradGradGradGradGrad
 Berny optimization.
 FormGI is forming the generalized inverse of G from B-inverse, IUseBI=4.
 Internal  Forces:  Max     0.003489609 RMS     0.001294013
 Search for a local minimum.
 Step number   1 out of a maximum of  126
 All quantities printed in internal units (Hartrees-Bohrs-Radians)
 Mixed Optimization -- RFO/linear search
 Second derivative matrix not updated -- first step.
 ITU=  0
     Eigenvalues ---    0.00230   0.00255   0.00315   0.00410   0.01918
     Eigenvalues ---    0.02160   0.04009   0.04027   0.04111   0.04712
     Eigenvalues ---    0.04821   0.05059   0.05307   0.05400   0.05446
     Eigenvalues ---    0.05448   0.05448   0.05519   0.05551   0.07154
     Eigenvalues ---    0.07167   0.07170   0.07186   0.07313   0.08944
     Eigenvalues ---    0.09274   0.11330   0.12432   0.16000   0.16000
     Eigenvalues ---    0.16000   0.16000   0.16000   0.16000   0.16690
     Eigenvalues ---    0.20275   0.25496   0.26054   0.26882   0.27321
     Eigenvalues ---    0.27902   0.28389   0.29046   0.33851   0.33851
     Eigenvalues ---    0.33972   0.33972   0.34002   0.34002   0.34010
     Eigenvalues ---    0.34036   0.34036   0.34128   0.34158   0.34158
     Eigenvalues ---    0.34223   0.34223
 RFO step:  Lambda=-6.59993467D-04 EMin= 2.30000000D-03
 Linear search not attempted -- first point.
 Iteration  1 RMS(Cart)=  0.00795346 RMS(Int)=  0.00001960
 Iteration  2 RMS(Cart)=  0.00002667 RMS(Int)=  0.00000243
 Iteration  3 RMS(Cart)=  0.00000000 RMS(Int)=  0.00000243
 ClnCor:  largest displacement from symmetrization is 5.88D-10 for atom    20.
 Variable       Old X    -DE/DX   Delta X   Delta X   Delta X     New X
                                 (Linear)    (Quad)   (Total)
    R1        2.89907  -0.00281   0.00000  -0.00967  -0.00967   2.88940
    R2        2.07377  -0.00332   0.00000  -0.00975  -0.00975   2.06402
    R3        2.07313  -0.00338   0.00000  -0.00991  -0.00991   2.06322
    R4        2.07377  -0.00332   0.00000  -0.00975  -0.00975   2.06402
    R5        2.91296  -0.00260   0.00000  -0.00915  -0.00915   2.90381
    R6        2.92758  -0.00261   0.00000  -0.00916  -0.00917   2.91841
    R7        2.92758  -0.00261   0.00000  -0.00916  -0.00917   2.91841
    R8        2.07327  -0.00336   0.00000  -0.00986  -0.00986   2.06342
    R9        2.07327  -0.00336   0.00000  -0.00986  -0.00986   2.06342
   R10        2.07115  -0.00346   0.00000  -0.01013  -0.01013   2.06103
   R11        2.92314  -0.00258   0.00000  -0.00930  -0.00930   2.91384
   R12        2.07270  -0.00342   0.00000  -0.01004  -0.01004   2.06265
   R13        2.07582  -0.00339   0.00000  -0.00999  -0.00999   2.06583
   R14        2.92314  -0.00258   0.00000  -0.00930  -0.00930   2.91384
   R15        2.07582  -0.00339   0.00000  -0.00999  -0.00999   2.06583
   R16        2.07270  -0.00342   0.00000  -0.01004  -0.01004   2.06265
   R17        2.94635  -0.00241   0.00000  -0.00924  -0.00923   2.93712
   R18        2.06956  -0.00349   0.00000  -0.01018  -0.01018   2.05938
   R19        2.07064  -0.00348   0.00000  -0.01015  -0.01015   2.06048
   R20        2.07064  -0.00348   0.00000  -0.01015  -0.01015   2.06048
   R21        2.06956  -0.00349   0.00000  -0.01018  -0.01018   2.05938
    A1        1.94196  -0.00018   0.00000  -0.00116  -0.00116   1.94080
    A2        1.93995  -0.00016   0.00000  -0.00093  -0.00093   1.93903
    A3        1.94196  -0.00018   0.00000  -0.00116  -0.00116   1.94080
    A4        1.88075   0.00019   0.00000   0.00127   0.00127   1.88202
    A5        1.87551   0.00017   0.00000   0.00091   0.00090   1.87641
    A6        1.88075   0.00019   0.00000   0.00127   0.00127   1.88202
    A7        1.91024   0.00003   0.00000  -0.00004  -0.00004   1.91020
    A8        1.96153  -0.00000   0.00000  -0.00071  -0.00070   1.96083
    A9        1.96153  -0.00000   0.00000  -0.00071  -0.00070   1.96083
   A10        1.93070  -0.00001   0.00000  -0.00017  -0.00017   1.93053
   A11        1.93070  -0.00001   0.00000  -0.00017  -0.00017   1.93053
   A12        1.76582   0.00000   0.00000   0.00189   0.00188   1.76770
   A13        1.93492  -0.00022   0.00000  -0.00137  -0.00138   1.93354
   A14        1.93492  -0.00022   0.00000  -0.00137  -0.00138   1.93354
   A15        1.95746  -0.00012   0.00000  -0.00070  -0.00070   1.95675
   A16        1.87965   0.00022   0.00000   0.00125   0.00125   1.88090
   A17        1.87684   0.00019   0.00000   0.00121   0.00121   1.87805
   A18        1.87684   0.00019   0.00000   0.00121   0.00121   1.87805
   A19        1.84523   0.00006   0.00000   0.00154   0.00153   1.84675
   A20        1.96455  -0.00006   0.00000  -0.00151  -0.00151   1.96304
   A21        1.89974  -0.00013   0.00000  -0.00151  -0.00151   1.89823
   A22        1.97045  -0.00001   0.00000  -0.00058  -0.00057   1.96988
   A23        1.91772   0.00002   0.00000   0.00038   0.00039   1.91811
   A24        1.86572   0.00011   0.00000   0.00160   0.00160   1.86732
   A25        1.84523   0.00006   0.00000   0.00154   0.00153   1.84675
   A26        1.89974  -0.00013   0.00000  -0.00151  -0.00151   1.89823
   A27        1.96455  -0.00006   0.00000  -0.00151  -0.00151   1.96304
   A28        1.91772   0.00002   0.00000   0.00038   0.00039   1.91811
   A29        1.97045  -0.00001   0.00000  -0.00058  -0.00057   1.96988
   A30        1.86572   0.00011   0.00000   0.00160   0.00160   1.86732
   A31        1.84397  -0.00004   0.00000   0.00064   0.00063   1.84461
   A32        1.94575   0.00001   0.00000  -0.00049  -0.00049   1.94527
   A33        1.93331   0.00005   0.00000   0.00056   0.00056   1.93387
   A34        1.95741  -0.00004   0.00000  -0.00139  -0.00138   1.95603
   A35        1.92860  -0.00002   0.00000  -0.00026  -0.00026   1.92834
   A36        1.85639   0.00005   0.00000   0.00092   0.00092   1.85730
   A37        1.84397  -0.00004   0.00000   0.00064   0.00063   1.84461
   A38        1.93331   0.00005   0.00000   0.00056   0.00056   1.93387
   A39        1.94575   0.00001   0.00000  -0.00049  -0.00049   1.94527
   A40        1.92860  -0.00002   0.00000  -0.00026  -0.00026   1.92834
   A41        1.95741  -0.00004   0.00000  -0.00139  -0.00138   1.95603
   A42        1.85639   0.00005   0.00000   0.00092   0.00092   1.85730
    D1       -1.04543   0.00001   0.00000   0.00020   0.00020  -1.04523
    D2        1.10700   0.00001   0.00000  -0.00053  -0.00053   1.10647
    D3        3.08532   0.00001   0.00000   0.00094   0.00094   3.08626
    D4        3.14159  -0.00000   0.00000  -0.00000   0.00000   3.14159
    D5       -0.98916   0.00000   0.00000  -0.00074  -0.00073  -0.98990
    D6        0.98916  -0.00000   0.00000   0.00074   0.00073   0.98990
    D7        1.04543  -0.00001   0.00000  -0.00020  -0.00020   1.04523
    D8       -3.08532  -0.00001   0.00000  -0.00094  -0.00094  -3.08626
    D9       -1.10700  -0.00001   0.00000   0.00053   0.00053  -1.10647
   D10        1.04338  -0.00001   0.00000  -0.00011  -0.00011   1.04326
   D11       -1.04338   0.00001   0.00000   0.00011   0.00011  -1.04326
   D12        3.14159   0.00000   0.00000  -0.00000   0.00000   3.14159
   D13       -1.12717  -0.00001   0.00000   0.00092   0.00092  -1.12625
   D14        3.06926   0.00000   0.00000   0.00115   0.00115   3.07041
   D15        0.97104  -0.00000   0.00000   0.00104   0.00104   0.97208
   D16       -3.06926  -0.00000   0.00000  -0.00115  -0.00115  -3.07041
   D17        1.12717   0.00001   0.00000  -0.00092  -0.00092   1.12625
   D18       -0.97104   0.00000   0.00000  -0.00104  -0.00104  -0.97208
   D19        2.76548  -0.00005   0.00000  -0.00711  -0.00711   2.75837
   D20       -1.35893  -0.00006   0.00000  -0.00770  -0.00770  -1.36662
   D21        0.70614  -0.00004   0.00000  -0.00762  -0.00762   0.69853
   D22       -1.37676  -0.00003   0.00000  -0.00778  -0.00778  -1.38455
   D23        0.78202  -0.00004   0.00000  -0.00837  -0.00838   0.77364
   D24        2.84709  -0.00002   0.00000  -0.00830  -0.00830   2.83879
   D25        0.66965  -0.00005   0.00000  -0.00706  -0.00706   0.66259
   D26        2.82843  -0.00005   0.00000  -0.00765  -0.00765   2.82078
   D27       -1.38968  -0.00003   0.00000  -0.00757  -0.00757  -1.39726
   D28       -2.76548   0.00005   0.00000   0.00711   0.00711  -2.75837
   D29       -0.70614   0.00004   0.00000   0.00762   0.00762  -0.69853
   D30        1.35893   0.00006   0.00000   0.00770   0.00770   1.36662
   D31        1.37676   0.00003   0.00000   0.00778   0.00778   1.38455
   D32       -2.84709   0.00002   0.00000   0.00830   0.00830  -2.83879
   D33       -0.78202   0.00004   0.00000   0.00837   0.00838  -0.77364
   D34       -0.66965   0.00005   0.00000   0.00706   0.00706  -0.66259
   D35        1.38968   0.00003   0.00000   0.00757   0.00757   1.39726
   D36       -2.82843   0.00005   0.00000   0.00765   0.00765  -2.82078
   D37       -0.42166   0.00003   0.00000   0.00443   0.00444  -0.41722
   D38       -2.55234   0.00011   0.00000   0.00600   0.00600  -2.54634
   D39        1.66727   0.00001   0.00000   0.00480   0.00480   1.67207
   D40       -2.57671   0.00008   0.00000   0.00561   0.00561  -2.57109
   D41        1.57580   0.00015   0.00000   0.00718   0.00718   1.58297
   D42       -0.48778   0.00005   0.00000   0.00598   0.00598  -0.48180
   D43        1.62562  -0.00008   0.00000   0.00369   0.00369   1.62931
   D44       -0.50506  -0.00000   0.00000   0.00526   0.00526  -0.49981
   D45       -2.56864  -0.00010   0.00000   0.00406   0.00406  -2.56458
   D46        0.42166  -0.00003   0.00000  -0.00443  -0.00444   0.41722
   D47       -1.66727  -0.00001   0.00000  -0.00480  -0.00480  -1.67207
   D48        2.55234  -0.00011   0.00000  -0.00600  -0.00600   2.54634
   D49       -1.62562   0.00008   0.00000  -0.00369  -0.00369  -1.62931
   D50        2.56864   0.00010   0.00000  -0.00406  -0.00406   2.56458
   D51        0.50506   0.00000   0.00000  -0.00526  -0.00526   0.49981
   D52        2.57671  -0.00008   0.00000  -0.00561  -0.00561   2.57109
   D53        0.48778  -0.00005   0.00000  -0.00598  -0.00598   0.48180
   D54       -1.57580  -0.00015   0.00000  -0.00718  -0.00718  -1.58297
   D55       -0.00000   0.00000   0.00000  -0.00000   0.00000   0.00000
   D56        2.09202   0.00002   0.00000   0.00090   0.00090   2.09293
   D57       -2.12317   0.00004   0.00000   0.00099   0.00099  -2.12219
   D58        2.12317  -0.00004   0.00000  -0.00099  -0.00099   2.12219
   D59       -2.06799  -0.00002   0.00000  -0.00008  -0.00008  -2.06807
   D60        0.00000   0.00000   0.00000  -0.00000   0.00000   0.00000
   D61       -2.09202  -0.00002   0.00000  -0.00090  -0.00090  -2.09293
   D62       -0.00000  -0.00000   0.00000  -0.00000   0.00000   0.00000
   D63        2.06799   0.00002   0.00000   0.00008   0.00008   2.06807
         Item               Value     Threshold  Converged?
 Maximum Force            0.003490     0.000450     NO 
 RMS     Force            0.001294     0.000300     NO 
 Maximum Displacement     0.025056     0.001800     NO 
 RMS     Displacement     0.007956     0.001200     NO 
 Predicted change in Energy=-3.312234D-04
 GradGradGradGradGradGradGradGradGradGradGradGradGradGradGradGradGradGrad

                          Input orientation:                          
 ---------------------------------------------------------------------
 Center     Atomic      Atomic             Coordinates (Angstroms)
 Number     Number       Type             X           Y           Z
 ---------------------------------------------------------------------
      1          6           0       -0.228274    2.122322    0.000000
      2          6           0        0.166353    0.645119    0.000000
      3          6           0        1.698267    0.524842    0.000000
      4          6           0       -0.439394   -0.124488    1.194072
      5          6           0       -0.439394   -0.124488   -1.194072
      6          6           0       -0.446364   -1.608970    0.777127
      7          6           0       -0.446364   -1.608970   -0.777127
      8          1           0        0.163371    2.635770    0.880882
      9          1           0       -1.313817    2.239121    0.000000
     10          1           0        0.163371    2.635770   -0.880882
     11          1           0        2.124762    1.006842    0.882071
     12          1           0        2.124762    1.006842   -0.882071
     13          1           0        2.028491   -0.514614    0.000000
     14          1           0        0.104592    0.052406    2.123685
     15          1           0       -1.463936    0.222301    1.352562
     16          1           0       -1.463936    0.222301   -1.352562
     17          1           0        0.104592    0.052406   -2.123685
     18          1           0       -1.309078   -2.133987    1.186640
     19          1           0        0.436547   -2.122524    1.158727
     20          1           0        0.436547   -2.122524   -1.158727
     21          1           0       -1.309078   -2.133987   -1.186640
 ---------------------------------------------------------------------
                    Distance matrix (angstroms):
                    1          2          3          4          5
     1  C    0.000000
     2  C    1.529007   0.000000
     3  C    2.502699   1.536628   0.000000
     4  C    2.553143   1.544355   2.533186   0.000000
     5  C    2.553143   1.544355   2.533186   2.388145   0.000000
     6  C    3.817595   2.461760   3.123543   1.541939   2.467663
     7  C    3.817595   2.461760   3.123543   2.467663   1.541939
     8  H    1.092231   2.176845   2.754610   2.842612   3.505394
     9  H    1.091808   2.175258   3.465747   2.788740   2.788740
    10  H    1.092231   2.176845   2.754610   3.505394   2.842612
    11  H    2.749386   2.178132   1.091912   2.819956   3.487862
    12  H    2.749386   2.178132   1.091912   3.487862   2.819956
    13  H    3.470795   2.193749   1.090650   2.769198   2.769198
    14  H    2.984190   2.205711   2.696856   1.091509   3.366708
    15  H    2.639387   2.160102   3.452605   1.093192   2.766821
    16  H    2.639387   2.160102   3.452605   2.766821   1.093192
    17  H    2.984190   2.205711   2.696856   3.366708   1.091509
    18  H    4.548892   3.362803   4.185882   2.189633   3.234537
    19  H    4.450096   3.012557   3.153273   2.181896   3.208596
[...]
    12  H    0.000000   0.000000   0.000000   0.000000   0.000000   0.000000
    13  H    0.000000   0.000000   0.000000   0.000000   0.000000   0.000000
    14  H    0.000000   0.000000   0.000000   0.000000   0.000000   0.000000
    15  H    0.000000   0.000000   0.000000   0.000000   0.000000   0.000000
    16  H    0.000000   0.000000   0.000000   0.000000   0.000000   0.000000
    17  H    0.000000   0.000000   0.000000   0.000000   0.000000   0.000000
    18  H    0.000000   0.000000   0.000000   0.000000   0.000000   0.000000
    19  H    0.000000   0.000000   0.000000   0.000000   0.000000   0.000000
    20  H    0.000000   0.000000   0.000000   0.000000   0.000000   0.000000
    21  H    0.000000   0.000000   0.000000   0.000000   0.000000   0.000000
               7          8          9         10         11         12
     1  C    0.000000   0.000000   0.000000   0.000000   0.000000   0.000000
     2  C    0.000000   0.000000   0.000000   0.000000   0.000000   0.000000
     3  C    0.000000   0.000000   0.000000   0.000000   0.000000   0.000000
     4  C    0.000000   0.000000   0.000000   0.000000   0.000000   0.000000
     5  C    0.000000   0.000000   0.000000   0.000000   0.000000   0.000000
     6  C    0.000000   0.000000   0.000000   0.000000   0.000000   0.000000
     7  C    0.000000   0.000000   0.000000   0.000000   0.000000   0.000000
     8  H    0.000000   0.000000   0.000000   0.000000   0.000000   0.000000
     9  H    0.000000   0.000000   0.000000   0.000000   0.000000   0.000000
    10  H    0.000000   0.000000   0.000000   0.000000   0.000000   0.000000
    11  H    0.000000   0.000000   0.000000   0.000000   0.000000   0.000000
    12  H    0.000000   0.000000   0.000000   0.000000   0.000000   0.000000
    13  H    0.000000   0.000000   0.000000   0.000000   0.000000   0.000000
    14  H    0.000000   0.000000   0.000000   0.000000   0.000000   0.000000
    15  H    0.000000   0.000000   0.000000   0.000000   0.000000   0.000000
    16  H    0.000000   0.000000   0.000000   0.000000   0.000000   0.000000
    17  H    0.000000   0.000000   0.000000   0.000000   0.000000   0.000000
    18  H    0.000000   0.000000   0.000000   0.000000   0.000000   0.000000
    19  H    0.000000   0.000000   0.000000   0.000000   0.000000   0.000000
    20  H    0.000000   0.000000   0.000000   0.000000   0.000000   0.000000
    21  H    0.000000   0.000000   0.000000   0.000000   0.000000   0.000000
              13         14         15         16         17         18
     1  C    0.000000   0.000000   0.000000   0.000000   0.000000   0.000000
     2  C    0.000000   0.000000   0.000000   0.000000   0.000000   0.000000
     3  C    0.000000   0.000000   0.000000   0.000000   0.000000   0.000000
     4  C    0.000000   0.000000   0.000000   0.000000   0.000000   0.000000
     5  C    0.000000   0.000000   0.000000   0.000000   0.000000   0.000000
     6  C    0.000000   0.000000   0.000000   0.000000   0.000000   0.000000
     7  C    0.000000   0.000000   0.000000   0.000000   0.000000   0.000000
     8  H    0.000000   0.000000   0.000000   0.000000   0.000000   0.000000
     9  H    0.000000   0.000000   0.000000   0.000000   0.000000   0.000000
    10  H    0.000000   0.000000   0.000000   0.000000   0.000000   0.000000
    11  H    0.000000   0.000000   0.000000   0.000000   0.000000   0.000000
    12  H    0.000000   0.000000   0.000000   0.000000   0.000000   0.000000
    13  H    0.000000   0.000000   0.000000   0.000000   0.000000   0.000000
    14  H    0.000000   0.000000   0.000000   0.000000   0.000000   0.000000
    15  H    0.000000   0.000000   0.000000   0.000000   0.000000   0.000000
    16  H    0.000000   0.000000   0.000000   0.000000   0.000000   0.000000
    17  H    0.000000   0.000000   0.000000   0.000000   0.000000   0.000000
    18  H    0.000000   0.000000   0.000000   0.000000   0.000000   0.000000
    19  H    0.000000   0.000000   0.000000   0.000000   0.000000   0.000000
    20  H    0.000000   0.000000   0.000000   0.000000   0.000000   0.000000
    21  H    0.000000   0.000000   0.000000   0.000000   0.000000   0.000000
              19         20         21
     1  C    0.000000   0.000000   0.000000
     2  C    0.000000   0.000000   0.000000
     3  C    0.000000   0.000000   0.000000
     4  C    0.000000   0.000000   0.000000
     5  C    0.000000   0.000000   0.000000
     6  C    0.000000   0.000000   0.000000
     7  C    0.000000   0.000000   0.000000
     8  H    0.000000   0.000000   0.000000
     9  H    0.000000   0.000000   0.000000
    10  H    0.000000   0.000000   0.000000
    11  H    0.000000   0.000000   0.000000
    12  H    0.000000   0.000000   0.000000
    13  H    0.000000   0.000000   0.000000
    14  H    0.000000   0.000000   0.000000
    15  H    0.000000   0.000000   0.000000
    16  H    0.000000   0.000000   0.000000
    17  H    0.000000   0.000000   0.000000
    18  H    0.000000   0.000000   0.000000
    19  H    0.000000   0.000000   0.000000
    20  H    0.000000   0.000000   0.000000
    21  H    0.000000   0.000000   0.000000
 Mulliken charges and spin densities:
               1          2
     1  C   -0.354713   0.000000
     2  C    0.380227   0.000000
     3  C   -0.436023   0.000000
     4  C   -0.192503   0.000000
     5  C   -0.192503   0.000000
     6  C   -0.213474   0.000000
     7  C   -0.213474   0.000000
     8  H    0.102826   0.000000
     9  H    0.098637   0.000000
    10  H    0.102826   0.000000
    11  H    0.104430   0.000000
    12  H    0.104430   0.000000
    13  H    0.099620   0.000000
    14  H    0.060475   0.000000
    15  H    0.079761   0.000000
    16  H    0.079761   0.000000
    17  H    0.060475   0.000000
    18  H    0.082301   0.000000
    19  H    0.082310   0.000000
    20  H    0.082310   0.000000
    21  H    0.082301   0.000000
 Sum of Mulliken charges =  -0.00000   0.00000
 Mulliken charges and spin densities with hydrogens summed into heavy atoms:
               1          2
     1  C   -0.050423   0.000000
     2  C    0.380227   0.000000
     3  C   -0.127542   0.000000
     4  C   -0.052268   0.000000
     5  C   -0.052268   0.000000
     6  C   -0.048863   0.000000
     7  C   -0.048863   0.000000
 Electronic spatial extent (au):  <R**2>=            795.5900
 Charge=              0.0000 electrons
 Dipole moment (field-independent basis, Debye):
    X=             -0.0297    Y=             -0.0451    Z=              0.0000  Tot=              0.0540
 Quadrupole moment (field-independent basis, Debye-Ang):
   XX=            -46.8563   YY=            -48.1268   ZZ=            -47.4860
   XY=              0.0400   XZ=             -0.0000   YZ=             -0.0000
 Traceless Quadrupole moment (field-independent basis, Debye-Ang):
   XX=              0.6334   YY=             -0.6371   ZZ=              0.0037
   XY=              0.0400   XZ=             -0.0000   YZ=             -0.0000
 Octapole moment (field-independent basis, Debye-Ang**2):
  XXX=             -4.2025  YYY=             -1.6690  ZZZ=              0.0000  XYY=              1.0557
  XXY=             -1.3960  XXZ=             -0.0000  XZZ=              2.0080  YZZ=              1.3681
  YYZ=             -0.0000  XYZ=              0.0000
 Hexadecapole moment (field-independent basis, Debye-Ang**3):
 XXXX=           -280.0094 YYYY=           -580.7710 ZZZZ=           -280.2830 XXXY=            -42.2954
 XXXZ=              0.0000 YYYX=            -39.9695 YYYZ=             -0.0000 ZZZX=             -0.0000
 ZZZY=             -0.0000 XXYY=           -136.7376 XXZZ=            -91.2720 YYZZ=           -140.2319
 XXYZ=             -0.0000 YYXZ=             -0.0000 ZZXY=            -11.2070
 N-N= 3.335047672021D+02 E-N=-1.302459250740D+03  KE= 2.731116763630D+02
 Symmetry A'   KE= 1.906193476452D+02
 Symmetry A"   KE= 8.249232871778D+01
 Symmetry A'   SP= 0.000000000000D+00
 Symmetry A"   SP= 0.000000000000D+00
                          Isotropic Fermi Contact Couplings
        Atom                 a.u.       MegaHertz       Gauss      10(-4) cm-1
     1  C(13)              0.00000       0.00000       0.00000       0.00000
     2  C(13)              0.00000       0.00000       0.00000       0.00000
     3  C(13)              0.00000       0.00000       0.00000       0.00000
     4  C(13)              0.00000       0.00000       0.00000       0.00000
     5  C(13)              0.00000       0.00000       0.00000       0.00000
     6  C(13)              0.00000       0.00000       0.00000       0.00000
     7  C(13)              0.00000       0.00000       0.00000       0.00000
     8  H(1)               0.00000       0.00000       0.00000       0.00000
     9  H(1)               0.00000       0.00000       0.00000       0.00000
    10  H(1)               0.00000       0.00000       0.00000       0.00000
    11  H(1)               0.00000       0.00000       0.00000       0.00000
    12  H(1)               0.00000       0.00000       0.00000       0.00000
    13  H(1)               0.00000       0.00000       0.00000       0.00000
    14  H(1)               0.00000       0.00000       0.00000       0.00000
    15  H(1)               0.00000       0.00000       0.00000       0.00000
    16  H(1)               0.00000       0.00000       0.00000       0.00000
    17  H(1)               0.00000       0.00000       0.00000       0.00000
    18  H(1)               0.00000       0.00000       0.00000       0.00000
    19  H(1)               0.00000       0.00000       0.00000       0.00000
    20  H(1)               0.00000       0.00000       0.00000       0.00000
    21  H(1)               0.00000       0.00000       0.00000       0.00000
 --------------------------------------------------------
       Center         ----  Spin Dipole Couplings  ----
                      3XX-RR        3YY-RR        3ZZ-RR
 --------------------------------------------------------
     1   Atom        0.000000      0.000000      0.000000
     2   Atom        0.000000      0.000000      0.000000
     3   Atom        0.000000      0.000000      0.000000
     4   Atom        0.000000      0.000000      0.000000
     5   Atom        0.000000      0.000000      0.000000
     6   Atom        0.000000      0.000000      0.000000
     7   Atom        0.000000      0.000000      0.000000
     8   Atom        0.000000      0.000000      0.000000
     9   Atom        0.000000      0.000000      0.000000
    10   Atom        0.000000      0.000000      0.000000
    11   Atom        0.000000      0.000000      0.000000
    12   Atom        0.000000      0.000000      0.000000
    13   Atom        0.000000      0.000000      0.000000
    14   Atom        0.000000      0.000000      0.000000
    15   Atom        0.000000      0.000000      0.000000
    16   Atom        0.000000      0.000000      0.000000
    17   Atom        0.000000      0.000000      0.000000
    18   Atom        0.000000      0.000000      0.000000
    19   Atom        0.000000      0.000000      0.000000
    20   Atom        0.000000      0.000000      0.000000
    21   Atom        0.000000      0.000000      0.000000
 --------------------------------------------------------
                        XY            XZ            YZ
 --------------------------------------------------------
     1   Atom        0.000000      0.000000      0.000000
     2   Atom        0.000000      0.000000      0.000000
     3   Atom        0.000000      0.000000      0.000000
     4   Atom        0.000000      0.000000      0.000000
     5   Atom        0.000000      0.000000      0.000000
     6   Atom        0.000000      0.000000      0.000000
     7   Atom        0.000000      0.000000      0.000000
     8   Atom        0.000000      0.000000      0.000000
     9   Atom        0.000000      0.000000      0.000000
    10   Atom        0.000000      0.000000      0.000000
    11   Atom        0.000000      0.000000      0.000000
    12   Atom        0.000000      0.000000      0.000000
    13   Atom        0.000000      0.000000      0.000000
    14   Atom        0.000000      0.000000      0.000000
    15   Atom        0.000000      0.000000      0.000000
    16   Atom        0.000000      0.000000      0.000000
    17   Atom        0.000000      0.000000      0.000000
    18   Atom        0.000000      0.000000      0.000000
    19   Atom        0.000000      0.000000      0.000000
    20   Atom        0.000000      0.000000      0.000000
    21   Atom        0.000000      0.000000      0.000000
 --------------------------------------------------------


 ---------------------------------------------------------------------------------
              Anisotropic Spin Dipole Couplings in Principal Axis System
 ---------------------------------------------------------------------------------

       Atom             a.u.   MegaHertz   Gauss  10(-4) cm-1        Axes

              Baa     0.0000     0.000     0.000     0.000  1.0000  0.0000  0.0000
     1 C(13)  Bbb     0.0000     0.000     0.000     0.000 -0.0000  1.0000  0.0000
              Bcc     0.0000     0.000     0.000     0.000  0.0000  0.0000  1.0000
 
              Baa     0.0000     0.000     0.000     0.000  1.0000  0.0000  0.0000
     2 C(13)  Bbb     0.0000     0.000     0.000     0.000 -0.0000  1.0000  0.0000
              Bcc     0.0000     0.000     0.000     0.000  0.0000  0.0000  1.0000
 
              Baa     0.0000     0.000     0.000     0.000  1.0000  0.0000  0.0000
     3 C(13)  Bbb     0.0000     0.000     0.000     0.000 -0.0000  1.0000  0.0000
              Bcc     0.0000     0.000     0.000     0.000  0.0000  0.0000  1.0000
 
              Baa     0.0000     0.000     0.000     0.000  1.0000  0.0000  0.0000
     4 C(13)  Bbb     0.0000     0.000     0.000     0.000 -0.0000  1.0000  0.0000
              Bcc     0.0000     0.000     0.000     0.000  0.0000  0.0000  1.0000
 
              Baa     0.0000     0.000     0.000     0.000  1.0000  0.0000  0.0000
     5 C(13)  Bbb     0.0000     0.000     0.000     0.000 -0.0000  1.0000  0.0000
              Bcc     0.0000     0.000     0.000     0.000  0.0000  0.0000  1.0000
 
              Baa     0.0000     0.000     0.000     0.000  1.0000  0.0000  0.0000
     6 C(13)  Bbb     0.0000     0.000     0.000     0.000 -0.0000  1.0000  0.0000
              Bcc     0.0000     0.000     0.000     0.000  0.0000  0.0000  1.0000
 
              Baa     0.0000     0.000     0.000     0.000  1.0000  0.0000  0.0000
     7 C(13)  Bbb     0.0000     0.000     0.000     0.000 -0.0000  1.0000  0.0000
              Bcc     0.0000     0.000     0.000     0.000  0.0000  0.0000  1.0000
 
              Baa     0.0000     0.000     0.000     0.000  1.0000  0.0000  0.0000
     8 H(1)   Bbb     0.0000     0.000     0.000     0.000 -0.0000  1.0000  0.0000
              Bcc     0.0000     0.000     0.000     0.000  0.0000  0.0000  1.0000
 
              Baa     0.0000     0.000     0.000     0.000  1.0000  0.0000  0.0000
     9 H(1)   Bbb     0.0000     0.000     0.000     0.000 -0.0000  1.0000  0.0000
              Bcc     0.0000     0.000     0.000     0.000  0.0000  0.0000  1.0000
 
              Baa     0.0000     0.000     0.000     0.000  1.0000  0.0000  0.0000
    10 H(1)   Bbb     0.0000     0.000     0.000     0.000 -0.0000  1.0000  0.0000
              Bcc     0.0000     0.000     0.000     0.000  0.0000  0.0000  1.0000
 
              Baa     0.0000     0.000     0.000     0.000  1.0000  0.0000  0.0000
    11 H(1)   Bbb     0.0000     0.000     0.000     0.000 -0.0000  1.0000  0.0000
              Bcc     0.0000     0.000     0.000     0.000  0.0000  0.0000  1.0000
 
              Baa     0.0000     0.000     0.000     0.000  1.0000  0.0000  0.0000
    12 H(1)   Bbb     0.0000     0.000     0.000     0.000 -0.0000  1.0000  0.0000
              Bcc     0.0000     0.000     0.000     0.000  0.0000  0.0000  1.0000
 
              Baa     0.0000     0.000     0.000     0.000  1.0000  0.0000  0.0000
    13 H(1)   Bbb     0.0000     0.000     0.000     0.000 -0.0000  1.0000  0.0000
              Bcc     0.0000     0.000     0.000     0.000  0.0000  0.0000  1.0000
 
              Baa     0.0000     0.000     0.000     0.000  1.0000  0.0000  0.0000
    14 H(1)   Bbb     0.0000     0.000     0.000     0.000 -0.0000  1.0000  0.0000
              Bcc     0.0000     0.000     0.000     0.000  0.0000  0.0000  1.0000
 
              Baa     0.0000     0.000     0.000     0.000  1.0000  0.0000  0.0000
    15 H(1)   Bbb     0.0000     0.000     0.000     0.000 -0.0000  1.0000  0.0000
              Bcc     0.0000     0.000     0.000     0.000  0.0000  0.0000  1.0000
 
              Baa     0.0000     0.000     0.000     0.000  1.0000  0.0000  0.0000
    16 H(1)   Bbb     0.0000     0.000     0.000     0.000 -0.0000  1.0000  0.0000
              Bcc     0.0000     0.000     0.000     0.000  0.0000  0.0000  1.0000
 
              Baa     0.0000     0.000     0.000     0.000  1.0000  0.0000  0.0000
    17 H(1)   Bbb     0.0000     0.000     0.000     0.000 -0.0000  1.0000  0.0000
              Bcc     0.0000     0.000     0.000     0.000  0.0000  0.0000  1.0000
 
              Baa     0.0000     0.000     0.000     0.000  1.0000  0.0000  0.0000
    18 H(1)   Bbb     0.0000     0.000     0.000     0.000 -0.0000  1.0000  0.0000
              Bcc     0.0000     0.000     0.000     0.000  0.0000  0.0000  1.0000
 
              Baa     0.0000     0.000     0.000     0.000  1.0000  0.0000  0.0000
    19 H(1)   Bbb     0.0000     0.000     0.000     0.000 -0.0000  1.0000  0.0000
              Bcc     0.0000     0.000     0.000     0.000  0.0000  0.0000  1.0000
 
              Baa     0.0000     0.000     0.000     0.000  1.0000  0.0000  0.0000
    20 H(1)   Bbb     0.0000     0.000     0.000     0.000 -0.0000  1.0000  0.0000
              Bcc     0.0000     0.000     0.000     0.000  0.0000  0.0000  1.0000
 
              Baa     0.0000     0.000     0.000     0.000  1.0000  0.0000  0.0000
    21 H(1)   Bbb     0.0000     0.000     0.000     0.000 -0.0000  1.0000  0.0000
              Bcc     0.0000     0.000     0.000     0.000  0.0000  0.0000  1.0000
 

 ---------------------------------------------------------------------------------

 1\1\GINC-GAMBA\SP\ROHF\Gen\C7H14\IRIKURA\07-Dec-2023\0\\# rohf/gen geo
 m=check guess=check\\1,1-dimethylcyclopentane, ROHF/cc-pVTZ-F12\\0,1\C
 ,0,-0.2282315245,2.1236617945,0.\C,0,0.1659697824,0.6456332692,0.\C,0,
 1.6985280766,0.5240663537,0.\C,0,-0.440269545,-0.1243831512,1.19443590
 57\C,0,-0.440269545,-0.1243831512,-1.1944359057\C,0,-0.4457427476,-1.6
 092412506,0.7774753771\C,0,-0.4457427476,-1.6092412506,-0.7774753771\H
 ,0,0.1635976698,2.6370360817,0.8808012377\H,0,-1.3136468877,2.24084016
 07,0.\H,0,0.1635976698,2.6370360817,-0.8808012377\H,0,2.125422646,1.00
 55735854,0.8820685302\H,0,2.125422646,1.0055735854,-0.8820685302\H,0,2
 .027563347,-0.5157580661,0.\H,0,0.1037595694,0.0532033112,2.123851287\
 H,0,-1.4649492496,0.2216012837,1.3530835643\H,0,-1.4649492496,0.221601
 2837,-1.3530835643\H,0,0.1037595694,0.0532033112,-2.123851287\H,0,-1.3
 081774316,-2.1349852902,1.1865794363\H,0,0.4372776919,-2.122281326,1.1
 593264392\H,0,0.4372776919,-2.122281326,-1.1593264392\H,0,-1.308177431
 6,-2.1349852902,-1.1865794363\\Version=ES64L-G16RevB.01\State=1-A'\HF=
 -273.339681\RMSD=3.075e-09\Dipole=-0.0117672,-0.0176837,0.\Quadrupole=
 0.4711165,-0.4738523,0.0027358,0.0262778,0.,0.\PG=CS [SG(C3H2),X(C4H12
 )]\\@


 I FIND THAT THE THREE TRULY GREAT TIMES FOR THINKING THOUGHTS
 ARE WHEN I AM STANDING IN THE SHOWER, SITTING ON THE JOHN, OR WALKING.

                                    -- COLIN FLETCHER
 Job cpu time:       0 days  0 hours 49 minutes 16.5 seconds.
 Elapsed time:       0 days  0 hours  6 minutes  9.9 seconds.
 File lengths (MBytes):  RWF=    276 Int=      0 D2E=      0 Chk=     33 Scr=      1
 Normal termination of Gaussian 16 at Thu Dec  7 11:50:18 2023.
