 Entering Gaussian System, Link 0=g16
 AtFile(1): pcseg2.gbs
            -H     0
            S   4   1.00
                  0.754732D+02           0.427821D-02
                  0.113575D+02           0.328672D-01
                  0.260081D+01           0.159578D+00
                  0.735503D+00           0.500000D+00
            S   1   1.00
                  0.231761D+00           1.0000000
            S   1   1.00
                  0.741675D-01           1.0000000
            P   1   1.00
                  0.160000D+01           1.0000000
            P   1   1.00
                  0.450000D+00           1.0000000
            D   1   1.00
                  0.125000D+01           1.0000000
            ****
            -C     0
            S   7   1.00
                  0.731999D+04           0.695369D-03
                  0.109818D+04           0.537138D-02
                  0.250014D+03           0.274734D-01
                  0.707586D+02           0.105078D+00
                  0.228595D+02           0.291262D+00
                  0.803936D+01           0.500000D+00
                  0.289309D+01           0.362224D+00
            S   2   1.00
                  0.521640D+01          -0.957844D-01
                  0.556124D+00           0.500000D+00
            S   1   1.00
                  0.228813D+00           1.0000000
            S   1   1.00
                  0.936338D-01           1.0000000
            P   4   1.00
                  0.339855D+02           0.818395D-02
                  0.772957D+01           0.586921D-01
                  0.224954D+01           0.222514D+00
                  0.767681D+00           0.500000D+00
            P   1   1.00
                  0.263283D+00           1.0000000
            P   1   1.00
                  0.848744D-01           1.0000000
            D   1   1.00
                  0.140000D+01           1.0000000
            D   1   1.00
                  0.450000D+00           1.0000000
            F   1   1.00
                  0.950000D+00           1.0000000
            ****
            -O     0
            S   7   1.00
                  0.135887D+05           0.665492D-03
                  0.203847D+04           0.514222D-02
                  0.464041D+03           0.263472D-01
                  0.131339D+03           0.101500D+00
                  0.425340D+02           0.285877D+00
                  0.150429D+02           0.500000D+00
                  0.546616D+01           0.368211D+00
            S   2   1.00
                  0.100915D+02          -0.100084D+00
                  0.110429D+01           0.500000D+00
            S   1   1.00
                  0.448082D+00           1.0000000
            S   1   1.00
                  0.175325D+00           1.0000000
            P   4   1.00
                  0.608220D+02           0.908253D-02
                  0.140332D+02           0.645878D-01
                  0.418244D+01           0.241502D+00
                  0.142490D+01           0.500000D+00
            P   1   1.00
                  0.478741D+00           1.0000000
            P   1   1.00
                  0.146257D+00           1.0000000
            D   1   1.00
                  0.220000D+01           1.0000000
            D   1   1.00
                  0.650000D+00           1.0000000
            F   1   1.00
                  0.110000D+01           1.0000000
            ****
            -N     0
            S   7   1.00
                  0.101643D+05           0.682757D-03
                  0.152481D+04           0.527488D-02
                  0.347119D+03           0.270037D-01
                  0.982389D+02           0.103673D+00
                  0.317799D+02           0.289575D+00
                  0.112240D+02           0.500000D+00
                  0.406611D+01           0.364621D+00
            S   2   1.00
                  0.747898D+01          -0.975681D-01
                  0.805040D+00           0.500000D+00
            S   1   1.00
                  0.324626D+00           1.0000000
            S   1   1.00
                  0.128132D+00           1.0000000
            P   4   1.00
                  0.482704D+02           0.829547D-02
                  0.110815D+02           0.596223D-01
                  0.326643D+01           0.227889D+00
                  0.111680D+01           0.500000D+00
            P   1   1.00
                  0.382049D+00           1.0000000
            P   1   1.00
                  0.121222D+00           1.0000000
            D   1   1.00
                  0.180000D+01           1.0000000
            D   1   1.00
                  0.550000D+00           1.0000000
            F   1   1.00
                  0.102000D+01           1.0000000
            ****
            -F     0
            S   7   1.00
                  0.174507D+05           0.655972D-03
                  0.261768D+04           0.506944D-02
                  0.595857D+03           0.259899D-01
                  0.168651D+03           0.100353D+00
                  0.546654D+02           0.284095D+00
                  0.193717D+02           0.500000D+00
                  0.706202D+01           0.370721D+00
            S   2   1.00
                  0.131197D+02          -0.101997D+00
                  0.145046D+01           0.500000D+00
            S   1   1.00
                  0.588255D+00           1.0000000
            S   1   1.00
                  0.227960D+00           1.0000000
            P   4   1.00
                  0.779407D+02           0.931135D-02
                  0.180425D+02           0.663964D-01
                  0.542342D+01           0.246386D+00
                  0.184876D+01           0.500000D+00
            P   1   1.00
                  0.617455D+00           1.0000000
            P   1   1.00
                  0.185496D+00           1.0000000
            D   1   1.00
                  0.280000D+01           1.0000000
            D   1   1.00
                  0.800000D+00           1.0000000
            F   1   1.00
                  0.120000D+01           1.0000000
            ****
            -Cl     0
            S   8   1.00
                  0.154272D+06           0.222473D-03
                  0.231232D+05           0.172590D-02
                  0.526257D+04           0.899286D-02
                  0.148995D+04           0.367724D-01
                  0.485417D+03           0.121446D+00
                  0.174634D+03           0.304148D+00
                  0.672393D+02           0.500000D+00
                  0.265780D+02           0.360252D+00
            S   3   1.00
                  0.131826D+03          -0.531330D-01
                  0.400703D+02          -0.233346D+00
                  0.789448D+01           0.500000D+00
            S   2   1.00
                  0.427711D+01           0.500000D+00
                  0.196233D+01           0.370517D+00
            S   1   1.00
                  0.520793D+00           1.0000000
            S   1   1.00
                  0.181633D+00           1.0000000
            P   7   1.00
                  0.124440D+04           0.988206D-03
                  0.295109D+03           0.829674D-02
                  0.947224D+02           0.430906D-01
                  0.352588D+02           0.148443D+00
                  0.144211D+02           0.344744D+00
                  0.610371D+01           0.500000D+00
                  0.258886D+01           0.348278D+00
            P   2   1.00
                  0.109447D+02          -0.196768D-01
                  0.104413D+01           0.500000D+00
            P   1   1.00
                  0.376184D+00           1.0000000
            P   1   1.00
                  0.120613D+00           1.0000000
            D   1   1.00
                  0.231000D+01           1.0000000
            D   1   1.00
                  0.520000D+00           1.0000000
            F   1   1.00
                  0.720000D+00           1.0000000
            ****
            -S     0
            S   8   1.00
                  0.134700D+06           0.226231D-03
                  0.201904D+05           0.175488D-02
                  0.459528D+04           0.914190D-02
                  0.130109D+04           0.373551D-01
                  0.423902D+03           0.123121D+00
                  0.152485D+03           0.306801D+00
                  0.586925D+02           0.500000D+00
                  0.231461D+02           0.354358D+00
            S   3   1.00
                  0.116327D+03          -0.491772D-01
                  0.352841D+02          -0.215962D+00
                  0.677831D+01           0.500000D+00
            S   2   1.00
                  0.360404D+01           0.500000D+00
                  0.164871D+01           0.366278D+00
            S   1   1.00
                  0.421821D+00           1.0000000
            S   1   1.00
                  0.147554D+00           1.0000000
            P   7   1.00
                  0.104863D+04           0.105273D-02
                  0.248717D+03           0.879338D-02
                  0.797887D+02           0.453358D-01
                  0.296023D+02           0.154476D+00
                  0.120627D+02           0.352366D+00
                  0.507628D+01           0.500000D+00
                  0.213375D+01           0.346429D+00
            P   2   1.00
                  0.928958D+01          -0.185932D-01
                  0.837819D+00           0.500000D+00
            P   1   1.00
                  0.301495D+00           1.0000000
            P   1   1.00
                  0.974740D-01           1.0000000
            D   1   1.00
                  0.210000D+01           1.0000000
            D   1   1.00
                  0.480000D+00           1.0000000
            F   1   1.00
                  0.660000D+00           1.0000000
            ****
            -Br     0
            S    10   1.00
                  0.233625D+07           0.532336D-04
                  0.349961D+06           0.413715D-03
                  0.796444D+05           0.217123D-02
                  0.225555D+05           0.910109D-02
                  0.735546D+04           0.323789D-01
                  0.265352D+04           0.988755D-01
                  0.103517D+04           0.248138D+00
                  0.422205D+03           0.474328D+00
                  0.180035D+03           0.500000D+00
                  0.793308D+02           0.187769D+00
            S    4   1.00
                  0.620834D+03          -0.226511D-01
                  0.190829D+03          -0.109497D+00
                  0.312505D+02           0.500000D+00
                  0.135270D+02           0.492812D+00
            S    2   1.00
                  0.216097D+02          -0.165418D+00
                  0.372566D+01           0.500000D+00
            S    1   1.00
                  0.169770D+01           1.0000000
            S    1   1.00
                  0.489332D+00           1.0000000
            S    1   1.00
                  0.175712D+00           1.0000000
            P    8   1.00
                  0.960829D+04           0.478974D-03
                  0.227618D+04           0.417853D-02
                  0.736723D+03           0.229315D-01
                  0.281579D+03           0.892653D-01
                  0.118395D+03           0.255288D+00
                  0.527481D+02           0.479074D+00
                  0.245098D+02           0.500000D+00
                  0.112009D+02           0.200944D+00
            P    4   1.00
                  0.587849D+02          -0.189674D-01
                  0.918962D+01           0.264104D+00
                  0.413895D+01           0.500000D+00
                  0.184225D+01           0.319316D+00
            P    1   1.00
                  0.713862D+00           1.0000000
            P    1   1.00
                  0.274232D+00           1.0000000
            P    1   1.00
                  0.944411D-01           1.0000000
            D    7   1.00
                  0.398470D+03           0.204066D-02
                  0.118967D+03           0.175171D-01
                  0.450197D+02           0.829708D-01
                  0.190320D+02           0.236284D+00
                  0.855686D+01           0.428468D+00
                  0.382950D+01           0.500000D+00
                  0.166291D+01           0.349360D+00
            D    1   1.00
                  0.672953D+00           1.0000000
            D    1   1.00
                  0.252000D+00           1.0000000
            F    1   1.00
                  0.530000D+00           1.0000000
            ****
            -Si     0
            S    8   1.00
                  0.996133D+05           0.235546D-03
                  0.149311D+05           0.182707D-02
                  0.339820D+04           0.951425D-02
                  0.962140D+03           0.388172D-01
                  0.313430D+03           0.127328D+00
                  0.112683D+03           0.313522D+00
                  0.433372D+02           0.500000D+00
                  0.170029D+02           0.340347D+00
            S    3   1.00
                  0.884208D+02          -0.404451D-01
                  0.266756D+02          -0.178059D+00
                  0.479640D+01           0.500000D+00
            S    2   1.00
                  0.239385D+01           0.500000D+00
                  0.108333D+01           0.338016D+00
            S    1   1.00
                  0.252420D+00           1.0000000
            S    1   1.00
                  0.891210D-01           1.0000000
            P    7   1.00
                  0.709901D+03           0.123028D-02
                  0.168426D+03           0.101366D-01
                  0.539946D+02           0.511840D-01
                  0.198646D+02           0.169967D+00
                  0.801369D+01           0.370717D+00
                  0.331870D+01           0.500000D+00
                  0.136112D+01           0.344128D+00
            P    2   1.00
                  0.622158D+01          -0.166609D-01
                  0.503049D+00           0.500000D+00
            P    1   1.00
                  0.179848D+00           1.0000000
            P    1   1.00
                  0.591912D-01           1.0000000
            D    1   1.00
                  0.168000D+01           1.0000000
            D    1   1.00
                  0.380000D+00           1.0000000
            F    1   1.00
                  0.540000D+00           1.0000000
            ****
            -P     0
            S    8   1.00
                  0.116416D+06           0.230715D-03
                  0.174500D+05           0.178960D-02
                  0.397149D+04           0.932116D-02
                  0.112447D+04           0.380591D-01
                  0.366347D+03           0.125148D+00
                  0.131757D+03           0.310022D+00
                  0.506988D+02           0.500000D+00
                  0.199436D+02           0.347528D+00
            S    3   1.00
                  0.101878D+03          -0.446755D-01
                  0.308249D+02          -0.196376D+00
                  0.573688D+01           0.500000D+00
            S    2   1.00
                  0.296868D+01           0.500000D+00
                  0.135315D+01           0.355098D+00
            S    1   1.00
                  0.332196D+00           1.0000000
            S    1   1.00
                  0.116229D+00           1.0000000
            P    7   1.00
                  0.873928D+03           0.112375D-02
                  0.207298D+03           0.933330D-02
                  0.664628D+02           0.477213D-01
                  0.245665D+02           0.160733D+00
                  0.996820D+01           0.359760D+00
                  0.416536D+01           0.500000D+00
                  0.173022D+01           0.346593D+00
            P    2   1.00
                  0.772530D+01          -0.175718D-01
                  0.657252D+00           0.500000D+00
            P    1   1.00
                  0.239903D+00           1.0000000
            P    1   1.00
                  0.800988D-01           1.0000000
            D    1   1.00
                  0.189000D+01           1.0000000
            D    1   1.00
                  0.430000D+00           1.0000000
            F    1   1.00
                  0.600000D+00           1.0000000
            ****
            
 Initial command:
 /usr/local/apps/g16_b01_avx/g16/l1.exe "/wrk/irikura/Gau-3974004.inp" -scrdir="/wrk/irikura/"
 Entering Link 1 = /usr/local/apps/g16_b01_avx/g16/l1.exe PID=   3974006.
  
 Copyright (c) 1988-2017, Gaussian, Inc.  All Rights Reserved.
  
 This is part of the Gaussian(R) 16 program.  It is based on
 the Gaussian(R) 09 system (copyright 2009, Gaussian, Inc.),
 the Gaussian(R) 03 system (copyright 2003, Gaussian, Inc.),
 the Gaussian(R) 98 system (copyright 1998, Gaussian, Inc.),
 the Gaussian(R) 94 system (copyright 1995, Gaussian, Inc.),
 the Gaussian 92(TM) system (copyright 1992, Gaussian, Inc.),
 the Gaussian 90(TM) system (copyright 1990, Gaussian, Inc.),
 the Gaussian 88(TM) system (copyright 1988, Gaussian, Inc.),
 the Gaussian 86(TM) system (copyright 1986, Carnegie Mellon
 University), and the Gaussian 82(TM) system (copyright 1983,
 Carnegie Mellon University). Gaussian is a federally registered
 trademark of Gaussian, Inc.
  
 This software contains proprietary and confidential information,
 including trade secrets, belonging to Gaussian, Inc.
  
 This software is provided under written license and may be
 used, copied, transmitted, or stored only in accord with that
 written license.
  
 The following legend is applicable only to US Government
 contracts under FAR:
  
                    RESTRICTED RIGHTS LEGEND
  
 Use, reproduction and disclosure by the US Government is
 subject to restrictions as set forth in subparagraphs (a)
 and (c) of the Commercial Computer Software - Restricted
 Rights clause in FAR 52.227-19.
  
 Gaussian, Inc.
 340 Quinnipiac St., Bldg. 40, Wallingford CT 06492
  
  
 ---------------------------------------------------------------
 Warning -- This program may not be used in any manner that
 competes with the business of Gaussian, Inc. or will provide
 assistance to any competitor of Gaussian, Inc.  The licensee
 of this program is prohibited from giving any competitor of
 Gaussian, Inc. access to this program.  By using this program,
 the user acknowledges that Gaussian, Inc. is engaged in the
 business of creating and licensing software in the field of
 computational chemistry and represents and warrants to the
 licensee that it is not a competitor of Gaussian, Inc. and that
 it will not use this program in any manner prohibited above.
 ---------------------------------------------------------------
  

 Cite this work as:
 Gaussian 16, Revision B.01,
 M. J. Frisch, G. W. Trucks, H. B. Schlegel, G. E. Scuseria, 
 M. A. Robb, J. R. Cheeseman, G. Scalmani, V. Barone, 
 G. A. Petersson, H. Nakatsuji, X. Li, M. Caricato, A. V. Marenich, 
 J. Bloino, B. G. Janesko, R. Gomperts, B. Mennucci, H. P. Hratchian, 
 J. V. Ortiz, A. F. Izmaylov, J. L. Sonnenberg, D. Williams-Young, 
 F. Ding, F. Lipparini, F. Egidi, J. Goings, B. Peng, A. Petrone, 
 T. Henderson, D. Ranasinghe, V. G. Zakrzewski, J. Gao, N. Rega, 
 G. Zheng, W. Liang, M. Hada, M. Ehara, K. Toyota, R. Fukuda, 
 J. Hasegawa, M. Ishida, T. Nakajima, Y. Honda, O. Kitao, H. Nakai, 
 T. Vreven, K. Throssell, J. A. Montgomery, Jr., J. E. Peralta, 
 F. Ogliaro, M. J. Bearpark, J. J. Heyd, E. N. Brothers, K. N. Kudin, 
 V. N. Staroverov, T. A. Keith, R. Kobayashi, J. Normand, 
 K. Raghavachari, A. P. Rendell, J. C. Burant, S. S. Iyengar, 
 J. Tomasi, M. Cossi, J. M. Millam, M. Klene, C. Adamo, R. Cammi, 
 J. W. Ochterski, R. L. Martin, K. Morokuma, O. Farkas, 
 J. B. Foresman, and D. J. Fox, Gaussian, Inc., Wallingford CT, 2016.
 
 ******************************************
 Gaussian 16:  ES64L-G16RevB.01 20-Dec-2017
                23-Oct-2023 
 ******************************************
 %chk=cyc5.chk
 %mem=1000mw
 %nprocs=4
 Will use up to    4 processors via shared memory.
 -----------------------------------------
 # b3lyp/gen opt=vtight freq int=superfine
 -----------------------------------------
 1/7=1,18=20,19=15,26=5,38=1/1,3;
 2/9=110,12=2,17=6,18=5,40=1/2;
 3/5=7,11=2,25=1,30=1,71=1,74=-5,75=-7/1,2,3;
 4//1;
 5/5=2,38=5/2;
 6/7=2,8=2,9=2,10=2,28=1/1;
 7//1,2,3,16;
 1/7=1,18=20,19=15,26=5/3(2);
 2/9=110/2;
 99//99;
 2/9=110/2;
 3/5=7,6=1,11=2,25=1,30=1,71=1,74=-5,75=-7,82=7/1,2,3;
 4/5=5,16=3,69=1/1;
 5/5=2,38=5/2;
 7//1,2,3,16;
 1/7=1,18=20,19=15,26=5/3(-5);
 2/9=110/2;
 6/7=2,8=2,9=2,10=2,19=2,28=1/1;
 99/9=1/99;
 -----------------------------------------------------------------
 cyclopentane, C2 symm, B3LYP/pcseg-2, vtight geom, superfine ints
 -----------------------------------------------------------------
 Symbolic Z-matrix:
 Charge =  0 Multiplicity = 1
 C                    -1.2156   -0.35782   0.36848 
 C                    -0.75612  -0.03411  -1.04579 
 C                     0.75612   0.03411  -1.04579 
 C                     1.2156    0.35782   0.36848 
 C                     0.        0.        1.29841 
 H                    -1.87628  -1.26081   0.36893 
 H                    -1.81601   0.48879   0.78699 
 H                    -1.11482  -0.81778  -1.75989 
 H                    -1.18548   0.94152  -1.38526 
 H                     1.11482   0.81778  -1.75989 
 H                     1.18548  -0.94152  -1.38526 
 H                     1.87628   1.26081   0.36893 
 H                     1.81601  -0.48879   0.78699 
 H                     0.00618   0.91473   1.95515 
 H                    -0.00618  -0.91473   1.95515 
 

 GradGradGradGradGradGradGradGradGradGradGradGradGradGradGradGradGradGrad
 Berny optimization.
 Initialization pass.
                           ----------------------------
                           !    Initial Parameters    !
                           ! (Angstroms and Degrees)  !
 --------------------------                            --------------------------
 ! Name  Definition              Value          Derivative Info.                !
 --------------------------------------------------------------------------------
 ! R1    R(1,2)                  1.5219         estimate D2E/DX2                !
 ! R2    R(1,5)                  1.5718         estimate D2E/DX2                !
 ! R3    R(1,6)                  1.1189         estimate D2E/DX2                !
 ! R4    R(1,7)                  1.1191         estimate D2E/DX2                !
 ! R5    R(2,3)                  1.5138         estimate D2E/DX2                !
 ! R6    R(2,8)                  1.1193         estimate D2E/DX2                !
 ! R7    R(2,9)                  1.1187         estimate D2E/DX2                !
 ! R8    R(3,4)                  1.5219         estimate D2E/DX2                !
 ! R9    R(3,10)                 1.1193         estimate D2E/DX2                !
 ! R10   R(3,11)                 1.1187         estimate D2E/DX2                !
 ! R11   R(4,5)                  1.5718         estimate D2E/DX2                !
 ! R12   R(4,12)                 1.1189         estimate D2E/DX2                !
 ! R13   R(4,13)                 1.1191         estimate D2E/DX2                !
 ! R14   R(5,14)                 1.1261         estimate D2E/DX2                !
 ! R15   R(5,15)                 1.1261         estimate D2E/DX2                !
 ! A1    A(2,1,5)              105.5387         estimate D2E/DX2                !
 ! A2    A(2,1,6)              110.5067         estimate D2E/DX2                !
 ! A3    A(2,1,7)              110.4015         estimate D2E/DX2                !
 ! A4    A(5,1,6)              129.8044         estimate D2E/DX2                !
 ! A5    A(5,1,7)               91.2292         estimate D2E/DX2                !
 ! A6    A(6,1,7)              107.0727         estimate D2E/DX2                !
 ! A7    A(1,2,3)              108.1313         estimate D2E/DX2                !
 ! A8    A(1,2,8)              110.3173         estimate D2E/DX2                !
 ! A9    A(1,2,9)              110.5873         estimate D2E/DX2                !
 ! A10   A(3,2,8)              110.5916         estimate D2E/DX2                !
 ! A11   A(3,2,9)              110.1275         estimate D2E/DX2                !
 ! A12   A(8,2,9)              107.0991         estimate D2E/DX2                !
 ! A13   A(2,3,4)              108.1313         estimate D2E/DX2                !
 ! A14   A(2,3,10)             110.5916         estimate D2E/DX2                !
 ! A15   A(2,3,11)             110.1275         estimate D2E/DX2                !
 ! A16   A(4,3,10)             110.3173         estimate D2E/DX2                !
 ! A17   A(4,3,11)             110.5873         estimate D2E/DX2                !
 ! A18   A(10,3,11)            107.0991         estimate D2E/DX2                !
 ! A19   A(3,4,5)              105.5387         estimate D2E/DX2                !
 ! A20   A(3,4,12)             110.5067         estimate D2E/DX2                !
 ! A21   A(3,4,13)             110.4015         estimate D2E/DX2                !
 ! A22   A(5,4,12)             129.8044         estimate D2E/DX2                !
 ! A23   A(5,4,13)              91.2292         estimate D2E/DX2                !
 ! A24   A(12,4,13)            107.0727         estimate D2E/DX2                !
 ! A25   A(1,5,4)              107.4529         estimate D2E/DX2                !
 ! A26   A(1,5,14)             122.291          estimate D2E/DX2                !
 ! A27   A(1,5,15)              98.9679         estimate D2E/DX2                !
 ! A28   A(4,5,14)              98.9679         estimate D2E/DX2                !
 ! A29   A(4,5,15)             122.291          estimate D2E/DX2                !
 ! A30   A(14,5,15)            108.6468         estimate D2E/DX2                !
 ! D1    D(5,1,2,3)             18.9028         estimate D2E/DX2                !
 ! D2    D(5,1,2,8)            139.9587         estimate D2E/DX2                !
 ! D3    D(5,1,2,9)           -101.7472         estimate D2E/DX2                !
 ! D4    D(6,1,2,3)           -125.5273         estimate D2E/DX2                !
 ! D5    D(6,1,2,8)             -4.4713         estimate D2E/DX2                !
 ! D6    D(6,1,2,9)            113.8228         estimate D2E/DX2                !
 ! D7    D(7,1,2,3)            116.2089         estimate D2E/DX2                !
 ! D8    D(7,1,2,8)           -122.7351         estimate D2E/DX2                !
 ! D9    D(7,1,2,9)             -4.441          estimate D2E/DX2                !
 ! D10   D(2,1,5,4)             -7.0828         estimate D2E/DX2                !
 ! D11   D(2,1,5,14)           105.9951         estimate D2E/DX2                !
 ! D12   D(2,1,5,15)          -135.1471         estimate D2E/DX2                !
 ! D13   D(6,1,5,4)            127.7469         estimate D2E/DX2                !
 ! D14   D(6,1,5,14)          -119.1752         estimate D2E/DX2                !
 ! D15   D(6,1,5,15)            -0.3174         estimate D2E/DX2                !
 ! D16   D(7,1,5,4)           -118.6671         estimate D2E/DX2                !
 ! D17   D(7,1,5,14)            -5.5893         estimate D2E/DX2                !
 ! D18   D(7,1,5,15)           113.2686         estimate D2E/DX2                !
 ! D19   D(1,2,3,4)            -24.16           estimate D2E/DX2                !
 ! D20   D(1,2,3,10)          -145.0454         estimate D2E/DX2                !
 ! D21   D(1,2,3,11)            96.7763         estimate D2E/DX2                !
 ! D22   D(8,2,3,4)           -145.0454         estimate D2E/DX2                !
 ! D23   D(8,2,3,10)            94.0691         estimate D2E/DX2                !
 ! D24   D(8,2,3,11)           -24.1092         estimate D2E/DX2                !
 ! D25   D(9,2,3,4)             96.7763         estimate D2E/DX2                !
 ! D26   D(9,2,3,10)           -24.1092         estimate D2E/DX2                !
 ! D27   D(9,2,3,11)          -142.2875         estimate D2E/DX2                !
 ! D28   D(2,3,4,5)             18.9028         estimate D2E/DX2                !
 ! D29   D(2,3,4,12)          -125.5273         estimate D2E/DX2                !
 ! D30   D(2,3,4,13)           116.2089         estimate D2E/DX2                !
 ! D31   D(10,3,4,5)           139.9587         estimate D2E/DX2                !
 ! D32   D(10,3,4,12)           -4.4713         estimate D2E/DX2                !
 ! D33   D(10,3,4,13)         -122.7351         estimate D2E/DX2                !
 ! D34   D(11,3,4,5)          -101.7472         estimate D2E/DX2                !
 ! D35   D(11,3,4,12)          113.8228         estimate D2E/DX2                !
 ! D36   D(11,3,4,13)           -4.441          estimate D2E/DX2                !
 ! D37   D(3,4,5,1)             -7.0828         estimate D2E/DX2                !
 ! D38   D(3,4,5,14)          -135.1471         estimate D2E/DX2                !
 ! D39   D(3,4,5,15)           105.9951         estimate D2E/DX2                !
 ! D40   D(12,4,5,1)           127.7469         estimate D2E/DX2                !
 ! D41   D(12,4,5,14)           -0.3174         estimate D2E/DX2                !
 ! D42   D(12,4,5,15)         -119.1752         estimate D2E/DX2                !
 ! D43   D(13,4,5,1)          -118.6671         estimate D2E/DX2                !
 ! D44   D(13,4,5,14)          113.2686         estimate D2E/DX2                !
 ! D45   D(13,4,5,15)           -5.5893         estimate D2E/DX2                !
 --------------------------------------------------------------------------------
 Trust Radius=3.00D-01 FncErr=1.00D-07 GrdErr=1.00D-07 EigMax=2.50D+02 EigMin=1.00D-04
 Number of steps in this run=    100 maximum allowed number of steps=    100.
 GradGradGradGradGradGradGradGradGradGradGradGradGradGradGradGradGradGrad

                          Input orientation:                          
 ---------------------------------------------------------------------
 Center     Atomic      Atomic             Coordinates (Angstroms)
 Number     Number       Type             X           Y           Z
 ---------------------------------------------------------------------
      1          6           0       -1.215599   -0.357823    0.368480
      2          6           0       -0.756124   -0.034111   -1.045785
      3          6           0        0.756124    0.034111   -1.045785
      4          6           0        1.215599    0.357823    0.368480
      5          6           0        0.000000    0.000000    1.298408
      6          1           0       -1.876284   -1.260812    0.368928
      7          1           0       -1.816008    0.488786    0.786990
      8          1           0       -1.114819   -0.817780   -1.759887
      9          1           0       -1.185480    0.941521   -1.385257
     10          1           0        1.114819    0.817780   -1.759887
     11          1           0        1.185480   -0.941521   -1.385257
     12          1           0        1.876284    1.260812    0.368928
     13          1           0        1.816008   -0.488786    0.786990
     14          1           0        0.006180    0.914727    1.955154
     15          1           0       -0.006180   -0.914727    1.955154
 ---------------------------------------------------------------------
                    Distance matrix (angstroms):
                    1          2          3          4          5
     1  C    0.000000
     2  C    1.521858   0.000000
     3  C    2.457936   1.513787   0.000000
     4  C    2.534338   2.457936   1.521858   0.000000
     5  C    1.571777   2.463357   2.463357   1.571777   0.000000
     6  H    1.118881   2.181964   3.256964   3.489946   2.444181
     7  H    1.119102   2.180789   3.190871   3.063159   1.948934
     8  H    2.179831   1.119259   2.176256   3.367913   3.356301
     9  H    2.182841   1.118680   2.169898   3.030094   3.081214
    10  H    3.367913   2.176256   1.119259   2.179831   3.356301
    11  H    3.030094   2.169898   1.118680   2.182841   3.081214
    12  H    3.489946   3.256964   2.181964   1.118881   2.444181
    13  H    3.063159   3.190871   2.180789   1.119102   1.948934
    14  H    2.372691   3.238370   3.216137   2.071321   1.126091
    15  H    2.071321   3.216137   3.238370   2.372691   1.126091
                    6          7          8          9         10
     6  H    0.000000
     7  H    1.799862   0.000000
     8  H    2.303901   2.947095   0.000000
     9  H    2.899077   2.306771   1.800134   0.000000
    10  H    4.218898   3.896738   2.765203   2.333888   0.000000
    11  H    3.543093   3.971569   2.333888   3.027754   1.800134
    12  H    4.521101   3.795236   4.218898   3.543093   2.303901
    13  H    3.795236   3.761274   3.896738   3.971569   2.947095
    14  H    3.285233   2.205992   4.249677   3.546705   3.878146
    15  H    2.476525   2.570979   3.878146   3.999344   4.249677
                   11         12         13         14         15
    11  H    0.000000
    12  H    2.899077   0.000000
    13  H    2.306771   1.799862   0.000000
    14  H    3.999344   2.476525   2.570979   0.000000
    15  H    3.546705   3.285233   2.205992   1.829497   0.000000
 Stoichiometry    C5H10
 Framework group  C2[C2(C),X(C4H10)]
 Deg. of freedom    20
 Full point group                 C2      NOp   2
 Largest Abelian subgroup         C2      NOp   2
 Largest concise Abelian subgroup C2      NOp   2
                         Standard orientation:                         
 ---------------------------------------------------------------------
 Center     Atomic      Atomic             Coordinates (Angstroms)
 Number     Number       Type             X           Y           Z
 ---------------------------------------------------------------------
      1          6           0        0.000000    1.267169    0.378614
      2          6           0        0.180791    0.734984   -1.035651
      3          6           0       -0.180791   -0.734984   -1.035651
      4          6           0       -0.000000   -1.267169    0.378614
      5          6           0       -0.000000    0.000000    1.308542
      6          1           0       -0.679675    2.155952    0.379062
      7          1           0        0.981698    1.604077    0.797124
      8          1           0       -0.469696    1.300374   -1.749753
      9          1           0        1.237959    0.871367   -1.375123
     10          1           0        0.469696   -1.300374   -1.749753
     11          1           0       -1.237959   -0.871367   -1.375123
     12          1           0        0.679675   -2.155952    0.379062
     13          1           0       -0.981698   -1.604077    0.797124
     14          1           0        0.875755   -0.264229    1.965288
     15          1           0       -0.875755    0.264229    1.965288
 ---------------------------------------------------------------------
 Rotational constants (GHZ):           6.5156037           6.3271355           3.5983890
 General basis read from cards:  (5D, 7F)
 There are   164 symmetry adapted cartesian basis functions of A   symmetry.
 There are   161 symmetry adapted cartesian basis functions of B   symmetry.
 There are   146 symmetry adapted basis functions of A   symmetry.
 There are   144 symmetry adapted basis functions of B   symmetry.
   290 basis functions,   435 primitive gaussians,   325 cartesian basis functions
    20 alpha electrons       20 beta electrons
       nuclear repulsion energy       185.7509677130 Hartrees.
 NAtoms=   15 NActive=   15 NUniq=    8 SFac= 3.52D+00 NAtFMM=   60 NAOKFM=F Big=F
 Integral buffers will be    131072 words long.
 Raffenetti 2 integral format.
 Two-electron integral symmetry is turned on.
 One-electron integrals computed using PRISM.
 NBasis=   290 RedAO= T EigKep=  1.63D-04  NBF=   146   144
 NBsUse=   290 1.00D-06 EigRej= -1.00D+00 NBFU=   146   144
 ExpMin= 7.42D-02 ExpMax= 7.32D+03 ExpMxC= 2.50D+02 IAcc=3 IRadAn=         7 AccDes= 0.00D+00
 Harris functional with IExCor=  402 and IRadAn=       7 diagonalized for initial guess.
 HarFok:  IExCor=  402 AccDes= 0.00D+00 IRadAn=         7 IDoV= 1 UseB2=F ITyADJ=14
 ICtDFT=  3500011 ScaDFX=  1.000000  1.000000  1.000000  1.000000
 FoFCou: FMM=F IPFlag=           0 FMFlag=      100000 FMFlg1=           0
         NFxFlg=           0 DoJE=T BraDBF=F KetDBF=T FulRan=T
         wScrn=  0.000000 ICntrl=       500 IOpCl=  0 I1Cent=   200000004 NGrid=           0
         NMat0=    1 NMatS0=      1 NMatT0=    0 NMatD0=    1 NMtDS0=    0 NMtDT0=    0
 Petite list used in FoFCou.
 Initial guess orbital symmetries:
       Occupied  (A) (B) (A) (B) (A) (A) (B) (A) (A) (B) (B) (A)
                 (B) (A) (B) (A) (B) (A) (A) (B)
       Virtual   (A) (B) (A) (B) (A) (B) (A) (B) (A) (B) (B) (B)
                 (A) (A) (A) (B) (A) (B) (B) (A) (B) (A) (A) (A)
                 (B) (B) (B) (B) (A) (A) (B) (A) (B) (B) (A) (A)
                 (B) (A) (B) (B) (A) (B) (A) (A) (B) (A) (A) (B)
                 (A) (B) (A) (A) (B) (B) (B) (A) (A) (B) (B) (A)
                 (A) (B) (A) (B) (A) (B) (B) (B) (A) (A) (B) (B)
                 (B) (A) (A) (B) (A) (A) (B) (A) (B) (A) (B) (A)
                 (B) (B) (A) (B) (A) (B) (A) (A) (B) (A) (B) (A)
                 (B) (A) (B) (B) (A) (A) (B) (A) (A) (B) (B) (A)
                 (B) (A) (A) (B) (A) (B) (A) (A) (B) (A) (B) (A)
                 (B) (B) (A) (B) (B) (A) (A) (B) (A) (B) (A) (B)
                 (A) (B) (B) (A) (B) (A) (B) (A) (B) (A) (B) (B)
                 (A) (B) (A) (B) (A) (B) (A) (B) (A) (A) (A) (B)
                 (A) (B) (B) (A) (A) (B) (B) (A) (B) (A) (B) (B)
                 (A) (B) (A) (B) (A) (B) (A) (B) (A) (B) (A) (A)
                 (B) (A) (B) (A) (A) (A) (B) (B) (A) (A) (B) (A)
                 (B) (B) (B) (A) (B) (A) (B) (A) (A) (A) (B) (A)
                 (B) (B) (A) (A) (B) (A) (B) (B) (A) (B) (B) (A)
                 (A) (B) (A) (B) (A) (B) (B) (A) (B) (A) (A) (B)
                 (A) (B) (A) (B) (B) (B) (A) (A) (B) (A) (A) (B)
                 (B) (A) (A) (B) (A) (B) (A) (A) (B) (B) (B) (A)
                 (B) (A) (B) (A) (B) (A) (B) (B) (A) (B) (A) (A)
                 (A) (B) (B) (A) (B) (A)
 The electronic state of the initial guess is 1-A.
 Requested convergence on RMS density matrix=1.00D-08 within 128 cycles.
 Requested convergence on MAX density matrix=1.00D-06.
 Requested convergence on             energy=1.00D-06.
 No special actions if energy rises.
 Integral accuracy reduced to 1.0D-05 until final iterations.
 Initial convergence to 1.0D-05 achieved.  Increase integral accuracy.
 SCF Done:  E(RB3LYP) =  -196.568135140     A.U. after   11 cycles
            NFock= 11  Conv=0.27D-08     -V/T= 2.0058

 **********************************************************************

            Population analysis using the SCF Density.

 **********************************************************************

 Orbital symmetries:
       Occupied  (A) (B) (A) (A) (B) (A) (B) (A) (A) (B) (B) (A)
                 (B) (A) (B) (A) (B) (A) (A) (B)
       Virtual   (A) (B) (A) (B) (A) (B) (B) (A) (B) (B) (A) (A)
                 (A) (B) (A) (B) (A) (B) (B) (A) (B) (A) (A) (B)
                 (B) (A) (A) (B) (B) (A) (A) (B) (B) (A) (B) (A)
                 (B) (A) (B) (A) (B) (B) (A) (A) (B) (A) (A) (B)
                 (A) (B) (A) (B) (A) (B) (B) (A) (A) (B) (B) (A)
                 (B) (A) (A) (B) (B) (A) (B) (A) (B) (A) (B) (B)
                 (A) (B) (A) (B) (A) (A) (B) (A) (B) (A) (B) (A)
                 (B) (B) (A) (A) (B) (B) (A) (A) (B) (A) (A) (B)
                 (B) (A) (B) (A) (B) (A) (B) (A) (B) (A) (B) (A)
                 (B) (A) (A) (B) (A) (B) (A) (A) (B) (A) (B) (A)
                 (B) (B) (A) (B) (B) (A) (A) (B) (A) (B) (A) (B)
                 (B) (A) (A) (B) (B) (A) (B) (A) (B) (A) (B) (B)
                 (A) (B) (A) (B) (A) (B) (A) (B) (A) (A) (A) (B)
                 (A) (B) (B) (A) (A) (B) (B) (A) (B) (A) (B) (B)
                 (A) (B) (A) (B) (A) (A) (B) (B) (A) (B) (A) (A)
                 (B) (B) (A) (A) (A) (A) (B) (B) (A) (A) (B) (A)
                 (B) (B) (B) (A) (A) (B) (B) (A) (A) (A) (B) (A)
                 (B) (B) (A) (A) (B) (A) (B) (B) (A) (B) (B) (A)
                 (A) (B) (B) (A) (A) (B) (B) (A) (B) (A) (A) (B)
                 (A) (A) (B) (B) (B) (B) (A) (A) (B) (A) (A) (B)
                 (B) (A) (A) (B) (A) (B) (A) (A) (B) (B) (A) (B)
                 (B) (A) (A) (B) (B) (A) (B) (A) (B) (B) (A) (A)
                 (A) (B) (B) (A) (B) (A)
 The electronic state is 1-A.
 Alpha  occ. eigenvalues --  -10.17883 -10.16642 -10.16642 -10.16213 -10.16188
 Alpha  occ. eigenvalues --   -0.82774  -0.70868  -0.70593  -0.55701  -0.55371
 Alpha  occ. eigenvalues --   -0.48333  -0.47229  -0.41549  -0.40761  -0.37331
 Alpha  occ. eigenvalues --   -0.34566  -0.33520  -0.33000  -0.29638  -0.25838
 Alpha virt. eigenvalues --    0.00303   0.02576   0.04358   0.04438   0.06145
 Alpha virt. eigenvalues --    0.07076   0.07794   0.07849   0.12357   0.12977
 Alpha virt. eigenvalues --    0.13027   0.13614   0.14866   0.15778   0.17715
 Alpha virt. eigenvalues --    0.19401   0.19712   0.20630   0.24103   0.24141
 Alpha virt. eigenvalues --    0.27724   0.28555   0.29931   0.30508   0.31076
 Alpha virt. eigenvalues --    0.32705   0.33204   0.33204   0.35534   0.35590
 Alpha virt. eigenvalues --    0.36180   0.36381   0.37155   0.37442   0.38708
 Alpha virt. eigenvalues --    0.40869   0.41725   0.41780   0.42777   0.45650
 Alpha virt. eigenvalues --    0.45903   0.55122   0.57254   0.62028   0.62182
 Alpha virt. eigenvalues --    0.66792   0.80737   0.83496   0.83781   0.85853
 Alpha virt. eigenvalues --    0.89356   0.89896   0.90457   0.91456   0.92484
 Alpha virt. eigenvalues --    0.92801   0.96003   0.98386   0.99163   1.00296
 Alpha virt. eigenvalues --    1.03359   1.03406   1.04666   1.07204   1.08690
 Alpha virt. eigenvalues --    1.09019   1.10224   1.10625   1.11858   1.11997
 Alpha virt. eigenvalues --    1.12739   1.13980   1.19424   1.20577   1.20910
 Alpha virt. eigenvalues --    1.21341   1.24618   1.27873   1.29435   1.29611
 Alpha virt. eigenvalues --    1.30944   1.32925   1.39296   1.43626   1.44897
 Alpha virt. eigenvalues --    1.47708   1.50580   1.52349   1.52393   1.56426
 Alpha virt. eigenvalues --    1.59256   1.62149   1.67256   1.67632   1.71363
 Alpha virt. eigenvalues --    1.72947   1.74545   1.76480   1.77271   1.80320
 Alpha virt. eigenvalues --    1.80711   1.84607   1.89685   1.91494   1.92281
 Alpha virt. eigenvalues --    1.93394   1.95558   1.98795   2.01370   2.01500
 Alpha virt. eigenvalues --    2.03027   2.10265   2.12249   2.16287   2.19945
 Alpha virt. eigenvalues --    2.30005   2.32698   2.33629   2.39420   2.48437
 Alpha virt. eigenvalues --    2.50017   2.50623   2.56229   2.65652   2.77670
 Alpha virt. eigenvalues --    2.88556   2.95492   2.98070   3.03637   3.04806
 Alpha virt. eigenvalues --    3.08571   3.09969   3.14613   3.15041   3.17944
 Alpha virt. eigenvalues --    3.18038   3.20713   3.25889   3.30832   3.30889
 Alpha virt. eigenvalues --    3.31318   3.37464   3.38701   3.45644   3.46309
 Alpha virt. eigenvalues --    3.55044   3.56233   3.60903   3.61681   3.63373
 Alpha virt. eigenvalues --    3.64707   3.66641   3.69700   3.73499   3.76090
 Alpha virt. eigenvalues --    3.77937   3.83857   3.83912   3.88267   3.88431
 Alpha virt. eigenvalues --    3.89769   3.92446   3.94008   3.95601   3.96345
 Alpha virt. eigenvalues --    3.98905   4.01505   4.03111   4.03950   4.09102
 Alpha virt. eigenvalues --    4.10063   4.15855   4.18140   4.20705   4.20705
 Alpha virt. eigenvalues --    4.23826   4.24659   4.28219   4.30221   4.32617
 Alpha virt. eigenvalues --    4.33164   4.36148   4.36226   4.37656   4.39033
 Alpha virt. eigenvalues --    4.41887   4.44114   4.45281   4.49153   4.52536
 Alpha virt. eigenvalues --    4.53095   4.53568   4.54145   4.55108   4.56376
 Alpha virt. eigenvalues --    4.57809   4.59748   4.59875   4.61023   4.63430
 Alpha virt. eigenvalues --    4.65334   4.67571   4.69008   4.70541   4.73350
 Alpha virt. eigenvalues --    4.74765   4.77274   4.77722   4.78415   4.81510
 Alpha virt. eigenvalues --    4.81603   4.85618   4.90444   4.91254   4.95035
 Alpha virt. eigenvalues --    4.97120   5.00808   5.03076   5.04591   5.05223
 Alpha virt. eigenvalues --    5.13463   5.14229   5.17196   5.19255   5.21265
 Alpha virt. eigenvalues --    5.22813   5.24564   5.25540   5.27367   5.31968
 Alpha virt. eigenvalues --    5.32139   5.36081   5.37118   5.39946   5.43205
 Alpha virt. eigenvalues --    5.47533   5.49885   5.55119   5.55932   5.57014
 Alpha virt. eigenvalues --    5.58408   5.59763   5.64714   5.66866   5.69272
 Alpha virt. eigenvalues --    5.70291   5.71354   5.74134   5.75160   5.78051
 Alpha virt. eigenvalues --    5.82551   5.83514   5.85660   5.87867   5.88304
 Alpha virt. eigenvalues --    5.89228   5.92956   5.95103   5.97200   6.01611
 Alpha virt. eigenvalues --    6.02345   6.03223   6.05073   6.10148   6.13267
 Alpha virt. eigenvalues --    6.21415   6.27929   6.34580   8.62100   9.19934
          Condensed to atoms (all electrons):
               1          2          3          4          5          6
     1  C    4.894391   0.315057  -0.052977  -0.048383   0.274944   0.433510
     2  C    0.315057   4.792287   0.317050  -0.052977  -0.058650  -0.043885
     3  C   -0.052977   0.317050   4.792287   0.315057  -0.058650   0.003961
     4  C   -0.048383  -0.052977   0.315057   4.894391   0.274944   0.004368
     5  C    0.274944  -0.058650  -0.058650   0.274944   4.932070  -0.015235
     6  H    0.433510  -0.043885   0.003961   0.004368  -0.015235   0.591389
     7  H    0.439337  -0.036763   0.010009   0.012978  -0.079594  -0.024372
     8  H   -0.041590   0.438141  -0.040383   0.011018   0.006468  -0.008192
     9  H   -0.046857   0.442510  -0.046808   0.001320   0.011317   0.007131
    10  H    0.011018  -0.040383   0.438141  -0.041590   0.006468  -0.000606
    11  H    0.001320  -0.046808   0.442510  -0.046857   0.011317   0.000710
    12  H    0.004368   0.003961  -0.043885   0.433510  -0.015235   0.000009
    13  H    0.012978   0.010009  -0.036763   0.439337  -0.079594  -0.000414
    14  H   -0.027478   0.007563   0.007876  -0.071280   0.439660   0.002218
    15  H   -0.071280   0.007876   0.007563  -0.027478   0.439660  -0.007747
               7          8          9         10         11         12
     1  C    0.439337  -0.041590  -0.046857   0.011018   0.001320   0.004368
     2  C   -0.036763   0.438141   0.442510  -0.040383  -0.046808   0.003961
     3  C    0.010009  -0.040383  -0.046808   0.438141   0.442510  -0.043885
     4  C    0.012978   0.011018   0.001320  -0.041590  -0.046857   0.433510
     5  C   -0.079594   0.006468   0.011317   0.006468   0.011317  -0.015235
     6  H   -0.024372  -0.008192   0.007131  -0.000606   0.000710   0.000009
     7  H    0.668791   0.004723  -0.019676  -0.000500  -0.000534  -0.000414
     8  H    0.004723   0.632337  -0.021260   0.001066  -0.011067  -0.000606
     9  H   -0.019676  -0.021260   0.642752  -0.011067   0.008819   0.000710
    10  H   -0.000500   0.001066  -0.011067   0.632337  -0.021260  -0.008192
    11  H   -0.000534  -0.011067   0.008819  -0.021260   0.642752   0.007131
    12  H   -0.000414  -0.000606   0.000710  -0.008192   0.007131   0.591389
    13  H   -0.001265  -0.000500  -0.000534   0.004723  -0.019676  -0.024372
    14  H   -0.020634  -0.000401   0.000323  -0.000277  -0.000956  -0.007747
    15  H    0.014181  -0.000277  -0.000956  -0.000401   0.000323   0.002218
              13         14         15
     1  C    0.012978  -0.027478  -0.071280
     2  C    0.010009   0.007563   0.007876
     3  C   -0.036763   0.007876   0.007563
     4  C    0.439337  -0.071280  -0.027478
     5  C   -0.079594   0.439660   0.439660
     6  H   -0.000414   0.002218  -0.007747
     7  H   -0.001265  -0.020634   0.014181
     8  H   -0.000500  -0.000401  -0.000277
     9  H   -0.000534   0.000323  -0.000956
    10  H    0.004723  -0.000277  -0.000401
    11  H   -0.019676  -0.000956   0.000323
    12  H   -0.024372  -0.007747   0.002218
    13  H    0.668791   0.014181  -0.020634
    14  H    0.014181   0.645305  -0.032965
    15  H   -0.020634  -0.032965   0.645305
 Mulliken charges:
               1
     1  C   -0.098360
     2  C   -0.054989
     3  C   -0.054989
     4  C   -0.098360
     5  C   -0.089888
     6  H    0.057153
     7  H    0.033732
     8  H    0.030522
     9  H    0.032276
    10  H    0.030522
    11  H    0.032276
    12  H    0.057153
    13  H    0.033732
    14  H    0.044610
    15  H    0.044610
 Sum of Mulliken charges =  -0.00000
 Mulliken charges with hydrogens summed into heavy atoms:
               1
     1  C   -0.007475
     2  C    0.007808
     3  C    0.007808
     4  C   -0.007475
     5  C   -0.000667
 Electronic spatial extent (au):  <R**2>=            424.8457
 Charge=             -0.0000 electrons
 Dipole moment (field-independent basis, Debye):
    X=              0.0000    Y=             -0.0000    Z=              0.0399  Tot=              0.0399
 Quadrupole moment (field-independent basis, Debye-Ang):
   XX=            -33.3082   YY=            -34.3505   ZZ=            -35.1234
   XY=             -1.3499   XZ=              0.0000   YZ=             -0.0000
 Traceless Quadrupole moment (field-independent basis, Debye-Ang):
   XX=              0.9525   YY=             -0.0898   ZZ=             -0.8627
   XY=             -1.3499   XZ=              0.0000   YZ=             -0.0000
 Octapole moment (field-independent basis, Debye-Ang**2):
  XXX=              0.0000  YYY=             -0.0000  ZZZ=             -0.6594  XYY=              0.0000
  XXY=              0.0000  XXZ=             -0.0247  XZZ=              0.0000  YZZ=              0.0000
  YYZ=             -0.5360  XYZ=              0.3240
 Hexadecapole moment (field-independent basis, Debye-Ang**3):
 XXXX=            -76.5028 YYYY=           -269.5488 ZZZZ=           -274.7658 XXXY=             -5.8650
 XXXZ=             -0.0000 YYYX=            -16.6319 YYYZ=             -0.0000 ZZZX=             -0.0000
 ZZZY=             -0.0000 XXYY=            -56.9855 XXZZ=            -54.7904 YYZZ=            -91.0546
 XXYZ=             -0.0000 YYXZ=              0.0000 ZZXY=             -4.6521
 N-N= 1.857509677130D+02 E-N=-8.262877496955D+02  KE= 1.954263408106D+02
 Symmetry A    KE= 1.151557791853D+02
 Symmetry B    KE= 8.027056162525D+01
 Calling FoFJK, ICntrl=      2127 FMM=F ISym2X=1 I1Cent= 0 IOpClX= 0 NMat=1 NMatS=1 NMatT=0.
 ***** Axes restored to original set *****
 -------------------------------------------------------------------
 Center     Atomic                   Forces (Hartrees/Bohr)
 Number     Number              X              Y              Z
 -------------------------------------------------------------------
      1        6          -0.023642064    0.060323846    0.012567692
      2        6          -0.023405740    0.001506074   -0.025706422
      3        6           0.023405740   -0.001506074   -0.025706422
      4        6           0.023642064   -0.060323846    0.012567692
      5        6          -0.000000000   -0.000000000    0.021494585
      6        1           0.026046638    0.006628713    0.017643574
      7        1          -0.016115795   -0.016404374   -0.021369182
      8        1           0.003816348    0.014314087    0.008137233
      9        1           0.005616942   -0.014432257    0.003271475
     10        1          -0.003816348   -0.014314087    0.008137233
     11        1          -0.005616942    0.014432257    0.003271475
     12        1          -0.026046638   -0.006628713    0.017643574
     13        1           0.016115795    0.016404374   -0.021369182
     14        1          -0.029283604   -0.019095460   -0.005291663
     15        1           0.029283604    0.019095460   -0.005291663
 -------------------------------------------------------------------
 Cartesian Forces:  Max     0.060323846 RMS     0.020659457

 GradGradGradGradGradGradGradGradGradGradGradGradGradGradGradGradGradGrad
 Berny optimization.
 FormGI is forming the generalized inverse of G from B-inverse, IUseBI=4.
 Internal  Forces:  Max     0.022612671 RMS     0.010913028
 Search for a local minimum.
 Step number   1 out of a maximum of  100
 All quantities printed in internal units (Hartrees-Bohrs-Radians)
 Mixed Optimization -- RFO/linear search
 Second derivative matrix not updated -- first step.
 ITU=  0
     Eigenvalues ---    0.00303   0.00550   0.01753   0.02008   0.02980
     Eigenvalues ---    0.03813   0.03948   0.04948   0.05187   0.05191
     Eigenvalues ---    0.05569   0.05605   0.06156   0.06874   0.07151
     Eigenvalues ---    0.07606   0.07690   0.07690   0.09252   0.09861
     Eigenvalues ---    0.11750   0.11829   0.20884   0.21443   0.25192
     Eigenvalues ---    0.25393   0.28856   0.29744   0.30225   0.30954
     Eigenvalues ---    0.30954   0.31639   0.31639   0.31655   0.31655
     Eigenvalues ---    0.31678   0.31678   0.31698   0.31698
 RFO step:  Lambda=-6.24708038D-02 EMin= 3.02534835D-03
 Linear search not attempted -- first point.
 Maximum step size (   0.300) exceeded in Quadratic search.
    -- Step size scaled by   0.683
 Iteration  1 RMS(Cart)=  0.04574453 RMS(Int)=  0.00200474
 Iteration  2 RMS(Cart)=  0.00177325 RMS(Int)=  0.00106595
 Iteration  3 RMS(Cart)=  0.00000181 RMS(Int)=  0.00106595
 Iteration  4 RMS(Cart)=  0.00000000 RMS(Int)=  0.00106595
 ClnCor:  largest displacement from symmetrization is 3.45D-11 for atom    11.
 Variable       Old X    -DE/DX   Delta X   Delta X   Delta X     New X
                                 (Linear)    (Quad)   (Total)
    R1        2.87589   0.00978   0.00000   0.02205   0.02198   2.89787
    R2        2.97023   0.00426   0.00000   0.00546   0.00562   2.97585
    R3        2.11438  -0.02072   0.00000  -0.03735  -0.03735   2.07703
    R4        2.11480  -0.01176   0.00000  -0.02120  -0.02120   2.09360
    R5        2.86064   0.01693   0.00000   0.03026   0.03006   2.89071
    R6        2.11509  -0.01644   0.00000  -0.02965  -0.02965   2.08544
    R7        2.11400  -0.01574   0.00000  -0.02834  -0.02834   2.08566
    R8        2.87589   0.00978   0.00000   0.02205   0.02198   2.89787
    R9        2.11509  -0.01644   0.00000  -0.02965  -0.02965   2.08544
   R10        2.11400  -0.01574   0.00000  -0.02834  -0.02834   2.08566
   R11        2.97023   0.00426   0.00000   0.00546   0.00562   2.97585
   R12        2.11438  -0.02072   0.00000  -0.03735  -0.03735   2.07703
   R13        2.11480  -0.01176   0.00000  -0.02120  -0.02120   2.09360
   R14        2.12800  -0.01876   0.00000  -0.03446  -0.03446   2.09354
   R15        2.12800  -0.01876   0.00000  -0.03446  -0.03446   2.09354
    A1        1.84200   0.00702   0.00000   0.01793   0.01680   1.85880
    A2        1.92870   0.00630   0.00000   0.02447   0.02196   1.95066
    A3        1.92687  -0.00135   0.00000  -0.00900  -0.01162   1.91525
    A4        2.26551  -0.02261   0.00000  -0.10114  -0.10028   2.16523
    A5        1.59225   0.01730   0.00000   0.10156   0.10261   1.69486
    A6        1.86877  -0.00428   0.00000  -0.01810  -0.01491   1.85386
    A7        1.88725  -0.00339   0.00000  -0.00372  -0.00355   1.88370
    A8        1.92540   0.00802   0.00000   0.02356   0.02346   1.94886
    A9        1.93011  -0.00464   0.00000  -0.01435  -0.01427   1.91584
   A10        1.93019  -0.00566   0.00000  -0.01335  -0.01337   1.91681
   A11        1.92209   0.00788   0.00000   0.01689   0.01683   1.93892
   A12        1.86923  -0.00212   0.00000  -0.00896  -0.00882   1.86041
   A13        1.88725  -0.00339   0.00000  -0.00372  -0.00355   1.88370
   A14        1.93019  -0.00566   0.00000  -0.01335  -0.01337   1.91681
   A15        1.92209   0.00788   0.00000   0.01689   0.01683   1.93892
   A16        1.92540   0.00802   0.00000   0.02356   0.02346   1.94886
   A17        1.93011  -0.00464   0.00000  -0.01435  -0.01427   1.91584
   A18        1.86923  -0.00212   0.00000  -0.00896  -0.00882   1.86041
   A19        1.84200   0.00702   0.00000   0.01793   0.01680   1.85880
   A20        1.92870   0.00630   0.00000   0.02447   0.02196   1.95066
   A21        1.92687  -0.00135   0.00000  -0.00900  -0.01162   1.91525
   A22        2.26551  -0.02261   0.00000  -0.10114  -0.10028   2.16523
   A23        1.59225   0.01730   0.00000   0.10156   0.10261   1.69486
   A24        1.86877  -0.00428   0.00000  -0.01810  -0.01491   1.85386
   A25        1.87541  -0.00404   0.00000  -0.00852  -0.00755   1.86785
   A26        2.13438  -0.01747   0.00000  -0.08772  -0.08747   2.04691
   A27        1.72732   0.01886   0.00000   0.08756   0.08821   1.81553
   A28        1.72732   0.01886   0.00000   0.08756   0.08821   1.81553
   A29        2.13438  -0.01747   0.00000  -0.08772  -0.08747   2.04691
   A30        1.89625  -0.00409   0.00000  -0.01733  -0.01449   1.88176
    D1        0.32992  -0.00539   0.00000  -0.03451  -0.03505   0.29487
    D2        2.44274  -0.00961   0.00000  -0.03897  -0.03951   2.40323
    D3       -1.77582  -0.01011   0.00000  -0.04423  -0.04486  -1.82068
    D4       -2.19086   0.01416   0.00000   0.07052   0.07109  -2.11978
    D5       -0.07804   0.00993   0.00000   0.06606   0.06663  -0.01141
    D6        1.98658   0.00944   0.00000   0.06080   0.06128   2.04786
    D7        2.02823   0.01637   0.00000   0.08326   0.08330   2.11153
    D8       -2.14213   0.01214   0.00000   0.07881   0.07884  -2.06329
    D9       -0.07751   0.01165   0.00000   0.07354   0.07349  -0.00402
   D10       -0.12362   0.00152   0.00000   0.01211   0.01241  -0.11121
   D11        1.84996   0.01264   0.00000   0.06810   0.06853   1.91849
   D12       -2.35876   0.01336   0.00000   0.07008   0.06965  -2.28911
   D13        2.22960  -0.00466   0.00000  -0.04164  -0.03977   2.18983
   D14       -2.08000   0.00647   0.00000   0.01435   0.01634  -2.06366
   D15       -0.00554   0.00719   0.00000   0.01633   0.01746   0.01193
   D16       -2.07113  -0.00332   0.00000  -0.01209  -0.01352  -2.08465
   D17       -0.09755   0.00780   0.00000   0.04390   0.04260  -0.05495
   D18        1.97691   0.00852   0.00000   0.04589   0.04372   2.02063
   D19       -0.42167   0.00909   0.00000   0.04945   0.04928  -0.37239
   D20       -2.53152   0.00482   0.00000   0.03096   0.03085  -2.50067
   D21        1.68906   0.00603   0.00000   0.03973   0.03966   1.72873
   D22       -2.53152   0.00482   0.00000   0.03096   0.03085  -2.50067
   D23        1.64182   0.00055   0.00000   0.01248   0.01243   1.65425
   D24       -0.42078   0.00176   0.00000   0.02125   0.02124  -0.39954
   D25        1.68906   0.00603   0.00000   0.03973   0.03966   1.72873
   D26       -0.42078   0.00176   0.00000   0.02125   0.02124  -0.39954
   D27       -2.48339   0.00297   0.00000   0.03002   0.03005  -2.45333
   D28        0.32992  -0.00539   0.00000  -0.03451  -0.03505   0.29487
   D29       -2.19086   0.01416   0.00000   0.07052   0.07109  -2.11978
   D30        2.02823   0.01637   0.00000   0.08326   0.08330   2.11153
   D31        2.44274  -0.00961   0.00000  -0.03897  -0.03951   2.40323
   D32       -0.07804   0.00993   0.00000   0.06606   0.06663  -0.01141
   D33       -2.14213   0.01214   0.00000   0.07881   0.07884  -2.06329
   D34       -1.77582  -0.01011   0.00000  -0.04423  -0.04486  -1.82068
   D35        1.98658   0.00944   0.00000   0.06080   0.06128   2.04786
   D36       -0.07751   0.01165   0.00000   0.07354   0.07349  -0.00402
   D37       -0.12362   0.00152   0.00000   0.01211   0.01241  -0.11121
   D38       -2.35876   0.01336   0.00000   0.07008   0.06965  -2.28911
   D39        1.84996   0.01264   0.00000   0.06810   0.06853   1.91849
   D40        2.22960  -0.00466   0.00000  -0.04164  -0.03977   2.18983
   D41       -0.00554   0.00719   0.00000   0.01633   0.01746   0.01193
   D42       -2.08000   0.00647   0.00000   0.01435   0.01634  -2.06366
   D43       -2.07113  -0.00332   0.00000  -0.01209  -0.01352  -2.08465
   D44        1.97691   0.00852   0.00000   0.04589   0.04372   2.02063
   D45       -0.09755   0.00780   0.00000   0.04390   0.04260  -0.05495
         Item               Value     Threshold  Converged?
 Maximum Force            0.022613     0.000002     NO 
 RMS     Force            0.010913     0.000001     NO 
 Maximum Displacement     0.148964     0.000006     NO 
 RMS     Displacement     0.045481     0.000004     NO 
 Predicted change in Energy=-3.444015D-02
 GradGradGradGradGradGradGradGradGradGradGradGradGradGradGradGradGradGrad

                          Input orientation:                          
 ---------------------------------------------------------------------
 Center     Atomic      Atomic             Coordinates (Angstroms)
 Number     Number       Type             X           Y           Z
 ---------------------------------------------------------------------
      1          6           0       -1.227218   -0.311117    0.376069
      2          6           0       -0.764424   -0.025456   -1.057738
      3          6           0        0.764424    0.025456   -1.057738
      4          6           0        1.227218    0.311117    0.376069
      5          6           0       -0.000000   -0.000000    1.312546
      6          1           0       -1.829250   -1.228814    0.434797
      7          1           0       -1.880832    0.510862    0.728983
      8          1           0       -1.113065   -0.801562   -1.760569
      9          1           0       -1.193643    0.930153   -1.405149
     10          1           0        1.113065    0.801562   -1.760569
     11          1           0        1.193643   -0.930153   -1.405149
     12          1           0        1.829250    1.228814    0.434797
     13          1           0        1.880832   -0.510862    0.728983
     14          1           0       -0.072649    0.892277    1.965159
     15          1           0        0.072649   -0.892277    1.965159
 ---------------------------------------------------------------------
                    Distance matrix (angstroms):
                    1          2          3          4          5
     1  C    0.000000
     2  C    1.533488   0.000000
     3  C    2.477039   1.529695   0.000000
     4  C    2.532080   2.477039   1.533488   0.000000
     5  C    1.574752   2.490630   2.490630   1.574752   0.000000
     6  H    1.099118   2.193077   3.244688   3.422986   2.372042
     7  H    1.107885   2.174023   3.228834   3.134393   2.034466
     8  H    2.195174   1.103568   2.168616   3.358601   3.365331
     9  H    2.171317   1.103682   2.184765   3.068634   3.110601
    10  H    3.358601   2.168616   1.103568   2.195174   3.365331
    11  H    3.068634   2.184765   1.103682   2.171317   3.110601
    12  H    3.422986   3.244688   2.193077   1.099118   2.372042
    13  H    3.134393   3.228834   2.174023   1.107885   2.034466
    14  H    2.303561   3.233990   3.254224   2.133683   1.107854
    15  H    2.133683   3.254224   3.233990   2.303561   1.107854
                    6          7          8          9         10
     6  H    0.000000
     7  H    1.765129   0.000000
     8  H    2.348424   2.917155   0.000000
     9  H    2.906981   2.280911   1.769648   0.000000
    10  H    4.195149   3.904586   2.743294   2.337469   0.000000
    11  H    3.551406   4.010417   2.337469   3.026529   1.769648
    12  H    4.407330   3.790344   4.195149   3.551406   2.348424
    13  H    3.790344   3.897952   3.904586   4.010417   2.917155
    14  H    3.150664   2.223316   4.222867   3.552047   3.910907
    15  H    2.464241   2.704258   3.910907   4.035309   4.222867
                   11         12         13         14         15
    11  H    0.000000
    12  H    2.906981   0.000000
    13  H    2.280911   1.765129   0.000000
    14  H    4.035309   2.464241   2.704258   0.000000
    15  H    3.552047   3.150664   2.223316   1.790460   0.000000
 Stoichiometry    C5H10
 Framework group  C2[C2(C),X(C4H10)]
 Deg. of freedom    20
 Full point group                 C2      NOp   2
 Largest Abelian subgroup         C2      NOp   2
 Largest concise Abelian subgroup C2      NOp   2
                         Standard orientation:                         
 ---------------------------------------------------------------------
 Center     Atomic      Atomic             Coordinates (Angstroms)
 Number     Number       Type             X           Y           Z
 ---------------------------------------------------------------------
      1          6           0       -0.000000    1.266040    0.385527
      2          6           0        0.163174    0.747239   -1.048280
      3          6           0       -0.163174   -0.747239   -1.048280
      4          6           0        0.000000   -1.266040    0.385527
      5          6           0       -0.000000   -0.000000    1.322004
      6          1           0       -0.741614    2.075126    0.444254
      7          1           0        0.957393    1.697618    0.738441
      8          1           0       -0.503458    1.275910   -1.751111
      9          1           0        1.194957    0.928465   -1.395691
     10          1           0        0.503458   -1.275910   -1.751111
     11          1           0       -1.194957   -0.928465   -1.395691
     12          1           0        0.741614   -2.075126    0.444254
     13          1           0       -0.957393   -1.697618    0.738441
     14          1           0        0.882769   -0.148848    1.974616
     15          1           0       -0.882769    0.148848    1.974616
 ---------------------------------------------------------------------
 Rotational constants (GHZ):           6.4211716           6.3190872           3.5584082
 Basis read from rwf:  (5D, 7F)
 There are   164 symmetry adapted cartesian basis functions of A   symmetry.
 There are   161 symmetry adapted cartesian basis functions of B   symmetry.
 There are   146 symmetry adapted basis functions of A   symmetry.
 There are   144 symmetry adapted basis functions of B   symmetry.
   290 basis functions,   435 primitive gaussians,   325 cartesian basis functions
    20 alpha electrons       20 beta electrons
       nuclear repulsion energy       185.3437187395 Hartrees.
 NAtoms=   15 NActive=   15 NUniq=    8 SFac= 3.52D+00 NAtFMM=   60 NAOKFM=F Big=F
 Integral buffers will be    131072 words long.
 Raffenetti 2 integral format.
 Two-electron integral symmetry is turned on.
 One-electron integrals computed using PRISM.
 NBasis=   290 RedAO= T EigKep=  1.69D-04  NBF=   146   144
 NBsUse=   290 1.00D-06 EigRej= -1.00D+00 NBFU=   146   144
 Initial guess from the checkpoint file:  "cyc5.chk"
 B after Tr=     0.000000    0.000000   -0.000000
         Rot=    0.999920   -0.000000   -0.000000   -0.012653 Ang=  -1.45 deg.
 Initial guess orbital symmetries:
       Occupied  (A) (B) (A) (A) (B) (A) (B) (A) (A) (B) (B) (A)
                 (B) (A) (B) (A) (B) (A) (A) (B)
       Virtual   (A) (B) (A) (B) (A) (B) (B) (A) (B) (B) (A) (A)
                 (A) (B) (A) (B) (A) (B) (B) (A) (B) (A) (A) (B)
                 (B) (A) (A) (B) (B) (A) (A) (B) (B) (A) (B) (A)
                 (B) (A) (B) (A) (B) (B) (A) (A) (B) (A) (A) (B)
                 (A) (B) (A) (B) (A) (B) (B) (A) (A) (B) (B) (A)
                 (B) (A) (A) (B) (B) (A) (B) (A) (B) (A) (B) (B)
                 (A) (B) (A) (B) (A) (A) (B) (A) (B) (A) (B) (A)
                 (B) (B) (A) (A) (B) (B) (A) (A) (B) (A) (A) (B)
                 (B) (A) (B) (A) (B) (A) (B) (A) (B) (A) (B) (A)
                 (B) (A) (A) (B) (A) (B) (A) (A) (B) (A) (B) (A)
                 (B) (B) (A) (B) (B) (A) (A) (B) (A) (B) (A) (B)
                 (B) (A) (A) (B) (B) (A) (B) (A) (B) (A) (B) (B)
                 (A) (B) (A) (B) (A) (B) (A) (B) (A) (A) (A) (B)
                 (A) (B) (B) (A) (A) (B) (B) (A) (B) (A) (B) (B)
                 (A) (B) (A) (B) (A) (A) (B) (B) (A) (B) (A) (A)
                 (B) (B) (A) (A) (A) (A) (B) (B) (A) (A) (B) (A)
                 (B) (B) (B) (A) (A) (B) (B) (A) (A) (A) (B) (A)
                 (B) (B) (A) (A) (B) (A) (B) (B) (A) (B) (B) (A)
                 (A) (B) (B) (A) (A) (B) (B) (A) (B) (A) (A) (B)
                 (A) (A) (B) (B) (B) (B) (A) (A) (B) (A) (A) (B)
                 (B) (A) (A) (B) (A) (B) (A) (A) (B) (B) (A) (B)
                 (B) (A) (A) (B) (B) (A) (B) (A) (B) (B) (A) (A)
                 (A) (B) (B) (A) (B) (A)
 ExpMin= 7.42D-02 ExpMax= 7.32D+03 ExpMxC= 2.50D+02 IAcc=3 IRadAn=         7 AccDes= 0.00D+00
 Harris functional with IExCor=  402 and IRadAn=       7 diagonalized for initial guess.
 HarFok:  IExCor=  402 AccDes= 0.00D+00 IRadAn=         7 IDoV= 1 UseB2=F ITyADJ=14
 ICtDFT=  3500011 ScaDFX=  1.000000  1.000000  1.000000  1.000000
 FoFCou: FMM=F IPFlag=           0 FMFlag=      100000 FMFlg1=           0
         NFxFlg=           0 DoJE=T BraDBF=F KetDBF=T FulRan=T
         wScrn=  0.000000 ICntrl=       500 IOpCl=  0 I1Cent=   200000004 NGrid=           0
         NMat0=    1 NMatS0=      1 NMatT0=    0 NMatD0=    1 NMtDS0=    0 NMtDT0=    0
 Petite list used in FoFCou.
 Requested convergence on RMS density matrix=1.00D-08 within 128 cycles.
 Requested convergence on MAX density matrix=1.00D-06.
 Requested convergence on             energy=1.00D-06.
 No special actions if energy rises.
 Integral accuracy reduced to 1.0D-05 until final iterations.
 Initial convergence to 1.0D-05 achieved.  Increase integral accuracy.
 SCF Done:  E(RB3LYP) =  -196.602796622     A.U. after   10 cycles
            NFock= 10  Conv=0.17D-08     -V/T= 2.0055
 Calling FoFJK, ICntrl=      2127 FMM=F ISym2X=1 I1Cent= 0 IOpClX= 0 NMat=1 NMatS=1 NMatT=0.
 ***** Axes restored to original set *****
 -------------------------------------------------------------------
 Center     Atomic                   Forces (Hartrees/Bohr)
 Number     Number              X              Y              Z
 -------------------------------------------------------------------
      1        6          -0.010480155    0.046970548    0.011721327
      2        6          -0.010539389   -0.002427176   -0.012628739
      3        6           0.010539389    0.002427176   -0.012628739
      4        6           0.010480155   -0.046970548    0.011721327
      5        6           0.000000000    0.000000000    0.003118477
      6        1           0.016416837    0.000010503    0.011071128
      7        1          -0.009791287   -0.011929645   -0.013764347
      8        1          -0.000038480    0.006708289    0.004656379
      9        1           0.004764932   -0.006500840    0.001160071
     10        1           0.000038480   -0.006708289    0.004656379
     11        1          -0.004764932    0.006500840    0.001160071
     12        1          -0.016416837   -0.000010503    0.011071128
     13        1           0.009791287    0.011929645   -0.013764347
     14        1          -0.016859696   -0.011708241   -0.003775057
     15        1           0.016859696    0.011708241   -0.003775057
 -------------------------------------------------------------------
 Cartesian Forces:  Max     0.046970548 RMS     0.013536908

 GradGradGradGradGradGradGradGradGradGradGradGradGradGradGradGradGradGrad
 Berny optimization.
 Using GEDIIS/GDIIS optimizer.
 FormGI is forming the generalized inverse of G from B-inverse, IUseBI=4.
 Internal  Forces:  Max     0.014397961 RMS     0.006522505
 Search for a local minimum.
 Step number   2 out of a maximum of  100
 All quantities printed in internal units (Hartrees-Bohrs-Radians)
 Mixed Optimization -- RFO/linear search
 Update second derivatives using D2CorX and points    1    2
 DE= -3.47D-02 DEPred=-3.44D-02 R= 1.01D+00
 TightC=F SS=  1.41D+00  RLast= 4.50D-01 DXNew= 5.0454D-01 1.3507D+00
 Trust test= 1.01D+00 RLast= 4.50D-01 DXMaxT set to 5.05D-01
 ITU=  1  0
 Use linear search instead of GDIIS.
     Eigenvalues ---    0.00301   0.00540   0.01884   0.02027   0.03333
     Eigenvalues ---    0.03909   0.04008   0.05043   0.05161   0.05216
     Eigenvalues ---    0.05509   0.05683   0.05877   0.07171   0.07277
     Eigenvalues ---    0.07601   0.07677   0.07679   0.09252   0.09666
     Eigenvalues ---    0.11554   0.11750   0.21310   0.21494   0.25450
     Eigenvalues ---    0.25544   0.28929   0.29935   0.30123   0.30381
     Eigenvalues ---    0.30954   0.31376   0.31639   0.31648   0.31655
     Eigenvalues ---    0.31678   0.31689   0.31698   0.32272
 RFO step:  Lambda=-7.84786733D-03 EMin= 3.01492335D-03
 Quartic linear search produced a step of  1.52950.
 Iteration  1 RMS(Cart)=  0.07900187 RMS(Int)=  0.00850702
 Iteration  2 RMS(Cart)=  0.00636597 RMS(Int)=  0.00586697
 Iteration  3 RMS(Cart)=  0.00003193 RMS(Int)=  0.00586691
 Iteration  4 RMS(Cart)=  0.00000019 RMS(Int)=  0.00586691
 ClnCor:  largest displacement from symmetrization is 1.26D-10 for atom    10.
 Variable       Old X    -DE/DX   Delta X   Delta X   Delta X     New X
                                 (Linear)    (Quad)   (Total)
    R1        2.89787   0.00423   0.03361  -0.01106   0.02208   2.91996
    R2        2.97585  -0.00415   0.00860  -0.06600  -0.05610   2.91975
    R3        2.07703  -0.00841  -0.05712   0.03096  -0.02617   2.05087
    R4        2.09360  -0.00746  -0.03242  -0.00312  -0.03554   2.05806
    R5        2.89071   0.00793   0.04598  -0.01628   0.02803   2.91874
    R6        2.08544  -0.00767  -0.04535   0.01688  -0.02848   2.05696
    R7        2.08566  -0.00785  -0.04335   0.01226  -0.03109   2.05456
    R8        2.89787   0.00423   0.03361  -0.01106   0.02208   2.91996
    R9        2.08544  -0.00767  -0.04535   0.01688  -0.02848   2.05696
   R10        2.08566  -0.00785  -0.04335   0.01226  -0.03109   2.05456
   R11        2.97585  -0.00415   0.00860  -0.06600  -0.05610   2.91975
   R12        2.07703  -0.00841  -0.05712   0.03096  -0.02617   2.05087
   R13        2.09360  -0.00746  -0.03242  -0.00312  -0.03554   2.05806
   R14        2.09354  -0.01055  -0.05271   0.00559  -0.04712   2.04642
   R15        2.09354  -0.01055  -0.05271   0.00559  -0.04712   2.04642
    A1        1.85880   0.00311   0.02569  -0.01087   0.00742   1.86621
    A2        1.95066   0.00417   0.03358  -0.00746   0.00796   1.95862
    A3        1.91525  -0.00158  -0.01778   0.01253  -0.01799   1.89725
    A4        2.16523  -0.01440  -0.15339  -0.04664  -0.19681   1.96842
    A5        1.69486   0.01191   0.15695   0.04878   0.21018   1.90505
    A6        1.85386  -0.00184  -0.02280   0.01879   0.01326   1.86713
    A7        1.88370  -0.00236  -0.00542  -0.00122  -0.00569   1.87801
    A8        1.94886   0.00438   0.03589  -0.02347   0.01132   1.96018
    A9        1.91584  -0.00236  -0.02183   0.01498  -0.00636   1.90948
   A10        1.91681  -0.00235  -0.02046   0.03229   0.01184   1.92865
   A11        1.93892   0.00381   0.02574  -0.03640  -0.01135   1.92757
   A12        1.86041  -0.00097  -0.01349   0.01312   0.00003   1.86045
   A13        1.88370  -0.00236  -0.00542  -0.00122  -0.00569   1.87801
   A14        1.91681  -0.00235  -0.02046   0.03229   0.01184   1.92865
   A15        1.93892   0.00381   0.02574  -0.03640  -0.01135   1.92757
   A16        1.94886   0.00438   0.03589  -0.02347   0.01132   1.96018
   A17        1.91584  -0.00236  -0.02183   0.01498  -0.00636   1.90948
   A18        1.86041  -0.00097  -0.01349   0.01312   0.00003   1.86045
   A19        1.85880   0.00311   0.02569  -0.01087   0.00742   1.86621
   A20        1.95066   0.00417   0.03358  -0.00746   0.00796   1.95862
   A21        1.91525  -0.00158  -0.01778   0.01253  -0.01799   1.89725
   A22        2.16523  -0.01440  -0.15339  -0.04664  -0.19681   1.96842
   A23        1.69486   0.01191   0.15695   0.04878   0.21018   1.90505
   A24        1.85386  -0.00184  -0.02280   0.01879   0.01326   1.86713
   A25        1.86785   0.00059  -0.01155   0.03429   0.02930   1.89715
   A26        2.04691  -0.01103  -0.13378  -0.00191  -0.13640   1.91051
   A27        1.81553   0.01050   0.13492  -0.00979   0.12732   1.94285
   A28        1.81553   0.01050   0.13492  -0.00979   0.12732   1.94285
   A29        2.04691  -0.01103  -0.13378  -0.00191  -0.13640   1.91051
   A30        1.88176  -0.00139  -0.02216  -0.01051  -0.02147   1.86029
    D1        0.29487  -0.00414  -0.05361  -0.02157  -0.07680   0.21807
    D2        2.40323  -0.00591  -0.06043   0.00323  -0.05885   2.34438
    D3       -1.82068  -0.00592  -0.06861   0.01460  -0.05592  -1.87660
    D4       -2.11978   0.00938   0.10873   0.06055   0.17078  -1.94900
    D5       -0.01141   0.00761   0.10191   0.08534   0.18873   0.17732
    D6        2.04786   0.00760   0.09373   0.09672   0.19166   2.23952
    D7        2.11153   0.01011   0.12741   0.03385   0.16105   2.27258
    D8       -2.06329   0.00834   0.12058   0.05865   0.17901  -1.88429
    D9       -0.00402   0.00834   0.11241   0.07002   0.18193   0.17791
   D10       -0.11121   0.00127   0.01898   0.00787   0.02806  -0.08315
   D11        1.91849   0.00849   0.10481   0.01918   0.12383   2.04232
   D12       -2.28911   0.00809   0.10653  -0.00227   0.10033  -2.18878
   D13        2.18983  -0.00298  -0.06083  -0.06336  -0.11193   2.07790
   D14       -2.06366   0.00425   0.02499  -0.05205  -0.01616  -2.07982
   D15        0.01193   0.00385   0.02671  -0.07351  -0.03966  -0.02773
   D16       -2.08465  -0.00231  -0.02068  -0.02105  -0.04789  -2.13254
   D17       -0.05495   0.00491   0.06515  -0.00974   0.04788  -0.00707
   D18        2.02063   0.00451   0.06687  -0.03119   0.02438   2.04501
   D19       -0.37239   0.00638   0.07537   0.02695   0.10053  -0.27187
   D20       -2.50067   0.00393   0.04719   0.03686   0.08300  -2.41767
   D21        1.72873   0.00427   0.06067   0.02270   0.08257   1.81130
   D22       -2.50067   0.00393   0.04719   0.03686   0.08300  -2.41767
   D23        1.65425   0.00147   0.01901   0.04676   0.06546   1.71971
   D24       -0.39954   0.00181   0.03249   0.03260   0.06504  -0.33451
   D25        1.72873   0.00427   0.06067   0.02270   0.08257   1.81130
   D26       -0.39954   0.00181   0.03249   0.03260   0.06504  -0.33451
   D27       -2.45333   0.00216   0.04596   0.01844   0.06461  -2.38872
   D28        0.29487  -0.00414  -0.05361  -0.02157  -0.07680   0.21807
   D29       -2.11978   0.00938   0.10873   0.06055   0.17078  -1.94900
   D30        2.11153   0.01011   0.12741   0.03385   0.16105   2.27258
   D31        2.40323  -0.00591  -0.06043   0.00323  -0.05885   2.34438
   D32       -0.01141   0.00761   0.10191   0.08534   0.18873   0.17732
   D33       -2.06329   0.00834   0.12058   0.05865   0.17901  -1.88429
   D34       -1.82068  -0.00592  -0.06861   0.01460  -0.05592  -1.87660
   D35        2.04786   0.00760   0.09373   0.09672   0.19166   2.23952
   D36       -0.00402   0.00834   0.11241   0.07002   0.18193   0.17791
   D37       -0.11121   0.00127   0.01898   0.00787   0.02806  -0.08315
   D38       -2.28911   0.00809   0.10653  -0.00227   0.10033  -2.18878
   D39        1.91849   0.00849   0.10481   0.01918   0.12383   2.04232
   D40        2.18983  -0.00298  -0.06083  -0.06336  -0.11193   2.07790
   D41        0.01193   0.00385   0.02671  -0.07351  -0.03966  -0.02773
   D42       -2.06366   0.00425   0.02499  -0.05205  -0.01616  -2.07982
   D43       -2.08465  -0.00231  -0.02068  -0.02105  -0.04789  -2.13254
   D44        2.02063   0.00451   0.06687  -0.03119   0.02438   2.04501
   D45       -0.05495   0.00491   0.06515  -0.00974   0.04788  -0.00707
         Item               Value     Threshold  Converged?
 Maximum Force            0.014398     0.000002     NO 
 RMS     Force            0.006523     0.000001     NO 
[...]
 Alpha virt. eigenvalues --    5.25549   5.28294   5.32924   5.35853   5.36748
 Alpha virt. eigenvalues --    5.41603   5.49700   5.51081   5.61998   5.63609
 Alpha virt. eigenvalues --    5.63860   5.64458   5.64753   5.73193   5.73380
 Alpha virt. eigenvalues --    5.83143   5.87352   5.91984   5.99119   6.00408
 Alpha virt. eigenvalues --    6.07416   6.08180   6.13793   6.14228   6.14926
 Alpha virt. eigenvalues --    6.16416   6.19461   6.19908   6.22430   6.25351
 Alpha virt. eigenvalues --    6.25943   6.26466   6.28254   6.31893   6.33142
 Alpha virt. eigenvalues --    6.33844   6.36863   6.41339   6.42854   6.50022
 Alpha virt. eigenvalues --    6.50293   6.50348   6.55336   6.56463   6.57239
 Alpha virt. eigenvalues --    6.63501   6.66983   6.73320   6.83596   6.85955
 Alpha virt. eigenvalues --    6.88939   6.91426   6.92890   6.94016   7.04407
 Alpha virt. eigenvalues --    7.12876   7.23189   7.28615   7.31552   7.32398
 Alpha virt. eigenvalues --    7.38197   7.40004   7.42973   7.48351   7.54471
 Alpha virt. eigenvalues --    8.16927   8.36278   8.41950   8.45744   8.46990
 Alpha virt. eigenvalues --    8.51817   8.56404   8.61401   8.64476   8.65349
 Alpha virt. eigenvalues --    8.69787   8.75051   8.83054   8.83556   8.92665
 Alpha virt. eigenvalues --    8.98435   9.11695   9.17943   9.25466   9.30818
 Alpha virt. eigenvalues --    9.42227   9.43058   9.54710   9.65702   9.69658
 Alpha virt. eigenvalues --    9.73193   9.77030   9.77795   9.83794   9.84706
 Alpha virt. eigenvalues --    9.88768   9.98201   9.98416  10.04740  10.14011
 Alpha virt. eigenvalues --   21.30345  21.44415  21.50024  21.52105  21.57391
 Alpha virt. eigenvalues --   21.62873  21.63649  21.69530  21.71808  21.73411
 Alpha virt. eigenvalues --   21.90394  21.97386  22.02074  22.02472  22.26521
 Alpha virt. eigenvalues --   22.91908  23.46001  23.51883  24.07941  24.35162
          Condensed to atoms (all electrons):
               1          2          3          4          5          6
     1  C    5.014376   0.279796  -0.073513  -0.045671   0.260638   0.454634
     2  C    0.279796   4.954265   0.275674  -0.073513  -0.059145  -0.054311
     3  C   -0.073513   0.275674   4.954265   0.279796  -0.059145  -0.002638
     4  C   -0.045671  -0.073513   0.279796   5.014376   0.260638   0.011009
     5  C    0.260638  -0.059145  -0.059145   0.260638   5.093037  -0.068569
     6  H    0.454634  -0.054311  -0.002638   0.011009  -0.068569   0.590768
     7  H    0.428877  -0.029951   0.015723   0.002520  -0.035279  -0.019103
     8  H   -0.025952   0.426302  -0.030565   0.013262   0.010299  -0.005904
     9  H   -0.057546   0.449028  -0.045349  -0.002713   0.000727   0.007851
    10  H    0.013262  -0.030565   0.426302  -0.025952   0.010299  -0.000523
    11  H   -0.002713  -0.045349   0.449028  -0.057546   0.000727   0.000155
    12  H    0.011009  -0.002638  -0.054311   0.454634  -0.068569  -0.000404
    13  H    0.002520   0.015723  -0.029951   0.428877  -0.035279  -0.000517
    14  H   -0.050462  -0.003817   0.018378  -0.047719   0.429105   0.006320
    15  H   -0.047719   0.018378  -0.003817  -0.050462   0.429105  -0.006912
               7          8          9         10         11         12
     1  C    0.428877  -0.025952  -0.057546   0.013262  -0.002713   0.011009
     2  C   -0.029951   0.426302   0.449028  -0.030565  -0.045349  -0.002638
     3  C    0.015723  -0.030565  -0.045349   0.426302   0.449028  -0.054311
     4  C    0.002520   0.013262  -0.002713  -0.025952  -0.057546   0.454634
     5  C   -0.035279   0.010299   0.000727   0.010299   0.000727  -0.068569
     6  H   -0.019103  -0.005904   0.007851  -0.000523   0.000155  -0.000404
     7  H    0.586596  -0.002090  -0.006479  -0.000335  -0.000580  -0.000517
     8  H   -0.002090   0.588389  -0.019613  -0.000808  -0.006199  -0.000523
     9  H   -0.006479  -0.019613   0.593037  -0.006199   0.006943   0.000155
    10  H   -0.000335  -0.000808  -0.006199   0.588389  -0.019613  -0.005904
    11  H   -0.000580  -0.006199   0.006943  -0.019613   0.593037   0.007851
    12  H   -0.000517  -0.000523   0.000155  -0.005904   0.007851   0.590768
    13  H   -0.000179  -0.000335  -0.000580  -0.002090  -0.006479  -0.019103
    14  H   -0.002810  -0.000324   0.000938  -0.000661  -0.000431  -0.006912
    15  H    0.000469  -0.000661  -0.000431  -0.000324   0.000938   0.006320
              13         14         15
     1  C    0.002520  -0.050462  -0.047719
     2  C    0.015723  -0.003817   0.018378
     3  C   -0.029951   0.018378  -0.003817
     4  C    0.428877  -0.047719  -0.050462
     5  C   -0.035279   0.429105   0.429105
     6  H   -0.000517   0.006320  -0.006912
     7  H   -0.000179  -0.002810   0.000469
     8  H   -0.000335  -0.000324  -0.000661
     9  H   -0.000580   0.000938  -0.000431
    10  H   -0.002090  -0.000661  -0.000324
    11  H   -0.006479  -0.000431   0.000938
    12  H   -0.019103  -0.006912   0.006320
    13  H    0.586596   0.000469  -0.002810
    14  H    0.000469   0.594073  -0.015616
    15  H   -0.002810  -0.015616   0.594073
          Atomic-Atomic Spin Densities.
               1          2          3          4          5          6
     1  C    0.000000   0.000000   0.000000   0.000000   0.000000   0.000000
     2  C    0.000000   0.000000   0.000000   0.000000   0.000000   0.000000
     3  C    0.000000   0.000000   0.000000   0.000000   0.000000   0.000000
     4  C    0.000000   0.000000   0.000000   0.000000   0.000000   0.000000
     5  C    0.000000   0.000000   0.000000   0.000000   0.000000   0.000000
     6  H    0.000000   0.000000   0.000000   0.000000   0.000000   0.000000
     7  H    0.000000   0.000000   0.000000   0.000000   0.000000   0.000000
     8  H    0.000000   0.000000   0.000000   0.000000   0.000000   0.000000
     9  H    0.000000   0.000000   0.000000   0.000000   0.000000   0.000000
    10  H    0.000000   0.000000   0.000000   0.000000   0.000000   0.000000
    11  H    0.000000   0.000000   0.000000   0.000000   0.000000   0.000000
    12  H    0.000000   0.000000   0.000000   0.000000   0.000000   0.000000
    13  H    0.000000   0.000000   0.000000   0.000000   0.000000   0.000000
    14  H    0.000000   0.000000   0.000000   0.000000   0.000000   0.000000
    15  H    0.000000   0.000000   0.000000   0.000000   0.000000   0.000000
               7          8          9         10         11         12
     1  C    0.000000   0.000000   0.000000   0.000000   0.000000   0.000000
     2  C    0.000000   0.000000   0.000000   0.000000   0.000000   0.000000
     3  C    0.000000   0.000000   0.000000   0.000000   0.000000   0.000000
     4  C    0.000000   0.000000   0.000000   0.000000   0.000000   0.000000
     5  C    0.000000   0.000000   0.000000   0.000000   0.000000   0.000000
     6  H    0.000000   0.000000   0.000000   0.000000   0.000000   0.000000
     7  H    0.000000   0.000000   0.000000   0.000000   0.000000   0.000000
     8  H    0.000000   0.000000   0.000000   0.000000   0.000000   0.000000
     9  H    0.000000   0.000000   0.000000   0.000000   0.000000   0.000000
    10  H    0.000000   0.000000   0.000000   0.000000   0.000000   0.000000
    11  H    0.000000   0.000000   0.000000   0.000000   0.000000   0.000000
    12  H    0.000000   0.000000   0.000000   0.000000   0.000000   0.000000
    13  H    0.000000   0.000000   0.000000   0.000000   0.000000   0.000000
    14  H    0.000000   0.000000   0.000000   0.000000   0.000000   0.000000
    15  H    0.000000   0.000000   0.000000   0.000000   0.000000   0.000000
              13         14         15
     1  C    0.000000   0.000000   0.000000
     2  C    0.000000   0.000000   0.000000
     3  C    0.000000   0.000000   0.000000
     4  C    0.000000   0.000000   0.000000
     5  C    0.000000   0.000000   0.000000
     6  H    0.000000   0.000000   0.000000
     7  H    0.000000   0.000000   0.000000
     8  H    0.000000   0.000000   0.000000
     9  H    0.000000   0.000000   0.000000
    10  H    0.000000   0.000000   0.000000
    11  H    0.000000   0.000000   0.000000
    12  H    0.000000   0.000000   0.000000
    13  H    0.000000   0.000000   0.000000
    14  H    0.000000   0.000000   0.000000
    15  H    0.000000   0.000000   0.000000
 Mulliken charges and spin densities:
               1          2
     1  C   -0.161535   0.000000
     2  C   -0.119876   0.000000
     3  C   -0.119876   0.000000
     4  C   -0.161535   0.000000
     5  C   -0.168591   0.000000
     6  H    0.088145   0.000000
     7  H    0.063139   0.000000
     8  H    0.054724   0.000000
     9  H    0.080231   0.000000
    10  H    0.054724   0.000000
    11  H    0.080231   0.000000
    12  H    0.088145   0.000000
    13  H    0.063139   0.000000
    14  H    0.079468   0.000000
    15  H    0.079468   0.000000
 Sum of Mulliken charges =  -0.00000   0.00000
 Mulliken charges and spin densities with hydrogens summed into heavy atoms:
               1          2
     1  C   -0.010252   0.000000
     2  C    0.015079   0.000000
     3  C    0.015079   0.000000
     4  C   -0.010252   0.000000
     5  C   -0.009655   0.000000
 Electronic spatial extent (au):  <R**2>=            414.2079
 Charge=              0.0000 electrons
 Dipole moment (field-independent basis, Debye):
    X=             -0.0000    Y=             -0.0000    Z=             -0.0146  Tot=              0.0146
 Quadrupole moment (field-independent basis, Debye-Ang):
   XX=            -32.8256   YY=            -34.1619   ZZ=            -34.1806
   XY=             -0.1138   XZ=             -0.0000   YZ=              0.0000
 Traceless Quadrupole moment (field-independent basis, Debye-Ang):
   XX=              0.8971   YY=             -0.4392   ZZ=             -0.4579
   XY=             -0.1138   XZ=             -0.0000   YZ=              0.0000
 Octapole moment (field-independent basis, Debye-Ang**2):
  XXX=              0.0000  YYY=              0.0000  ZZZ=             -0.6341  XYY=              0.0000
  XXY=             -0.0000  XXZ=              0.8071  XZZ=             -0.0000  YZZ=              0.0000
  YYZ=             -0.3981  XYZ=              0.9557
 Hexadecapole moment (field-independent basis, Debye-Ang**3):
 XXXX=            -78.4688 YYYY=           -251.6691 ZZZZ=           -253.5878 XXXY=             -9.8565
 XXXZ=              0.0000 YYYX=             -8.2250 YYYZ=             -0.0000 ZZZX=             -0.0000
 ZZZY=              0.0000 XXYY=            -53.2509 XXZZ=            -54.0531 YYZZ=            -82.7146
 XXYZ=             -0.0000 YYXZ=              0.0000 ZZXY=             -4.0554
 N-N= 1.874888742268D+02 E-N=-8.288884520117D+02  KE= 1.950727616789D+02
 Symmetry A    KE= 1.149157676141D+02
 Symmetry B    KE= 8.015699406478D+01
 Symmetry A    SP= 0.000000000000D+00
 Symmetry B    SP= 0.000000000000D+00
                          Isotropic Fermi Contact Couplings
        Atom                 a.u.       MegaHertz       Gauss      10(-4) cm-1
     1  C(13)              0.00000       0.00000       0.00000       0.00000
     2  C(13)              0.00000       0.00000       0.00000       0.00000
     3  C(13)              0.00000       0.00000       0.00000       0.00000
     4  C(13)              0.00000       0.00000       0.00000       0.00000
     5  C(13)              0.00000       0.00000       0.00000       0.00000
     6  H(1)               0.00000       0.00000       0.00000       0.00000
     7  H(1)               0.00000       0.00000       0.00000       0.00000
     8  H(1)               0.00000       0.00000       0.00000       0.00000
     9  H(1)               0.00000       0.00000       0.00000       0.00000
    10  H(1)               0.00000       0.00000       0.00000       0.00000
    11  H(1)               0.00000       0.00000       0.00000       0.00000
    12  H(1)               0.00000       0.00000       0.00000       0.00000
    13  H(1)               0.00000       0.00000       0.00000       0.00000
    14  H(1)               0.00000       0.00000       0.00000       0.00000
    15  H(1)               0.00000       0.00000       0.00000       0.00000
 --------------------------------------------------------
       Center         ----  Spin Dipole Couplings  ----
                      3XX-RR        3YY-RR        3ZZ-RR
 --------------------------------------------------------
     1   Atom        0.000000      0.000000      0.000000
     2   Atom        0.000000      0.000000      0.000000
     3   Atom        0.000000      0.000000      0.000000
     4   Atom        0.000000      0.000000      0.000000
     5   Atom        0.000000      0.000000      0.000000
     6   Atom        0.000000      0.000000      0.000000
     7   Atom        0.000000      0.000000      0.000000
     8   Atom        0.000000      0.000000      0.000000
     9   Atom        0.000000      0.000000      0.000000
    10   Atom        0.000000      0.000000      0.000000
    11   Atom        0.000000      0.000000      0.000000
    12   Atom        0.000000      0.000000      0.000000
    13   Atom        0.000000      0.000000      0.000000
    14   Atom        0.000000      0.000000      0.000000
    15   Atom        0.000000      0.000000      0.000000
 --------------------------------------------------------
                        XY            XZ            YZ
 --------------------------------------------------------
     1   Atom        0.000000      0.000000      0.000000
     2   Atom        0.000000      0.000000      0.000000
     3   Atom        0.000000      0.000000      0.000000
     4   Atom        0.000000      0.000000      0.000000
     5   Atom        0.000000      0.000000      0.000000
     6   Atom        0.000000      0.000000      0.000000
     7   Atom        0.000000      0.000000      0.000000
     8   Atom        0.000000      0.000000      0.000000
     9   Atom        0.000000      0.000000      0.000000
    10   Atom        0.000000      0.000000      0.000000
    11   Atom        0.000000      0.000000      0.000000
    12   Atom        0.000000      0.000000      0.000000
    13   Atom        0.000000      0.000000      0.000000
    14   Atom        0.000000      0.000000      0.000000
    15   Atom        0.000000      0.000000      0.000000
 --------------------------------------------------------


 ---------------------------------------------------------------------------------
              Anisotropic Spin Dipole Couplings in Principal Axis System
 ---------------------------------------------------------------------------------

       Atom             a.u.   MegaHertz   Gauss  10(-4) cm-1        Axes

              Baa     0.0000     0.000     0.000     0.000  1.0000  0.0000  0.0000
     1 C(13)  Bbb     0.0000     0.000     0.000     0.000 -0.0000  1.0000  0.0000
              Bcc     0.0000     0.000     0.000     0.000  0.0000  0.0000  1.0000
 
              Baa     0.0000     0.000     0.000     0.000  1.0000  0.0000  0.0000
     2 C(13)  Bbb     0.0000     0.000     0.000     0.000 -0.0000  1.0000  0.0000
              Bcc     0.0000     0.000     0.000     0.000  0.0000  0.0000  1.0000
 
              Baa     0.0000     0.000     0.000     0.000  1.0000  0.0000  0.0000
     3 C(13)  Bbb     0.0000     0.000     0.000     0.000 -0.0000  1.0000  0.0000
              Bcc     0.0000     0.000     0.000     0.000  0.0000  0.0000  1.0000
 
              Baa     0.0000     0.000     0.000     0.000  1.0000  0.0000  0.0000
     4 C(13)  Bbb     0.0000     0.000     0.000     0.000 -0.0000  1.0000  0.0000
              Bcc     0.0000     0.000     0.000     0.000  0.0000  0.0000  1.0000
 
              Baa     0.0000     0.000     0.000     0.000  1.0000  0.0000  0.0000
     5 C(13)  Bbb     0.0000     0.000     0.000     0.000 -0.0000  1.0000  0.0000
              Bcc     0.0000     0.000     0.000     0.000  0.0000  0.0000  1.0000
 
              Baa     0.0000     0.000     0.000     0.000  1.0000  0.0000  0.0000
     6 H(1)   Bbb     0.0000     0.000     0.000     0.000 -0.0000  1.0000  0.0000
              Bcc     0.0000     0.000     0.000     0.000  0.0000  0.0000  1.0000
 
              Baa     0.0000     0.000     0.000     0.000  1.0000  0.0000  0.0000
     7 H(1)   Bbb     0.0000     0.000     0.000     0.000 -0.0000  1.0000  0.0000
              Bcc     0.0000     0.000     0.000     0.000  0.0000  0.0000  1.0000
 
              Baa     0.0000     0.000     0.000     0.000  1.0000  0.0000  0.0000
     8 H(1)   Bbb     0.0000     0.000     0.000     0.000 -0.0000  1.0000  0.0000
              Bcc     0.0000     0.000     0.000     0.000  0.0000  0.0000  1.0000
 
              Baa     0.0000     0.000     0.000     0.000  1.0000  0.0000  0.0000
     9 H(1)   Bbb     0.0000     0.000     0.000     0.000 -0.0000  1.0000  0.0000
              Bcc     0.0000     0.000     0.000     0.000  0.0000  0.0000  1.0000
 
              Baa     0.0000     0.000     0.000     0.000  1.0000  0.0000  0.0000
    10 H(1)   Bbb     0.0000     0.000     0.000     0.000 -0.0000  1.0000  0.0000
              Bcc     0.0000     0.000     0.000     0.000  0.0000  0.0000  1.0000
 
              Baa     0.0000     0.000     0.000     0.000  1.0000  0.0000  0.0000
    11 H(1)   Bbb     0.0000     0.000     0.000     0.000 -0.0000  1.0000  0.0000
              Bcc     0.0000     0.000     0.000     0.000  0.0000  0.0000  1.0000
 
              Baa     0.0000     0.000     0.000     0.000  1.0000  0.0000  0.0000
    12 H(1)   Bbb     0.0000     0.000     0.000     0.000 -0.0000  1.0000  0.0000
              Bcc     0.0000     0.000     0.000     0.000  0.0000  0.0000  1.0000
 
              Baa     0.0000     0.000     0.000     0.000  1.0000  0.0000  0.0000
    13 H(1)   Bbb     0.0000     0.000     0.000     0.000 -0.0000  1.0000  0.0000
              Bcc     0.0000     0.000     0.000     0.000  0.0000  0.0000  1.0000
 
              Baa     0.0000     0.000     0.000     0.000  1.0000  0.0000  0.0000
    14 H(1)   Bbb     0.0000     0.000     0.000     0.000 -0.0000  1.0000  0.0000
              Bcc     0.0000     0.000     0.000     0.000  0.0000  0.0000  1.0000
 
              Baa     0.0000     0.000     0.000     0.000  1.0000  0.0000  0.0000
    15 H(1)   Bbb     0.0000     0.000     0.000     0.000 -0.0000  1.0000  0.0000
              Bcc     0.0000     0.000     0.000     0.000  0.0000  0.0000  1.0000
 

 ---------------------------------------------------------------------------------

 1\1\GINC-GAMBA\SP\ROHF\Gen\C5H10\IRIKURA\23-Oct-2023\0\\# rohf/gen geo
 m=check guess=check\\cyclopentane, ROHF/cc-pVTZ-F12\\0,1\C,0,-1.207185
 9331,-0.2843280613,0.3598574808\C,0,-0.7504035602,0.1553361581,-1.0408
 530836\C,0,0.7504035602,-0.1553361581,-1.0408530836\C,0,1.2071859331,0
 .2843280613,0.3598574808\C,0,0.,0.,1.2933227586\H,0,-1.4295883416,-1.3
 532697191,0.3514695249\H,0,-2.1149395015,0.224439675,0.6841037607\H,0,
 -1.2956191478,-0.3454727674,-1.8415320492\H,0,-0.9026972284,1.23094986
 3,-1.1671815372\H,0,1.2956191478,0.3454727674,-1.8415320492\H,0,0.9026
 972284,-1.230949863,-1.1671815372\H,0,1.4295883416,1.3532697191,0.3514
 695249\H,0,2.1149395015,-0.224439675,0.6841037607\H,0,-0.1946839969,0.
 8516038322,1.9452999898\H,0,0.1946839969,-0.8516038322,1.9452999898\\V
 ersion=ES64L-G16RevB.01\State=1-A\HF=-195.2402073\RMSD=2.673e-09\Dipol
 e=0.,0.,-0.0057501\Quadrupole=-0.3120514,0.6525082,-0.3404568,-0.14600
 27,0.,0.\PG=C02 [C2(C1),X(C4H10)]\\@


 IT IS BY EATING THE LIGHT OF A STAR THAT WE EXIST, 
 IN THE FINAL ANALYSIS, 
 JUST AS IT IS BY PERCEIVING THE LIGHT OF STARS
 THAT WE DEFINE THE WORLD AROUND US.

                                    -- GILBERT GROSVENOR
 Job cpu time:       0 days  0 hours 12 minutes 14.1 seconds.
 Elapsed time:       0 days  0 hours  3 minutes  3.7 seconds.
 File lengths (MBytes):  RWF=    145 Int=      0 D2E=      0 Chk=     55 Scr=      1
 Normal termination of Gaussian 16 at Mon Oct 23 10:30:18 2023.
