 Entering Gaussian System, Link 0=g16
 AtFile(1): pcseg2.gbs
            -H     0
            S   4   1.00
                  0.754732D+02           0.427821D-02
                  0.113575D+02           0.328672D-01
                  0.260081D+01           0.159578D+00
                  0.735503D+00           0.500000D+00
            S   1   1.00
                  0.231761D+00           1.0000000
            S   1   1.00
                  0.741675D-01           1.0000000
            P   1   1.00
                  0.160000D+01           1.0000000
            P   1   1.00
                  0.450000D+00           1.0000000
            D   1   1.00
                  0.125000D+01           1.0000000
            ****
            -C     0
            S   7   1.00
                  0.731999D+04           0.695369D-03
                  0.109818D+04           0.537138D-02
                  0.250014D+03           0.274734D-01
                  0.707586D+02           0.105078D+00
                  0.228595D+02           0.291262D+00
                  0.803936D+01           0.500000D+00
                  0.289309D+01           0.362224D+00
            S   2   1.00
                  0.521640D+01          -0.957844D-01
                  0.556124D+00           0.500000D+00
            S   1   1.00
                  0.228813D+00           1.0000000
            S   1   1.00
                  0.936338D-01           1.0000000
            P   4   1.00
                  0.339855D+02           0.818395D-02
                  0.772957D+01           0.586921D-01
                  0.224954D+01           0.222514D+00
                  0.767681D+00           0.500000D+00
            P   1   1.00
                  0.263283D+00           1.0000000
            P   1   1.00
                  0.848744D-01           1.0000000
            D   1   1.00
                  0.140000D+01           1.0000000
            D   1   1.00
                  0.450000D+00           1.0000000
            F   1   1.00
                  0.950000D+00           1.0000000
            ****
            -O     0
            S   7   1.00
                  0.135887D+05           0.665492D-03
                  0.203847D+04           0.514222D-02
                  0.464041D+03           0.263472D-01
                  0.131339D+03           0.101500D+00
                  0.425340D+02           0.285877D+00
                  0.150429D+02           0.500000D+00
                  0.546616D+01           0.368211D+00
            S   2   1.00
                  0.100915D+02          -0.100084D+00
                  0.110429D+01           0.500000D+00
            S   1   1.00
                  0.448082D+00           1.0000000
            S   1   1.00
                  0.175325D+00           1.0000000
            P   4   1.00
                  0.608220D+02           0.908253D-02
                  0.140332D+02           0.645878D-01
                  0.418244D+01           0.241502D+00
                  0.142490D+01           0.500000D+00
            P   1   1.00
                  0.478741D+00           1.0000000
            P   1   1.00
                  0.146257D+00           1.0000000
            D   1   1.00
                  0.220000D+01           1.0000000
            D   1   1.00
                  0.650000D+00           1.0000000
            F   1   1.00
                  0.110000D+01           1.0000000
            ****
            -N     0
            S   7   1.00
                  0.101643D+05           0.682757D-03
                  0.152481D+04           0.527488D-02
                  0.347119D+03           0.270037D-01
                  0.982389D+02           0.103673D+00
                  0.317799D+02           0.289575D+00
                  0.112240D+02           0.500000D+00
                  0.406611D+01           0.364621D+00
            S   2   1.00
                  0.747898D+01          -0.975681D-01
                  0.805040D+00           0.500000D+00
            S   1   1.00
                  0.324626D+00           1.0000000
            S   1   1.00
                  0.128132D+00           1.0000000
            P   4   1.00
                  0.482704D+02           0.829547D-02
                  0.110815D+02           0.596223D-01
                  0.326643D+01           0.227889D+00
                  0.111680D+01           0.500000D+00
            P   1   1.00
                  0.382049D+00           1.0000000
            P   1   1.00
                  0.121222D+00           1.0000000
            D   1   1.00
                  0.180000D+01           1.0000000
            D   1   1.00
                  0.550000D+00           1.0000000
            F   1   1.00
                  0.102000D+01           1.0000000
            ****
            -F     0
            S   7   1.00
                  0.174507D+05           0.655972D-03
                  0.261768D+04           0.506944D-02
                  0.595857D+03           0.259899D-01
                  0.168651D+03           0.100353D+00
                  0.546654D+02           0.284095D+00
                  0.193717D+02           0.500000D+00
                  0.706202D+01           0.370721D+00
            S   2   1.00
                  0.131197D+02          -0.101997D+00
                  0.145046D+01           0.500000D+00
            S   1   1.00
                  0.588255D+00           1.0000000
            S   1   1.00
                  0.227960D+00           1.0000000
            P   4   1.00
                  0.779407D+02           0.931135D-02
                  0.180425D+02           0.663964D-01
                  0.542342D+01           0.246386D+00
                  0.184876D+01           0.500000D+00
            P   1   1.00
                  0.617455D+00           1.0000000
            P   1   1.00
                  0.185496D+00           1.0000000
            D   1   1.00
                  0.280000D+01           1.0000000
            D   1   1.00
                  0.800000D+00           1.0000000
            F   1   1.00
                  0.120000D+01           1.0000000
            ****
            -Cl     0
            S   8   1.00
                  0.154272D+06           0.222473D-03
                  0.231232D+05           0.172590D-02
                  0.526257D+04           0.899286D-02
                  0.148995D+04           0.367724D-01
                  0.485417D+03           0.121446D+00
                  0.174634D+03           0.304148D+00
                  0.672393D+02           0.500000D+00
                  0.265780D+02           0.360252D+00
            S   3   1.00
                  0.131826D+03          -0.531330D-01
                  0.400703D+02          -0.233346D+00
                  0.789448D+01           0.500000D+00
            S   2   1.00
                  0.427711D+01           0.500000D+00
                  0.196233D+01           0.370517D+00
            S   1   1.00
                  0.520793D+00           1.0000000
            S   1   1.00
                  0.181633D+00           1.0000000
            P   7   1.00
                  0.124440D+04           0.988206D-03
                  0.295109D+03           0.829674D-02
                  0.947224D+02           0.430906D-01
                  0.352588D+02           0.148443D+00
                  0.144211D+02           0.344744D+00
                  0.610371D+01           0.500000D+00
                  0.258886D+01           0.348278D+00
            P   2   1.00
                  0.109447D+02          -0.196768D-01
                  0.104413D+01           0.500000D+00
            P   1   1.00
                  0.376184D+00           1.0000000
            P   1   1.00
                  0.120613D+00           1.0000000
            D   1   1.00
                  0.231000D+01           1.0000000
            D   1   1.00
                  0.520000D+00           1.0000000
            F   1   1.00
                  0.720000D+00           1.0000000
            ****
            -S     0
            S   8   1.00
                  0.134700D+06           0.226231D-03
                  0.201904D+05           0.175488D-02
                  0.459528D+04           0.914190D-02
                  0.130109D+04           0.373551D-01
                  0.423902D+03           0.123121D+00
                  0.152485D+03           0.306801D+00
                  0.586925D+02           0.500000D+00
                  0.231461D+02           0.354358D+00
            S   3   1.00
                  0.116327D+03          -0.491772D-01
                  0.352841D+02          -0.215962D+00
                  0.677831D+01           0.500000D+00
            S   2   1.00
                  0.360404D+01           0.500000D+00
                  0.164871D+01           0.366278D+00
            S   1   1.00
                  0.421821D+00           1.0000000
            S   1   1.00
                  0.147554D+00           1.0000000
            P   7   1.00
                  0.104863D+04           0.105273D-02
                  0.248717D+03           0.879338D-02
                  0.797887D+02           0.453358D-01
                  0.296023D+02           0.154476D+00
                  0.120627D+02           0.352366D+00
                  0.507628D+01           0.500000D+00
                  0.213375D+01           0.346429D+00
            P   2   1.00
                  0.928958D+01          -0.185932D-01
                  0.837819D+00           0.500000D+00
            P   1   1.00
                  0.301495D+00           1.0000000
            P   1   1.00
                  0.974740D-01           1.0000000
            D   1   1.00
                  0.210000D+01           1.0000000
            D   1   1.00
                  0.480000D+00           1.0000000
            F   1   1.00
                  0.660000D+00           1.0000000
            ****
            -Br     0
            S    10   1.00
                  0.233625D+07           0.532336D-04
                  0.349961D+06           0.413715D-03
                  0.796444D+05           0.217123D-02
                  0.225555D+05           0.910109D-02
                  0.735546D+04           0.323789D-01
                  0.265352D+04           0.988755D-01
                  0.103517D+04           0.248138D+00
                  0.422205D+03           0.474328D+00
                  0.180035D+03           0.500000D+00
                  0.793308D+02           0.187769D+00
            S    4   1.00
                  0.620834D+03          -0.226511D-01
                  0.190829D+03          -0.109497D+00
                  0.312505D+02           0.500000D+00
                  0.135270D+02           0.492812D+00
            S    2   1.00
                  0.216097D+02          -0.165418D+00
                  0.372566D+01           0.500000D+00
            S    1   1.00
                  0.169770D+01           1.0000000
            S    1   1.00
                  0.489332D+00           1.0000000
            S    1   1.00
                  0.175712D+00           1.0000000
            P    8   1.00
                  0.960829D+04           0.478974D-03
                  0.227618D+04           0.417853D-02
                  0.736723D+03           0.229315D-01
                  0.281579D+03           0.892653D-01
                  0.118395D+03           0.255288D+00
                  0.527481D+02           0.479074D+00
                  0.245098D+02           0.500000D+00
                  0.112009D+02           0.200944D+00
            P    4   1.00
                  0.587849D+02          -0.189674D-01
                  0.918962D+01           0.264104D+00
                  0.413895D+01           0.500000D+00
                  0.184225D+01           0.319316D+00
            P    1   1.00
                  0.713862D+00           1.0000000
            P    1   1.00
                  0.274232D+00           1.0000000
            P    1   1.00
                  0.944411D-01           1.0000000
            D    7   1.00
                  0.398470D+03           0.204066D-02
                  0.118967D+03           0.175171D-01
                  0.450197D+02           0.829708D-01
                  0.190320D+02           0.236284D+00
                  0.855686D+01           0.428468D+00
                  0.382950D+01           0.500000D+00
                  0.166291D+01           0.349360D+00
            D    1   1.00
                  0.672953D+00           1.0000000
            D    1   1.00
                  0.252000D+00           1.0000000
            F    1   1.00
                  0.530000D+00           1.0000000
            ****
            -Si     0
            S    8   1.00
                  0.996133D+05           0.235546D-03
                  0.149311D+05           0.182707D-02
                  0.339820D+04           0.951425D-02
                  0.962140D+03           0.388172D-01
                  0.313430D+03           0.127328D+00
                  0.112683D+03           0.313522D+00
                  0.433372D+02           0.500000D+00
                  0.170029D+02           0.340347D+00
            S    3   1.00
                  0.884208D+02          -0.404451D-01
                  0.266756D+02          -0.178059D+00
                  0.479640D+01           0.500000D+00
            S    2   1.00
                  0.239385D+01           0.500000D+00
                  0.108333D+01           0.338016D+00
            S    1   1.00
                  0.252420D+00           1.0000000
            S    1   1.00
                  0.891210D-01           1.0000000
            P    7   1.00
                  0.709901D+03           0.123028D-02
                  0.168426D+03           0.101366D-01
                  0.539946D+02           0.511840D-01
                  0.198646D+02           0.169967D+00
                  0.801369D+01           0.370717D+00
                  0.331870D+01           0.500000D+00
                  0.136112D+01           0.344128D+00
            P    2   1.00
                  0.622158D+01          -0.166609D-01
                  0.503049D+00           0.500000D+00
            P    1   1.00
                  0.179848D+00           1.0000000
            P    1   1.00
                  0.591912D-01           1.0000000
            D    1   1.00
                  0.168000D+01           1.0000000
            D    1   1.00
                  0.380000D+00           1.0000000
            F    1   1.00
                  0.540000D+00           1.0000000
            ****
            -P     0
            S    8   1.00
                  0.116416D+06           0.230715D-03
                  0.174500D+05           0.178960D-02
                  0.397149D+04           0.932116D-02
                  0.112447D+04           0.380591D-01
                  0.366347D+03           0.125148D+00
                  0.131757D+03           0.310022D+00
                  0.506988D+02           0.500000D+00
                  0.199436D+02           0.347528D+00
            S    3   1.00
                  0.101878D+03          -0.446755D-01
                  0.308249D+02          -0.196376D+00
                  0.573688D+01           0.500000D+00
            S    2   1.00
                  0.296868D+01           0.500000D+00
                  0.135315D+01           0.355098D+00
            S    1   1.00
                  0.332196D+00           1.0000000
            S    1   1.00
                  0.116229D+00           1.0000000
            P    7   1.00
                  0.873928D+03           0.112375D-02
                  0.207298D+03           0.933330D-02
                  0.664628D+02           0.477213D-01
                  0.245665D+02           0.160733D+00
                  0.996820D+01           0.359760D+00
                  0.416536D+01           0.500000D+00
                  0.173022D+01           0.346593D+00
            P    2   1.00
                  0.772530D+01          -0.175718D-01
                  0.657252D+00           0.500000D+00
            P    1   1.00
                  0.239903D+00           1.0000000
            P    1   1.00
                  0.800988D-01           1.0000000
            D    1   1.00
                  0.189000D+01           1.0000000
            D    1   1.00
                  0.430000D+00           1.0000000
            F    1   1.00
                  0.600000D+00           1.0000000
            ****
            
 Initial command:
 /usr/local/apps/g16_b01_avx/g16/l1.exe "/wrk/irikura/Gau-490503.inp" -scrdir="/wrk/irikura/"
 Entering Link 1 = /usr/local/apps/g16_b01_avx/g16/l1.exe PID=    490505.
  
 Copyright (c) 1988-2017, Gaussian, Inc.  All Rights Reserved.
  
 This is part of the Gaussian(R) 16 program.  It is based on
 the Gaussian(R) 09 system (copyright 2009, Gaussian, Inc.),
 the Gaussian(R) 03 system (copyright 2003, Gaussian, Inc.),
 the Gaussian(R) 98 system (copyright 1998, Gaussian, Inc.),
 the Gaussian(R) 94 system (copyright 1995, Gaussian, Inc.),
 the Gaussian 92(TM) system (copyright 1992, Gaussian, Inc.),
 the Gaussian 90(TM) system (copyright 1990, Gaussian, Inc.),
 the Gaussian 88(TM) system (copyright 1988, Gaussian, Inc.),
 the Gaussian 86(TM) system (copyright 1986, Carnegie Mellon
 University), and the Gaussian 82(TM) system (copyright 1983,
 Carnegie Mellon University). Gaussian is a federally registered
 trademark of Gaussian, Inc.
  
 This software contains proprietary and confidential information,
 including trade secrets, belonging to Gaussian, Inc.
  
 This software is provided under written license and may be
 used, copied, transmitted, or stored only in accord with that
 written license.
  
 The following legend is applicable only to US Government
 contracts under FAR:
  
                    RESTRICTED RIGHTS LEGEND
  
 Use, reproduction and disclosure by the US Government is
 subject to restrictions as set forth in subparagraphs (a)
 and (c) of the Commercial Computer Software - Restricted
 Rights clause in FAR 52.227-19.
  
 Gaussian, Inc.
 340 Quinnipiac St., Bldg. 40, Wallingford CT 06492
  
  
 ---------------------------------------------------------------
 Warning -- This program may not be used in any manner that
 competes with the business of Gaussian, Inc. or will provide
 assistance to any competitor of Gaussian, Inc.  The licensee
 of this program is prohibited from giving any competitor of
 Gaussian, Inc. access to this program.  By using this program,
 the user acknowledges that Gaussian, Inc. is engaged in the
 business of creating and licensing software in the field of
 computational chemistry and represents and warrants to the
 licensee that it is not a competitor of Gaussian, Inc. and that
 it will not use this program in any manner prohibited above.
 ---------------------------------------------------------------
  

 Cite this work as:
 Gaussian 16, Revision B.01,
 M. J. Frisch, G. W. Trucks, H. B. Schlegel, G. E. Scuseria, 
 M. A. Robb, J. R. Cheeseman, G. Scalmani, V. Barone, 
 G. A. Petersson, H. Nakatsuji, X. Li, M. Caricato, A. V. Marenich, 
 J. Bloino, B. G. Janesko, R. Gomperts, B. Mennucci, H. P. Hratchian, 
 J. V. Ortiz, A. F. Izmaylov, J. L. Sonnenberg, D. Williams-Young, 
 F. Ding, F. Lipparini, F. Egidi, J. Goings, B. Peng, A. Petrone, 
 T. Henderson, D. Ranasinghe, V. G. Zakrzewski, J. Gao, N. Rega, 
 G. Zheng, W. Liang, M. Hada, M. Ehara, K. Toyota, R. Fukuda, 
 J. Hasegawa, M. Ishida, T. Nakajima, Y. Honda, O. Kitao, H. Nakai, 
 T. Vreven, K. Throssell, J. A. Montgomery, Jr., J. E. Peralta, 
 F. Ogliaro, M. J. Bearpark, J. J. Heyd, E. N. Brothers, K. N. Kudin, 
 V. N. Staroverov, T. A. Keith, R. Kobayashi, J. Normand, 
 K. Raghavachari, A. P. Rendell, J. C. Burant, S. S. Iyengar, 
 J. Tomasi, M. Cossi, J. M. Millam, M. Klene, C. Adamo, R. Cammi, 
 J. W. Ochterski, R. L. Martin, K. Morokuma, O. Farkas, 
 J. B. Foresman, and D. J. Fox, Gaussian, Inc., Wallingford CT, 2016.
 
 ******************************************
 Gaussian 16:  ES64L-G16RevB.01 20-Dec-2017
                 1-Oct-2023 
 ******************************************
 %chk=cyc6.chk
 %mem=1000mw
 %nprocs=4
 Will use up to    4 processors via shared memory.
 ---------------------------------------
 # b3lyp/gen opt freq CPHF(Grid=OneStep)
 ---------------------------------------
 1/18=20,19=15,26=3,38=1/1,3;
 2/9=110,12=2,17=6,18=5,40=1/2;
 3/5=7,11=2,25=1,30=1,71=1,74=-5/1,2,3;
 4//1;
 5/5=2,38=5/2;
 6/7=2,8=2,9=2,10=2,28=1/1;
 7//1,2,3,16;
 1/18=20,19=15,26=3/3(2);
 2/9=110/2;
 99//99;
 2/9=110/2;
 3/5=7,6=1,11=2,25=1,30=1,71=1,74=-5,82=7/1,2,3;
 4/5=5,16=3,69=1/1;
 5/5=2,38=5/2;
 7//1,2,3,16;
 1/18=20,19=15,26=3/3(-5);
 2/9=110/2;
 6/7=2,8=2,9=2,10=2,19=2,28=1/1;
 99/9=1/99;
 --------------------------
 cyclohexane, B3LYP/pcseg-2
 --------------------------
 Symbolic Z-matrix:
 Charge =  0 Multiplicity = 1
 C                     0.        1.46327   0.22762 
 C                     1.26723  -0.73164   0.22762 
 C                    -1.26723  -0.73164   0.22762 
 C                     0.       -1.46327  -0.22762 
 C                     1.26723   0.73164  -0.22762 
 C                    -1.26723   0.73164  -0.22762 
 H                     0.00001   1.53445   1.32067 
 H                     1.32887  -0.76724   1.32067 
 H                    -1.32888  -0.76721   1.32067 
 H                    -0.00001  -1.53445  -1.32067 
 H                     1.32888   0.76721  -1.32067 
 H                    -1.32887   0.76724  -1.32067 
 H                     0.00005   2.48877  -0.14888 
 H                     2.15531  -1.24443  -0.14888 
 H                    -2.15536  -1.24434  -0.14888 
 H                    -0.00005  -2.48877   0.14888 
 H                     2.15536   1.24434   0.14888 
 H                    -2.15531   1.24443   0.14888 
 

 GradGradGradGradGradGradGradGradGradGradGradGradGradGradGradGradGradGrad
 Berny optimization.
 Initialization pass.
                           ----------------------------
                           !    Initial Parameters    !
                           ! (Angstroms and Degrees)  !
 --------------------------                            --------------------------
 ! Name  Definition              Value          Derivative Info.                !
 --------------------------------------------------------------------------------
 ! R1    R(1,5)                  1.5325         estimate D2E/DX2                !
 ! R2    R(1,6)                  1.5325         estimate D2E/DX2                !
 ! R3    R(1,7)                  1.0954         estimate D2E/DX2                !
 ! R4    R(1,13)                 1.0924         estimate D2E/DX2                !
 ! R5    R(2,4)                  1.5325         estimate D2E/DX2                !
 ! R6    R(2,5)                  1.5325         estimate D2E/DX2                !
 ! R7    R(2,8)                  1.0954         estimate D2E/DX2                !
 ! R8    R(2,14)                 1.0924         estimate D2E/DX2                !
 ! R9    R(3,4)                  1.5325         estimate D2E/DX2                !
 ! R10   R(3,6)                  1.5325         estimate D2E/DX2                !
 ! R11   R(3,9)                  1.0954         estimate D2E/DX2                !
 ! R12   R(3,15)                 1.0924         estimate D2E/DX2                !
 ! R13   R(4,10)                 1.0954         estimate D2E/DX2                !
 ! R14   R(4,16)                 1.0924         estimate D2E/DX2                !
 ! R15   R(5,11)                 1.0954         estimate D2E/DX2                !
 ! R16   R(5,17)                 1.0924         estimate D2E/DX2                !
 ! R17   R(6,12)                 1.0954         estimate D2E/DX2                !
 ! R18   R(6,18)                 1.0924         estimate D2E/DX2                !
 ! A1    A(5,1,6)              111.5695         estimate D2E/DX2                !
 ! A2    A(5,1,7)              109.1141         estimate D2E/DX2                !
 ! A3    A(5,1,13)             110.2281         estimate D2E/DX2                !
 ! A4    A(6,1,7)              109.1154         estimate D2E/DX2                !
 ! A5    A(6,1,13)             110.2329         estimate D2E/DX2                !
 ! A6    A(7,1,13)             106.4341         estimate D2E/DX2                !
 ! A7    A(4,2,5)              111.5694         estimate D2E/DX2                !
 ! A8    A(4,2,8)              109.1141         estimate D2E/DX2                !
 ! A9    A(4,2,14)             110.2281         estimate D2E/DX2                !
 ! A10   A(5,2,8)              109.1154         estimate D2E/DX2                !
 ! A11   A(5,2,14)             110.2329         estimate D2E/DX2                !
 ! A12   A(8,2,14)             106.4341         estimate D2E/DX2                !
 ! A13   A(4,3,6)              111.5694         estimate D2E/DX2                !
 ! A14   A(4,3,9)              109.1154         estimate D2E/DX2                !
 ! A15   A(4,3,15)             110.2329         estimate D2E/DX2                !
 ! A16   A(6,3,9)              109.1141         estimate D2E/DX2                !
 ! A17   A(6,3,15)             110.2281         estimate D2E/DX2                !
 ! A18   A(9,3,15)             106.4342         estimate D2E/DX2                !
 ! A19   A(2,4,3)              111.5695         estimate D2E/DX2                !
 ! A20   A(2,4,10)             109.1154         estimate D2E/DX2                !
 ! A21   A(2,4,16)             110.2329         estimate D2E/DX2                !
 ! A22   A(3,4,10)             109.1141         estimate D2E/DX2                !
 ! A23   A(3,4,16)             110.2281         estimate D2E/DX2                !
 ! A24   A(10,4,16)            106.4341         estimate D2E/DX2                !
 ! A25   A(1,5,2)              111.5694         estimate D2E/DX2                !
 ! A26   A(1,5,11)             109.1154         estimate D2E/DX2                !
 ! A27   A(1,5,17)             110.2329         estimate D2E/DX2                !
 ! A28   A(2,5,11)             109.1141         estimate D2E/DX2                !
 ! A29   A(2,5,17)             110.2281         estimate D2E/DX2                !
 ! A30   A(11,5,17)            106.4342         estimate D2E/DX2                !
 ! A31   A(1,6,3)              111.5694         estimate D2E/DX2                !
 ! A32   A(1,6,12)             109.1141         estimate D2E/DX2                !
 ! A33   A(1,6,18)             110.2281         estimate D2E/DX2                !
 ! A34   A(3,6,12)             109.1154         estimate D2E/DX2                !
 ! A35   A(3,6,18)             110.2329         estimate D2E/DX2                !
 ! A36   A(12,6,18)            106.4341         estimate D2E/DX2                !
 ! D1    D(6,1,5,2)            -54.4545         estimate D2E/DX2                !
 ! D2    D(6,1,5,11)            66.1869         estimate D2E/DX2                !
 ! D3    D(6,1,5,17)          -177.2708         estimate D2E/DX2                !
 ! D4    D(7,1,5,2)             66.1877         estimate D2E/DX2                !
 ! D5    D(7,1,5,11)          -173.1709         estimate D2E/DX2                !
 ! D6    D(7,1,5,17)           -56.6286         estimate D2E/DX2                !
 ! D7    D(13,1,5,2)          -177.2736         estimate D2E/DX2                !
 ! D8    D(13,1,5,11)          -56.6322         estimate D2E/DX2                !
 ! D9    D(13,1,5,17)           59.9101         estimate D2E/DX2                !
 ! D10   D(5,1,6,3)             54.4545         estimate D2E/DX2                !
 ! D11   D(5,1,6,12)           -66.1877         estimate D2E/DX2                !
 ! D12   D(5,1,6,18)           177.2736         estimate D2E/DX2                !
 ! D13   D(7,1,6,3)            -66.187          estimate D2E/DX2                !
 ! D14   D(7,1,6,12)           173.1708         estimate D2E/DX2                !
 ! D15   D(7,1,6,18)            56.6321         estimate D2E/DX2                !
 ! D16   D(13,1,6,3)           177.2708         estimate D2E/DX2                !
 ! D17   D(13,1,6,12)           56.6287         estimate D2E/DX2                !
 ! D18   D(13,1,6,18)          -59.9101         estimate D2E/DX2                !
 ! D19   D(5,2,4,3)            -54.4545         estimate D2E/DX2                !
 ! D20   D(5,2,4,10)            66.187          estimate D2E/DX2                !
 ! D21   D(5,2,4,16)          -177.2708         estimate D2E/DX2                !
 ! D22   D(8,2,4,3)             66.1877         estimate D2E/DX2                !
 ! D23   D(8,2,4,10)          -173.1708         estimate D2E/DX2                !
 ! D24   D(8,2,4,16)           -56.6287         estimate D2E/DX2                !
 ! D25   D(14,2,4,3)          -177.2736         estimate D2E/DX2                !
 ! D26   D(14,2,4,10)          -56.6321         estimate D2E/DX2                !
 ! D27   D(14,2,4,16)           59.9101         estimate D2E/DX2                !
 ! D28   D(4,2,5,1)             54.4545         estimate D2E/DX2                !
 ! D29   D(4,2,5,11)           -66.1877         estimate D2E/DX2                !
 ! D30   D(4,2,5,17)           177.2736         estimate D2E/DX2                !
 ! D31   D(8,2,5,1)            -66.1869         estimate D2E/DX2                !
 ! D32   D(8,2,5,11)           173.1709         estimate D2E/DX2                !
 ! D33   D(8,2,5,17)            56.6322         estimate D2E/DX2                !
 ! D34   D(14,2,5,1)           177.2708         estimate D2E/DX2                !
 ! D35   D(14,2,5,11)           56.6287         estimate D2E/DX2                !
 ! D36   D(14,2,5,17)          -59.9101         estimate D2E/DX2                !
 ! D37   D(6,3,4,2)             54.4545         estimate D2E/DX2                !
 ! D38   D(6,3,4,10)           -66.1877         estimate D2E/DX2                !
 ! D39   D(6,3,4,16)           177.2736         estimate D2E/DX2                !
 ! D40   D(9,3,4,2)            -66.1869         estimate D2E/DX2                !
 ! D41   D(9,3,4,10)           173.1709         estimate D2E/DX2                !
 ! D42   D(9,3,4,16)            56.6322         estimate D2E/DX2                !
 ! D43   D(15,3,4,2)           177.2708         estimate D2E/DX2                !
 ! D44   D(15,3,4,10)           56.6286         estimate D2E/DX2                !
 ! D45   D(15,3,4,16)          -59.9101         estimate D2E/DX2                !
 ! D46   D(4,3,6,1)            -54.4545         estimate D2E/DX2                !
 ! D47   D(4,3,6,12)            66.1869         estimate D2E/DX2                !
 ! D48   D(4,3,6,18)          -177.2708         estimate D2E/DX2                !
 ! D49   D(9,3,6,1)             66.1877         estimate D2E/DX2                !
 ! D50   D(9,3,6,12)          -173.1709         estimate D2E/DX2                !
 ! D51   D(9,3,6,18)           -56.6287         estimate D2E/DX2                !
 ! D52   D(15,3,6,1)          -177.2736         estimate D2E/DX2                !
 ! D53   D(15,3,6,12)          -56.6322         estimate D2E/DX2                !
 ! D54   D(15,3,6,18)           59.9101         estimate D2E/DX2                !
 --------------------------------------------------------------------------------
 Trust Radius=3.00D-01 FncErr=1.00D-07 GrdErr=1.00D-06 EigMax=2.50D+02 EigMin=1.00D-04
 Number of steps in this run=    108 maximum allowed number of steps=    108.
 GradGradGradGradGradGradGradGradGradGradGradGradGradGradGradGradGradGrad

                          Input orientation:                          
 ---------------------------------------------------------------------
 Center     Atomic      Atomic             Coordinates (Angstroms)
 Number     Number       Type             X           Y           Z
 ---------------------------------------------------------------------
      1          6           0        0.000000    1.463273    0.227619
      2          6           0        1.267232   -0.731637    0.227619
      3          6           0       -1.267232   -0.731637    0.227619
      4          6           0        0.000000   -1.463273   -0.227619
      5          6           0        1.267232    0.731637   -0.227619
      6          6           0       -1.267232    0.731637   -0.227619
      7          1           0        0.000014    1.534453    1.320670
      8          1           0        1.328868   -0.767239    1.320670
      9          1           0       -1.328882   -0.767214    1.320670
     10          1           0       -0.000014   -1.534453   -1.320670
     11          1           0        1.328882    0.767214   -1.320670
     12          1           0       -1.328868    0.767239   -1.320670
     13          1           0        0.000052    2.488770   -0.148877
     14          1           0        2.155312   -1.244430   -0.148877
     15          1           0       -2.155364   -1.244340   -0.148877
     16          1           0       -0.000052   -2.488770    0.148877
     17          1           0        2.155364    1.244340    0.148877
     18          1           0       -2.155312    1.244430    0.148877
 ---------------------------------------------------------------------
                    Distance matrix (angstroms):
                    1          2          3          4          5
     1  C    0.000000
     2  C    2.534464   0.000000
     3  C    2.534464   2.534464   0.000000
     4  C    2.961742   1.532452   1.532452   0.000000
     5  C    1.532452   1.532453   2.961743   2.534464   0.000000
     6  C    1.532452   2.961743   1.532453   2.534464   2.534464
     7  H    1.095366   2.817049   2.817062   3.373953   2.155819
     8  H    2.817061   1.095366   2.817049   2.155818   2.155836
     9  H    2.817048   2.817061   1.095366   2.155835   3.373953
    10  H    3.373953   2.155835   2.155819   1.095366   2.817062
    11  H    2.155835   2.155819   3.373953   2.817048   1.095366
    12  H    2.155818   3.373954   2.155836   2.817061   2.817049
    13  H    1.092425   3.481166   3.481204   3.952827   2.167824
    14  H    3.481203   1.092425   3.481166   2.167824   2.167885
    15  H    3.481165   3.481203   1.092425   2.167885   3.952828
    16  H    3.952827   2.167885   2.167824   1.092425   3.481204
    17  H    2.167885   2.167825   3.952828   3.481165   1.092425
    18  H    2.167824   3.952828   2.167885   3.481203   3.481166
                    6          7          8          9         10
     6  C    0.000000
     7  H    2.155835   0.000000
     8  H    3.373954   2.657751   0.000000
     9  H    2.155819   2.657750   2.657750   0.000000
    10  H    2.817049   4.049057   3.054705   3.054705   0.000000
    11  H    2.817061   3.054705   3.054705   4.049056   2.657750
    12  H    1.095366   3.054705   4.049057   3.054705   2.657751
    13  H    2.167885   1.752224   3.811419   3.811439   4.190396
    14  H    3.952828   3.811439   1.752224   3.811419   2.470353
    15  H    2.167825   3.811419   3.811439   1.752224   2.470384
    16  H    3.481166   4.190396   2.470384   2.470353   1.752224
    17  H    3.481203   2.470384   2.470353   4.190396   3.811419
    18  H    1.092425   2.470353   4.190396   2.470384   3.811439
                   11         12         13         14         15
    11  H    0.000000
    12  H    2.657750   0.000000
    13  H    2.470353   2.470384   0.000000
    14  H    2.470384   4.190396   4.310676   0.000000
    15  H    4.190396   2.470353   4.310676   4.310676   0.000000
    16  H    3.811439   3.811419   4.986438   2.506518   2.506518
    17  H    1.752224   3.811439   2.506518   2.506518   4.986438
    18  H    3.811419   1.752224   2.506518   4.986438   2.506518
                   16         17         18
    16  H    0.000000
    17  H    4.310676   0.000000
    18  H    4.310676   4.310676   0.000000
 Stoichiometry    C6H12
 Framework group  S6[X(C6H12)]
 Deg. of freedom     8
 Full point group                 S6      NOp   6
 Largest Abelian subgroup         CI      NOp   2
 Largest concise Abelian subgroup CI      NOp   2
                         Standard orientation:                         
 ---------------------------------------------------------------------
 Center     Atomic      Atomic             Coordinates (Angstroms)
 Number     Number       Type             X           Y           Z
 ---------------------------------------------------------------------
      1          6           0        0.000000    1.463273    0.227619
      2          6           0        1.267232   -0.731637    0.227619
      3          6           0       -1.267232   -0.731636    0.227619
      4          6           0       -0.000000   -1.463273   -0.227619
      5          6           0        1.267232    0.731636   -0.227619
      6          6           0       -1.267232    0.731637   -0.227619
      7          1           0        0.000014    1.534453    1.320670
      8          1           0        1.328868   -0.767239    1.320670
      9          1           0       -1.328882   -0.767214    1.320670
     10          1           0       -0.000014   -1.534453   -1.320670
     11          1           0        1.328882    0.767214   -1.320670
     12          1           0       -1.328868    0.767239   -1.320670
     13          1           0        0.000052    2.488770   -0.148877
     14          1           0        2.155312   -1.244430   -0.148877
     15          1           0       -2.155364   -1.244340   -0.148877
     16          1           0       -0.000052   -2.488770    0.148877
     17          1           0        2.155364    1.244340    0.148877
     18          1           0       -2.155312    1.244430    0.148877
 ---------------------------------------------------------------------
 Rotational constants (GHZ):           4.3069786           4.3069786           2.4550054
 General basis read from cards:  (5D, 7F)
 There are   195 symmetry adapted cartesian basis functions of AG  symmetry.
 There are   195 symmetry adapted cartesian basis functions of AU  symmetry.
 There are   174 symmetry adapted basis functions of AG  symmetry.
 There are   174 symmetry adapted basis functions of AU  symmetry.
   348 basis functions,   522 primitive gaussians,   390 cartesian basis functions
    24 alpha electrons       24 beta electrons
       nuclear repulsion energy       255.7522360029 Hartrees.
 NAtoms=   18 NActive=   18 NUniq=    3 SFac= 4.00D+00 NAtFMM=   60 NAOKFM=F Big=F
 Integral buffers will be    131072 words long.
 Raffenetti 2 integral format.
 Two-electron integral symmetry is turned on.
 One-electron integrals computed using PRISM.
 NBasis=   348 RedAO= T EigKep=  2.32D-04  NBF=   174   174
 NBsUse=   348 1.00D-06 EigRej= -1.00D+00 NBFU=   174   174
 ExpMin= 7.42D-02 ExpMax= 7.32D+03 ExpMxC= 2.50D+02 IAcc=3 IRadAn=         5 AccDes= 0.00D+00
 Harris functional with IExCor=  402 and IRadAn=       5 diagonalized for initial guess.
 HarFok:  IExCor=  402 AccDes= 0.00D+00 IRadAn=         5 IDoV= 1 UseB2=F ITyADJ=14
 ICtDFT=  3500011 ScaDFX=  1.000000  1.000000  1.000000  1.000000
 FoFCou: FMM=F IPFlag=           0 FMFlag=      100000 FMFlg1=           0
         NFxFlg=           0 DoJE=T BraDBF=F KetDBF=T FulRan=T
         wScrn=  0.000000 ICntrl=       500 IOpCl=  0 I1Cent=   200000004 NGrid=           0
         NMat0=    1 NMatS0=      1 NMatT0=    0 NMatD0=    1 NMtDS0=    0 NMtDT0=    0
 Petite list used in FoFCou.
 Initial guess orbital symmetries:
       Occupied  (AG) (EU) (EU) (EG) (EG) (AU) (AG) (EU) (EU) (EG)
                 (EG) (AU) (AG) (AU) (EG) (EG) (AU) (EU) (EU) (EU)
                 (EU) (EG) (EG) (AG)
       Virtual   (AG) (AU) (EU) (EU) (EG) (EG) (AG) (EG) (EG) (EU)
                 (EU) (AU) (AU) (EG) (EG) (EU) (EU) (AG) (AU) (EU)
                 (EU) (EG) (EG) (AG) (AU) (AG) (EG) (EG) (EU) (EU)
                 (EG) (EG) (AG) (AU) (AU) (EG) (EG) (EU) (EU) (AG)
                 (EG) (EG) (AG) (AU) (EU) (EU) (AG) (EU) (EU) (AU)
                 (EU) (EU) (EG) (EG) (EU) (EU) (AG) (AG) (EG) (EG)
                 (AU) (AU) (EU) (EU) (AU) (EG) (EG) (AG) (EG) (EG)
                 (AU) (EU) (EU) (EU) (EU) (AG) (AG) (EG) (EG) (EG)
                 (EG) (AU) (AG) (AG) (EU) (EU) (EU) (EU) (AU) (EG)
                 (EG) (EU) (EU) (EG) (EG) (AU) (AG) (AU) (EU) (EU)
                 (AG) (EG) (EG) (AU) (EU) (EU) (EG) (EG) (AG) (AG)
                 (EU) (EU) (EG) (EG) (AU) (AU) (EG) (EG) (AG) (EU)
                 (EU) (AU) (EU) (EU) (EG) (EG) (AU) (AG) (EG) (EG)
                 (EU) (EU) (AU) (EU) (EU) (EG) (EG) (AG) (EG) (EG)
                 (EU) (EU) (AU) (AG) (AG) (EG) (EG) (EU) (EU) (AG)
                 (AU) (AU) (EU) (EU) (EG) (EG) (EG) (EG) (EU) (EU)
                 (AG) (AU) (AG) (AU) (EU) (EU) (EG) (EG) (AU) (EU)
                 (EU) (AG) (AG) (EG) (EG) (AU) (EU) (EU) (AG) (EG)
                 (EG) (EU) (EU) (AU) (EG) (EG) (EU) (EU) (AU) (EG)
                 (EG) (AG) (EU) (EU) (EG) (EG) (AG) (AU) (EU) (EU)
                 (EG) (EG) (AG) (AG) (AU) (EG) (EG) (EU) (EU) (AU)
                 (AU) (EU) (EU) (AG) (AU) (AG) (EG) (EG) (EU) (EU)
                 (EG) (EG) (EG) (EG) (EU) (EU) (AG) (AG) (AU) (EU)
                 (EU) (AG) (AU) (EG) (EG) (EG) (EG) (AG) (AU) (AG)
                 (EU) (EU) (AU) (EU) (EU) (AG) (EU) (EU) (AU) (EG)
                 (EG) (EG) (EG) (EU) (EU) (AG) (AU) (AG) (EG) (EG)
                 (EU) (EU) (EG) (EG) (AU) (AU) (EU) (EU) (EG) (EG)
                 (EG) (EG) (AU) (AG) (EU) (EU) (AG) (EG) (EG) (AU)
                 (AU) (AG) (EU) (EU) (AU) (EU) (EU) (EG) (EG) (AU)
                 (AG) (AG) (EG) (EG) (EU) (EU) (EG) (EG) (EU) (EU)
                 (AG) (EU) (EU) (AU) (AG) (AG) (EU) (EU) (EG) (EG)
                 (EU) (EU) (EG) (EG) (AU) (AU) (EG) (EG) (AG) (EU)
                 (EU) (AU) (EG) (EG)
 The electronic state of the initial guess is 1-AG.
 Requested convergence on RMS density matrix=1.00D-08 within 128 cycles.
 Requested convergence on MAX density matrix=1.00D-06.
 Requested convergence on             energy=1.00D-06.
 No special actions if energy rises.
 Integral accuracy reduced to 1.0D-05 until final iterations.
 Initial convergence to 1.0D-05 achieved.  Increase integral accuracy.
 SCF Done:  E(RB3LYP) =  -235.972040170     A.U. after   10 cycles
            NFock= 10  Conv=0.15D-08     -V/T= 2.0047

 **********************************************************************

            Population analysis using the SCF Density.

 **********************************************************************

 Orbital symmetries:
       Occupied  (AG) (EU) (EU) (EG) (EG) (AU) (AG) (EU) (EU) (EG)
                 (EG) (AU) (AG) (AU) (EG) (EG) (EU) (EU) (AU) (EU)
                 (EU) (AG) (EG) (EG)
       Virtual   (AG) (AU) (EU) (EU) (EG) (EG) (AG) (EG) (EG) (AU)
                 (EU) (EU) (AU) (EG) (EG) (EU) (EU) (AU) (AG) (EU)
                 (EU) (EG) (EG) (AG) (AU) (AG) (EG) (EG) (EU) (EU)
                 (AU) (EG) (EG) (AG) (EG) (EG) (EU) (EU) (AG) (EG)
                 (EG) (AU) (EU) (EU) (AG) (AU) (EU) (EU) (AG) (AU)
                 (EU) (EU) (EG) (EG) (EU) (EU) (AG) (AG) (AU) (EG)
                 (EG) (AU) (EU) (EU) (AU) (EG) (EG) (AG) (EG) (EG)
                 (AU) (EU) (EU) (EU) (EU) (AG) (AG) (EG) (EG) (EG)
                 (EG) (AU) (AG) (AG) (EU) (EU) (AU) (EU) (EU) (EG)
                 (EG) (EU) (EU) (EG) (EG) (AU) (AG) (AU) (AG) (EU)
                 (EU) (EG) (EG) (AU) (EU) (EU) (EG) (EG) (AG) (AG)
                 (EU) (EU) (EG) (EG) (AU) (EG) (EG) (AU) (EU) (EU)
                 (AG) (AU) (EG) (EG) (EU) (EU) (AU) (AG) (EU) (EU)
                 (EG) (EG) (AU) (EU) (EU) (EG) (EG) (AG) (EG) (EG)
                 (EU) (EU) (AU) (AG) (AG) (EG) (EG) (EU) (EU) (AG)
                 (AU) (AU) (EU) (EU) (EG) (EG) (EG) (EG) (EU) (EU)
                 (AG) (AU) (AG) (EU) (EU) (AU) (EG) (EG) (AU) (EU)
                 (EU) (AG) (AG) (EG) (EG) (EU) (EU) (AU) (AG) (EG)
                 (EG) (EU) (EU) (AU) (EG) (EG) (EU) (EU) (EG) (EG)
                 (AG) (AU) (EU) (EU) (AG) (EG) (EG) (AU) (EU) (EU)
                 (EG) (EG) (AG) (AG) (AU) (EG) (EG) (EU) (EU) (AU)
                 (EU) (EU) (AU) (AU) (AG) (AG) (EG) (EG) (EU) (EU)
                 (EG) (EG) (EG) (EG) (AG) (EU) (EU) (AG) (AG) (AU)
                 (AU) (EU) (EU) (EG) (EG) (EG) (EG) (AG) (AU) (EU)
                 (EU) (AG) (AU) (EU) (EU) (AG) (AU) (EG) (EG) (EU)
                 (EU) (EG) (EG) (EU) (EU) (AG) (AU) (AG) (EG) (EG)
                 (EU) (EU) (EG) (EG) (AU) (AU) (EU) (EU) (EG) (EG)
                 (EG) (EG) (AG) (EU) (EU) (AG) (AU) (AU) (EG) (EG)
                 (AU) (AG) (EU) (EU) (AU) (EU) (EU) (AU) (EG) (EG)
                 (AG) (AG) (EG) (EG) (EU) (EU) (EG) (EG) (EU) (EU)
                 (AG) (AG) (EU) (EU) (AU) (AG) (EU) (EU) (EG) (EG)
                 (EU) (EU) (EG) (EG) (AU) (EG) (EG) (AU) (AG) (EU)
                 (EU) (AU) (EG) (EG)
 The electronic state is 1-AG.
 Alpha  occ. eigenvalues --  -10.16029 -10.16018 -10.16018 -10.15995 -10.15995
 Alpha  occ. eigenvalues --  -10.15984  -0.82692  -0.73805  -0.73805  -0.60506
 Alpha  occ. eigenvalues --   -0.60506  -0.54847  -0.47873  -0.44129  -0.43520
 Alpha  occ. eigenvalues --   -0.43520  -0.37732  -0.37732  -0.37308  -0.34083
 Alpha  occ. eigenvalues --   -0.34083  -0.31503  -0.29901  -0.29901
 Alpha virt. eigenvalues --    0.01507   0.03040   0.03886   0.03886   0.06996
 Alpha virt. eigenvalues --    0.06996   0.07580   0.08496   0.08496   0.09917
 Alpha virt. eigenvalues --    0.11231   0.11231   0.13520   0.17407   0.17407
 Alpha virt. eigenvalues --    0.18056   0.18056   0.18504   0.22282   0.22818
 Alpha virt. eigenvalues --    0.22818   0.23113   0.23113   0.24097   0.26870
 Alpha virt. eigenvalues --    0.27843   0.31846   0.31846   0.32380   0.32380
 Alpha virt. eigenvalues --    0.33677   0.34176   0.34176   0.35095   0.35869
 Alpha virt. eigenvalues --    0.35869   0.37030   0.37030   0.37990   0.39161
 Alpha virt. eigenvalues --    0.39161   0.40280   0.41840   0.41840   0.42398
 Alpha virt. eigenvalues --    0.43016   0.55344   0.55344   0.56692   0.58473
 Alpha virt. eigenvalues --    0.61543   0.61543   0.65193   0.65193   0.68322
 Alpha virt. eigenvalues --    0.68322   0.75694   0.77050   0.81581   0.81903
 Alpha virt. eigenvalues --    0.81903   0.89912   0.90210   0.90210   0.92517
 Alpha virt. eigenvalues --    0.93024   0.93024   0.96704   0.99302   0.99302
 Alpha virt. eigenvalues --    1.03445   1.04412   1.04412   1.06302   1.06302
 Alpha virt. eigenvalues --    1.07221   1.08336   1.10137   1.10137   1.11007
 Alpha virt. eigenvalues --    1.11007   1.14441   1.19416   1.20708   1.21739
 Alpha virt. eigenvalues --    1.21739   1.21776   1.25013   1.25013   1.28969
 Alpha virt. eigenvalues --    1.28969   1.29465   1.29465   1.36099   1.36099
 Alpha virt. eigenvalues --    1.36979   1.39722   1.40575   1.41290   1.41833
 Alpha virt. eigenvalues --    1.41833   1.42279   1.42279   1.50862   1.51200
 Alpha virt. eigenvalues --    1.51200   1.60930   1.60930   1.63224   1.63918
 Alpha virt. eigenvalues --    1.69014   1.69014   1.71119   1.71119   1.80036
 Alpha virt. eigenvalues --    1.83399   1.83399   1.85192   1.86298   1.86298
 Alpha virt. eigenvalues --    1.86870   1.96149   1.98341   1.98341   1.98517
 Alpha virt. eigenvalues --    1.98517   1.99166   2.01738   2.03495   2.03495
 Alpha virt. eigenvalues --    2.04846   2.04846   2.06154   2.13401   2.13401
 Alpha virt. eigenvalues --    2.29567   2.29567   2.30432   2.35780   2.35780
 Alpha virt. eigenvalues --    2.41962   2.41962   2.45652   2.46684   2.50302
 Alpha virt. eigenvalues --    2.65530   2.65530   2.66003   2.66003   2.67479
 Alpha virt. eigenvalues --    2.75474   2.96008   3.05221   3.05221   3.07780
 Alpha virt. eigenvalues --    3.07780   3.15133   3.15133   3.18924   3.18924
 Alpha virt. eigenvalues --    3.22049   3.25533   3.28019   3.30568   3.30568
 Alpha virt. eigenvalues --    3.31001   3.33292   3.33292   3.40152   3.46160
 Alpha virt. eigenvalues --    3.46160   3.50838   3.52017   3.55174   3.55174
 Alpha virt. eigenvalues --    3.57036   3.57036   3.58207   3.60249   3.66125
 Alpha virt. eigenvalues --    3.66125   3.67377   3.67377   3.73770   3.77435
 Alpha virt. eigenvalues --    3.77435   3.83940   3.83940   3.84758   3.84758
 Alpha virt. eigenvalues --    3.85260   3.87029   3.96696   3.96696   3.97461
 Alpha virt. eigenvalues --    3.97977   3.97977   3.99054   4.02328   4.02328
 Alpha virt. eigenvalues --    4.05041   4.05041   4.07168   4.08985   4.15525
 Alpha virt. eigenvalues --    4.16187   4.16187   4.18293   4.18293   4.26324
 Alpha virt. eigenvalues --    4.27582   4.27582   4.27619   4.32058   4.32898
 Alpha virt. eigenvalues --    4.37536   4.39381   4.39381   4.41544   4.41544
 Alpha virt. eigenvalues --    4.43730   4.43730   4.45923   4.45923   4.52208
 Alpha virt. eigenvalues --    4.52598   4.52598   4.54638   4.62055   4.62067
 Alpha virt. eigenvalues --    4.63132   4.63157   4.63157   4.66370   4.66370
 Alpha virt. eigenvalues --    4.67448   4.67448   4.70471   4.70769   4.71410
 Alpha virt. eigenvalues --    4.71410   4.72042   4.74947   4.79031   4.79031
 Alpha virt. eigenvalues --    4.82079   4.86041   4.86054   4.86054   4.86521
 Alpha virt. eigenvalues --    4.86521   4.90964   4.90964   4.92587   4.92587
 Alpha virt. eigenvalues --    4.97774   4.99171   5.02633   5.04979   5.04979
 Alpha virt. eigenvalues --    5.06970   5.06970   5.12926   5.12926   5.21948
 Alpha virt. eigenvalues --    5.22920   5.27660   5.27660   5.31017   5.31017
 Alpha virt. eigenvalues --    5.33932   5.33932   5.37239   5.37492   5.37492
 Alpha virt. eigenvalues --    5.37833   5.38279   5.38941   5.41091   5.41091
 Alpha virt. eigenvalues --    5.47982   5.50588   5.53638   5.53638   5.58417
 Alpha virt. eigenvalues --    5.61360   5.61360   5.61497   5.63239   5.63239
 Alpha virt. eigenvalues --    5.66037   5.70154   5.71484   5.71484   5.72285
 Alpha virt. eigenvalues --    5.72285   5.79657   5.79657   5.81935   5.81935
 Alpha virt. eigenvalues --    5.86132   5.96880   5.97229   5.97229   5.97837
 Alpha virt. eigenvalues --    6.03536   6.04253   6.04253   6.07253   6.07253
 Alpha virt. eigenvalues --    6.07635   6.07635   6.11919   6.11919   6.14089
 Alpha virt. eigenvalues --    6.18543   6.18543   6.20310   6.22082   6.42200
 Alpha virt. eigenvalues --    6.42200   7.10553   8.25174   8.25174
          Condensed to atoms (all electrons):
               1          2          3          4          5          6
     1  C    4.790227  -0.031714  -0.031714  -0.023605   0.318063   0.318063
     2  C   -0.031714   4.790227  -0.031714   0.318063   0.318063  -0.023605
     3  C   -0.031714  -0.031714   4.790227   0.318063  -0.023605   0.318063
     4  C   -0.023605   0.318063   0.318063   4.790227  -0.031714  -0.031714
     5  C    0.318063   0.318063  -0.023605  -0.031714   4.790227  -0.031714
     6  C    0.318063  -0.023605   0.318063  -0.031714  -0.031714   4.790227
     7  H    0.437963  -0.007126  -0.007128  -0.001535  -0.047763  -0.047759
     8  H   -0.007128   0.437963  -0.007126  -0.047763  -0.047759  -0.001535
     9  H   -0.007126  -0.007128   0.437963  -0.047759  -0.001535  -0.047763
    10  H   -0.001535  -0.047759  -0.047763   0.437963  -0.007128  -0.007126
    11  H   -0.047759  -0.047763  -0.001535  -0.007126   0.437963  -0.007128
    12  H   -0.047763  -0.001535  -0.047759  -0.007128  -0.007126   0.437963
    13  H    0.437632   0.012494   0.012494  -0.002827  -0.038752  -0.038745
    14  H    0.012494   0.437632   0.012494  -0.038752  -0.038745  -0.002827
    15  H    0.012494   0.012494   0.437632  -0.038745  -0.002827  -0.038752
    16  H   -0.002827  -0.038745  -0.038752   0.437632   0.012494   0.012494
    17  H   -0.038745  -0.038752  -0.002827   0.012494   0.437632   0.012494
    18  H   -0.038752  -0.002827  -0.038745   0.012494   0.012494   0.437632
               7          8          9         10         11         12
     1  C    0.437963  -0.007128  -0.007126  -0.001535  -0.047759  -0.047763
     2  C   -0.007126   0.437963  -0.007128  -0.047759  -0.047763  -0.001535
     3  C   -0.007128  -0.007126   0.437963  -0.047763  -0.001535  -0.047759
     4  C   -0.001535  -0.047763  -0.047759   0.437963  -0.007126  -0.007128
     5  C   -0.047763  -0.047759  -0.001535  -0.007128   0.437963  -0.007126
     6  C   -0.047759  -0.001535  -0.047763  -0.007126  -0.007128   0.437963
     7  H    0.655319   0.006027   0.006027   0.000425   0.010546   0.010546
     8  H    0.006027   0.655319   0.006027   0.010546   0.010546   0.000425
     9  H    0.006027   0.006027   0.655319   0.010546   0.000425   0.010546
    10  H    0.000425   0.010546   0.010546   0.655319   0.006027   0.006027
    11  H    0.010546   0.010546   0.000425   0.006027   0.655319   0.006027
    12  H    0.010546   0.000425   0.010546   0.006027   0.006027   0.655319
    13  H   -0.024411  -0.000280  -0.000280  -0.000248  -0.006035  -0.006035
    14  H   -0.000280  -0.024411  -0.000280  -0.006035  -0.006035  -0.000248
    15  H   -0.000280  -0.000280  -0.024411  -0.006035  -0.000248  -0.006035
    16  H   -0.000248  -0.006035  -0.006035  -0.024411  -0.000280  -0.000280
    17  H   -0.006035  -0.006035  -0.000248  -0.000280  -0.024411  -0.000280
    18  H   -0.006035  -0.000248  -0.006035  -0.000280  -0.000280  -0.024411
              13         14         15         16         17         18
     1  C    0.437632   0.012494   0.012494  -0.002827  -0.038745  -0.038752
     2  C    0.012494   0.437632   0.012494  -0.038745  -0.038752  -0.002827
     3  C    0.012494   0.012494   0.437632  -0.038752  -0.002827  -0.038745
     4  C   -0.002827  -0.038752  -0.038745   0.437632   0.012494   0.012494
     5  C   -0.038752  -0.038745  -0.002827   0.012494   0.437632   0.012494
     6  C   -0.038745  -0.002827  -0.038752   0.012494   0.012494   0.437632
     7  H   -0.024411  -0.000280  -0.000280  -0.000248  -0.006035  -0.006035
     8  H   -0.000280  -0.024411  -0.000280  -0.006035  -0.006035  -0.000248
     9  H   -0.000280  -0.000280  -0.024411  -0.006035  -0.000248  -0.006035
    10  H   -0.000248  -0.006035  -0.006035  -0.024411  -0.000280  -0.000280
    11  H   -0.006035  -0.006035  -0.000248  -0.000280  -0.024411  -0.000280
    12  H   -0.006035  -0.000248  -0.006035  -0.000280  -0.000280  -0.024411
    13  H    0.640705  -0.000635  -0.000635   0.000343  -0.005654  -0.005654
    14  H   -0.000635   0.640705  -0.000635  -0.005654  -0.005654   0.000343
    15  H   -0.000635  -0.000635   0.640705  -0.005654   0.000343  -0.005654
    16  H    0.000343  -0.005654  -0.005654   0.640705  -0.000635  -0.000635
    17  H   -0.005654  -0.005654   0.000343  -0.000635   0.640705  -0.000635
    18  H   -0.005654   0.000343  -0.005654  -0.000635  -0.000635   0.640705
 Mulliken charges:
               1
     1  C   -0.048267
     2  C   -0.048267
     3  C   -0.048267
     4  C   -0.048267
     5  C   -0.048267
     6  C   -0.048267
     7  H    0.021746
     8  H    0.021746
     9  H    0.021746
    10  H    0.021746
    11  H    0.021746
    12  H    0.021746
    13  H    0.026522
    14  H    0.026522
    15  H    0.026522
    16  H    0.026522
    17  H    0.026522
    18  H    0.026522
 Sum of Mulliken charges =  -0.00000
 Mulliken charges with hydrogens summed into heavy atoms:
               1
     1  C   -0.000000
     2  C   -0.000000
     3  C   -0.000000
     4  C   -0.000000
     5  C   -0.000000
     6  C   -0.000000
 Electronic spatial extent (au):  <R**2>=            593.5691
 Charge=              0.0000 electrons
 Dipole moment (field-independent basis, Debye):
    X=              0.0000    Y=              0.0000    Z=              0.0000  Tot=              0.0000
 Quadrupole moment (field-independent basis, Debye-Ang):
   XX=            -40.8440   YY=            -40.8440   ZZ=            -40.2170
   XY=              0.0000   XZ=              0.0000   YZ=             -0.0000
 Traceless Quadrupole moment (field-independent basis, Debye-Ang):
   XX=             -0.2090   YY=             -0.2090   ZZ=              0.4180
   XY=              0.0000   XZ=              0.0000   YZ=             -0.0000
 Octapole moment (field-independent basis, Debye-Ang**2):
  XXX=             -0.0000  YYY=             -0.0000  ZZZ=             -0.0000  XYY=              0.0000
  XXY=             -0.0000  XXZ=              0.0000  XZZ=             -0.0000  YZZ=              0.0000
  YYZ=             -0.0000  XYZ=             -0.0000
 Hexadecapole moment (field-independent basis, Debye-Ang**3):
 XXXX=           -368.7015 YYYY=           -368.7015 ZZZZ=           -103.9580 XXXY=              0.0000
 XXXZ=              0.0002 YYYX=              0.0000 YYYZ=             -3.1272 ZZZX=              0.0000
 ZZZY=              0.0000 XXYY=           -122.9005 XXZZ=            -80.5293 YYZZ=            -80.5293
 XXYZ=              3.1272 YYXZ=             -0.0002 ZZXY=              0.0000
 N-N= 2.557522360029D+02 E-N=-1.057628114717D+03  KE= 2.348783202182D+02
 Symmetry AG   KE= 1.172278656053D+02
 Symmetry AU   KE= 1.176504546129D+02
 Calling FoFJK, ICntrl=      2127 FMM=F ISym2X=1 I1Cent= 0 IOpClX= 0 NMat=1 NMatS=1 NMatT=0.
 ***** Axes restored to original set *****
 -------------------------------------------------------------------
 Center     Atomic                   Forces (Hartrees/Bohr)
 Number     Number              X              Y              Z
 -------------------------------------------------------------------
      1        6          -0.000003253   -0.000023444    0.000024578
      2        6          -0.000018677    0.000014539    0.000024578
      3        6           0.000021929    0.000008905    0.000024578
      4        6           0.000003253    0.000023444   -0.000024578
      5        6          -0.000021929   -0.000008905   -0.000024578
      6        6           0.000018677   -0.000014539   -0.000024578
      7        1          -0.000002983    0.000003023    0.000006170
      8        1           0.000004109    0.000001072    0.000006170
      9        1          -0.000001126   -0.000004094    0.000006170
     10        1           0.000002983   -0.000003023   -0.000006170
     11        1           0.000001126    0.000004094   -0.000006170
     12        1          -0.000004109   -0.000001072   -0.000006170
     13        1          -0.000004999    0.000005063   -0.000013489
     14        1           0.000006884    0.000001798   -0.000013489
     15        1          -0.000001885   -0.000006861   -0.000013489
     16        1           0.000004999   -0.000005063    0.000013489
     17        1           0.000001885    0.000006861    0.000013489
     18        1          -0.000006884   -0.000001798    0.000013489
 -------------------------------------------------------------------
 Cartesian Forces:  Max     0.000024578 RMS     0.000012706

 GradGradGradGradGradGradGradGradGradGradGradGradGradGradGradGradGradGrad
 Berny optimization.
 FormGI is forming the generalized inverse of G from B-inverse, IUseBI=4.
 Internal  Forces:  Max     0.000012102 RMS     0.000004821
 Search for a local minimum.
 Step number   1 out of a maximum of  108
 All quantities printed in internal units (Hartrees-Bohrs-Radians)
 Mixed Optimization -- En-DIIS/RFO-DIIS
 Second derivative matrix not updated -- first step.
 ITU=  0
     Eigenvalues ---    0.00517   0.00517   0.00609   0.01869   0.01869
     Eigenvalues ---    0.03591   0.03855   0.03855   0.04140   0.04792
     Eigenvalues ---    0.04792   0.04837   0.05494   0.05494   0.05935
     Eigenvalues ---    0.06083   0.08044   0.08044   0.08154   0.08155
     Eigenvalues ---    0.08155   0.08161   0.08202   0.08202   0.12077
     Eigenvalues ---    0.12107   0.12107   0.16118   0.16118   0.21876
     Eigenvalues ---    0.27690   0.27962   0.27962   0.29198   0.29198
     Eigenvalues ---    0.29198   0.34200   0.34200   0.34200   0.34200
     Eigenvalues ---    0.34200   0.34200   0.34534   0.34534   0.34534
     Eigenvalues ---    0.34534   0.34534   0.34534
 RFO step:  Lambda=-3.13252401D-08 EMin= 5.16841352D-03
 Linear search not attempted -- first point.
 Iteration  1 RMS(Cart)=  0.00007609 RMS(Int)=  0.00000001
 Iteration  2 RMS(Cart)=  0.00000001 RMS(Int)=  0.00000000
 ClnCor:  largest displacement from symmetrization is 1.84D-12 for atom    18.
 Variable       Old X    -DE/DX   Delta X   Delta X   Delta X     New X
                                 (Linear)    (Quad)   (Total)
    R1        2.89591  -0.00001   0.00000  -0.00004  -0.00004   2.89587
    R2        2.89591  -0.00001   0.00000  -0.00004  -0.00004   2.89587
    R3        2.06994   0.00001   0.00000   0.00002   0.00002   2.06996
    R4        2.06438   0.00001   0.00000   0.00003   0.00003   2.06441
    R5        2.89591  -0.00001   0.00000  -0.00004  -0.00004   2.89587
    R6        2.89591  -0.00001   0.00000  -0.00004  -0.00004   2.89587
    R7        2.06994   0.00001   0.00000   0.00002   0.00002   2.06996
    R8        2.06438   0.00001   0.00000   0.00003   0.00003   2.06441
    R9        2.89591  -0.00001   0.00000  -0.00004  -0.00004   2.89587
   R10        2.89591  -0.00001   0.00000  -0.00004  -0.00004   2.89587
   R11        2.06994   0.00001   0.00000   0.00002   0.00002   2.06996
   R12        2.06438   0.00001   0.00000   0.00003   0.00003   2.06441
   R13        2.06994   0.00001   0.00000   0.00002   0.00002   2.06996
   R14        2.06438   0.00001   0.00000   0.00003   0.00003   2.06441
   R15        2.06994   0.00001   0.00000   0.00002   0.00002   2.06996
   R16        2.06438   0.00001   0.00000   0.00003   0.00003   2.06441
   R17        2.06994   0.00001   0.00000   0.00002   0.00002   2.06996
   R18        2.06438   0.00001   0.00000   0.00003   0.00003   2.06441
    A1        1.94725  -0.00000   0.00000  -0.00002  -0.00002   1.94724
    A2        1.90440   0.00000   0.00000   0.00006   0.00006   1.90446
    A3        1.92384  -0.00000   0.00000  -0.00008  -0.00008   1.92377
    A4        1.90442   0.00000   0.00000   0.00007   0.00007   1.90449
    A5        1.92393  -0.00000   0.00000  -0.00007  -0.00007   1.92385
    A6        1.85763   0.00000   0.00000   0.00005   0.00005   1.85767
    A7        1.94725  -0.00000   0.00000  -0.00002  -0.00002   1.94724
    A8        1.90440   0.00000   0.00000   0.00006   0.00006   1.90446
    A9        1.92384  -0.00000   0.00000  -0.00008  -0.00008   1.92377
   A10        1.90442   0.00000   0.00000   0.00007   0.00007   1.90449
   A11        1.92393  -0.00000   0.00000  -0.00007  -0.00007   1.92385
   A12        1.85763   0.00000   0.00000   0.00005   0.00005   1.85767
   A13        1.94725  -0.00000   0.00000  -0.00002  -0.00002   1.94724
   A14        1.90442   0.00000   0.00000   0.00007   0.00007   1.90449
   A15        1.92393  -0.00000   0.00000  -0.00007  -0.00007   1.92385
   A16        1.90440   0.00000   0.00000   0.00006   0.00006   1.90446
   A17        1.92384  -0.00000   0.00000  -0.00008  -0.00008   1.92377
   A18        1.85763   0.00000   0.00000   0.00005   0.00005   1.85767
   A19        1.94725  -0.00000   0.00000  -0.00002  -0.00002   1.94724
   A20        1.90442   0.00000   0.00000   0.00007   0.00007   1.90449
   A21        1.92393  -0.00000   0.00000  -0.00007  -0.00007   1.92385
   A22        1.90440   0.00000   0.00000   0.00006   0.00006   1.90446
   A23        1.92384  -0.00000   0.00000  -0.00008  -0.00008   1.92377
   A24        1.85763   0.00000   0.00000   0.00005   0.00005   1.85767
   A25        1.94725  -0.00000   0.00000  -0.00002  -0.00002   1.94724
   A26        1.90442   0.00000   0.00000   0.00007   0.00007   1.90449
   A27        1.92393  -0.00000   0.00000  -0.00007  -0.00007   1.92385
   A28        1.90440   0.00000   0.00000   0.00006   0.00006   1.90446
   A29        1.92384  -0.00000   0.00000  -0.00008  -0.00008   1.92377
   A30        1.85763   0.00000   0.00000   0.00005   0.00005   1.85767
   A31        1.94725  -0.00000   0.00000  -0.00002  -0.00002   1.94724
   A32        1.90440   0.00000   0.00000   0.00006   0.00006   1.90446
   A33        1.92384  -0.00000   0.00000  -0.00008  -0.00008   1.92377
   A34        1.90442   0.00000   0.00000   0.00007   0.00007   1.90449
   A35        1.92393  -0.00000   0.00000  -0.00007  -0.00007   1.92385
   A36        1.85763   0.00000   0.00000   0.00005   0.00005   1.85767
    D1       -0.95041  -0.00001   0.00000  -0.00005  -0.00005  -0.95046
    D2        1.15518  -0.00000   0.00000   0.00006   0.00006   1.15524
    D3       -3.09396   0.00000   0.00000   0.00011   0.00011  -3.09385
    D4        1.15519  -0.00000   0.00000   0.00006   0.00006   1.15525
    D5       -3.02240   0.00000   0.00000   0.00017   0.00017  -3.02223
    D6       -0.98836   0.00000   0.00000   0.00022   0.00022  -0.98813
    D7       -3.09401   0.00000   0.00000   0.00011   0.00011  -3.09390
    D8       -0.98842   0.00000   0.00000   0.00022   0.00022  -0.98820
    D9        1.04563   0.00001   0.00000   0.00027   0.00027   1.04590
   D10        0.95041   0.00001   0.00000   0.00005   0.00005   0.95046
   D11       -1.15519   0.00000   0.00000  -0.00006  -0.00006  -1.15525
   D12        3.09401  -0.00000   0.00000  -0.00011  -0.00011   3.09390
   D13       -1.15518   0.00000   0.00000  -0.00006  -0.00006  -1.15524
   D14        3.02240  -0.00000   0.00000  -0.00017  -0.00017   3.02223
   D15        0.98842  -0.00000   0.00000  -0.00022  -0.00022   0.98820
   D16        3.09396  -0.00000   0.00000  -0.00011  -0.00011   3.09385
   D17        0.98836  -0.00000   0.00000  -0.00022  -0.00022   0.98813
   D18       -1.04563  -0.00001   0.00000  -0.00027  -0.00027  -1.04590
   D19       -0.95041  -0.00001   0.00000  -0.00005  -0.00005  -0.95046
   D20        1.15518  -0.00000   0.00000   0.00006   0.00006   1.15524
   D21       -3.09396   0.00000   0.00000   0.00011   0.00011  -3.09385
   D22        1.15519  -0.00000   0.00000   0.00006   0.00006   1.15525
   D23       -3.02240   0.00000   0.00000   0.00017   0.00017  -3.02223
   D24       -0.98836   0.00000   0.00000   0.00022   0.00022  -0.98813
   D25       -3.09401   0.00000   0.00000   0.00011   0.00011  -3.09390
   D26       -0.98842   0.00000   0.00000   0.00022   0.00022  -0.98820
   D27        1.04563   0.00001   0.00000   0.00027   0.00027   1.04590
   D28        0.95041   0.00001   0.00000   0.00005   0.00005   0.95046
   D29       -1.15519   0.00000   0.00000  -0.00006  -0.00006  -1.15525
   D30        3.09401  -0.00000   0.00000  -0.00011  -0.00011   3.09390
   D31       -1.15518   0.00000   0.00000  -0.00006  -0.00006  -1.15524
   D32        3.02240  -0.00000   0.00000  -0.00017  -0.00017   3.02223
   D33        0.98842  -0.00000   0.00000  -0.00022  -0.00022   0.98820
   D34        3.09396  -0.00000   0.00000  -0.00011  -0.00011   3.09385
   D35        0.98836  -0.00000   0.00000  -0.00022  -0.00022   0.98813
   D36       -1.04563  -0.00001   0.00000  -0.00027  -0.00027  -1.04590
   D37        0.95041   0.00001   0.00000   0.00005   0.00005   0.95046
   D38       -1.15519   0.00000   0.00000  -0.00006  -0.00006  -1.15525
   D39        3.09401  -0.00000   0.00000  -0.00011  -0.00011   3.09390
   D40       -1.15518   0.00000   0.00000  -0.00006  -0.00006  -1.15524
   D41        3.02240  -0.00000   0.00000  -0.00017  -0.00017   3.02223
   D42        0.98842  -0.00000   0.00000  -0.00022  -0.00022   0.98820
   D43        3.09396  -0.00000   0.00000  -0.00011  -0.00011   3.09385
   D44        0.98836  -0.00000   0.00000  -0.00022  -0.00022   0.98813
   D45       -1.04563  -0.00001   0.00000  -0.00027  -0.00027  -1.04590
   D46       -0.95041  -0.00001   0.00000  -0.00005  -0.00005  -0.95046
   D47        1.15518  -0.00000   0.00000   0.00006   0.00006   1.15524
   D48       -3.09396   0.00000   0.00000   0.00011   0.00011  -3.09385
   D49        1.15519  -0.00000   0.00000   0.00006   0.00006   1.15525
   D50       -3.02240   0.00000   0.00000   0.00017   0.00017  -3.02223
   D51       -0.98836   0.00000   0.00000   0.00022   0.00022  -0.98813
   D52       -3.09401   0.00000   0.00000   0.00011   0.00011  -3.09390
   D53       -0.98842   0.00000   0.00000   0.00022   0.00022  -0.98820
   D54        1.04563   0.00001   0.00000   0.00027   0.00027   1.04590
         Item               Value     Threshold  Converged?
 Maximum Force            0.000012     0.000450     YES
 RMS     Force            0.000005     0.000300     YES
 Maximum Displacement     0.000255     0.001800     YES
 RMS     Displacement     0.000076     0.001200     YES
 Predicted change in Energy=-1.566165D-08
 Optimization completed.
    -- Stationary point found.
                           ----------------------------
                           !   Optimized Parameters   !
                           ! (Angstroms and Degrees)  !
 --------------------------                            --------------------------
 ! Name  Definition              Value          Derivative Info.                !
 --------------------------------------------------------------------------------
 ! R1    R(1,5)                  1.5325         -DE/DX =    0.0                 !
 ! R2    R(1,6)                  1.5325         -DE/DX =    0.0                 !
 ! R3    R(1,7)                  1.0954         -DE/DX =    0.0                 !
 ! R4    R(1,13)                 1.0924         -DE/DX =    0.0                 !
 ! R5    R(2,4)                  1.5325         -DE/DX =    0.0                 !
 ! R6    R(2,5)                  1.5325         -DE/DX =    0.0                 !
 ! R7    R(2,8)                  1.0954         -DE/DX =    0.0                 !
 ! R8    R(2,14)                 1.0924         -DE/DX =    0.0                 !
 ! R9    R(3,4)                  1.5325         -DE/DX =    0.0                 !
 ! R10   R(3,6)                  1.5325         -DE/DX =    0.0                 !
 ! R11   R(3,9)                  1.0954         -DE/DX =    0.0                 !
 ! R12   R(3,15)                 1.0924         -DE/DX =    0.0                 !
 ! R13   R(4,10)                 1.0954         -DE/DX =    0.0                 !
 ! R14   R(4,16)                 1.0924         -DE/DX =    0.0                 !
 ! R15   R(5,11)                 1.0954         -DE/DX =    0.0                 !
 ! R16   R(5,17)                 1.0924         -DE/DX =    0.0                 !
 ! R17   R(6,12)                 1.0954         -DE/DX =    0.0                 !
 ! R18   R(6,18)                 1.0924         -DE/DX =    0.0                 !
 ! A1    A(5,1,6)              111.5694         -DE/DX =    0.0                 !
 ! A2    A(5,1,7)              109.1142         -DE/DX =    0.0                 !
 ! A3    A(5,1,13)             110.2281         -DE/DX =    0.0                 !
 ! A4    A(6,1,7)              109.1154         -DE/DX =    0.0                 !
 ! A5    A(6,1,13)             110.2329         -DE/DX =    0.0                 !
 ! A6    A(7,1,13)             106.4341         -DE/DX =    0.0                 !
 ! A7    A(4,2,5)              111.5694         -DE/DX =    0.0                 !
 ! A8    A(4,2,8)              109.1142         -DE/DX =    0.0                 !
 ! A9    A(4,2,14)             110.2281         -DE/DX =    0.0                 !
 ! A10   A(5,2,8)              109.1154         -DE/DX =    0.0                 !
 ! A11   A(5,2,14)             110.2329         -DE/DX =    0.0                 !
 ! A12   A(8,2,14)             106.4341         -DE/DX =    0.0                 !
 ! A13   A(4,3,6)              111.5694         -DE/DX =    0.0                 !
 ! A14   A(4,3,9)              109.1154         -DE/DX =    0.0                 !
 ! A15   A(4,3,15)             110.2329         -DE/DX =    0.0                 !
 ! A16   A(6,3,9)              109.1142         -DE/DX =    0.0                 !
 ! A17   A(6,3,15)             110.2281         -DE/DX =    0.0                 !
 ! A18   A(9,3,15)             106.4341         -DE/DX =    0.0                 !
 ! A19   A(2,4,3)              111.5694         -DE/DX =    0.0                 !
 ! A20   A(2,4,10)             109.1154         -DE/DX =    0.0                 !
 ! A21   A(2,4,16)             110.2329         -DE/DX =    0.0                 !
 ! A22   A(3,4,10)             109.1142         -DE/DX =    0.0                 !
 ! A23   A(3,4,16)             110.2281         -DE/DX =    0.0                 !
 ! A24   A(10,4,16)            106.4341         -DE/DX =    0.0                 !
 ! A25   A(1,5,2)              111.5694         -DE/DX =    0.0                 !
 ! A26   A(1,5,11)             109.1154         -DE/DX =    0.0                 !
 ! A27   A(1,5,17)             110.2329         -DE/DX =    0.0                 !
 ! A28   A(2,5,11)             109.1142         -DE/DX =    0.0                 !
 ! A29   A(2,5,17)             110.2281         -DE/DX =    0.0                 !
 ! A30   A(11,5,17)            106.4341         -DE/DX =    0.0                 !
 ! A31   A(1,6,3)              111.5694         -DE/DX =    0.0                 !
 ! A32   A(1,6,12)             109.1142         -DE/DX =    0.0                 !
 ! A33   A(1,6,18)             110.2281         -DE/DX =    0.0                 !
 ! A34   A(3,6,12)             109.1154         -DE/DX =    0.0                 !
 ! A35   A(3,6,18)             110.2329         -DE/DX =    0.0                 !
 ! A36   A(12,6,18)            106.4341         -DE/DX =    0.0                 !
 ! D1    D(6,1,5,2)            -54.4545         -DE/DX =    0.0                 !
 ! D2    D(6,1,5,11)            66.187          -DE/DX =    0.0                 !
 ! D3    D(6,1,5,17)          -177.2709         -DE/DX =    0.0                 !
 ! D4    D(7,1,5,2)             66.1877         -DE/DX =    0.0                 !
 ! D5    D(7,1,5,11)          -173.1708         -DE/DX =    0.0                 !
 ! D6    D(7,1,5,17)           -56.6286         -DE/DX =    0.0                 !
 ! D7    D(13,1,5,2)          -177.2736         -DE/DX =    0.0                 !
 ! D8    D(13,1,5,11)          -56.6321         -DE/DX =    0.0                 !
 ! D9    D(13,1,5,17)           59.9101         -DE/DX =    0.0                 !
 ! D10   D(5,1,6,3)             54.4545         -DE/DX =    0.0                 !
 ! D11   D(5,1,6,12)           -66.1877         -DE/DX =    0.0                 !
 ! D12   D(5,1,6,18)           177.2736         -DE/DX =    0.0                 !
 ! D13   D(7,1,6,3)            -66.187          -DE/DX =    0.0                 !
 ! D14   D(7,1,6,12)           173.1708         -DE/DX =    0.0                 !
 ! D15   D(7,1,6,18)            56.6321         -DE/DX =    0.0                 !
 ! D16   D(13,1,6,3)           177.2709         -DE/DX =    0.0                 !
 ! D17   D(13,1,6,12)           56.6286         -DE/DX =    0.0                 !
 ! D18   D(13,1,6,18)          -59.9101         -DE/DX =    0.0                 !
 ! D19   D(5,2,4,3)            -54.4545         -DE/DX =    0.0                 !
 ! D20   D(5,2,4,10)            66.187          -DE/DX =    0.0                 !
 ! D21   D(5,2,4,16)          -177.2709         -DE/DX =    0.0                 !
 ! D22   D(8,2,4,3)             66.1877         -DE/DX =    0.0                 !
 ! D23   D(8,2,4,10)          -173.1708         -DE/DX =    0.0                 !
 ! D24   D(8,2,4,16)           -56.6286         -DE/DX =    0.0                 !
 ! D25   D(14,2,4,3)          -177.2736         -DE/DX =    0.0                 !
 ! D26   D(14,2,4,10)          -56.6321         -DE/DX =    0.0                 !
 ! D27   D(14,2,4,16)           59.9101         -DE/DX =    0.0                 !
 ! D28   D(4,2,5,1)             54.4545         -DE/DX =    0.0                 !
 ! D29   D(4,2,5,11)           -66.1877         -DE/DX =    0.0                 !
 ! D30   D(4,2,5,17)           177.2736         -DE/DX =    0.0                 !
 ! D31   D(8,2,5,1)            -66.187          -DE/DX =    0.0                 !
 ! D32   D(8,2,5,11)           173.1708         -DE/DX =    0.0                 !
 ! D33   D(8,2,5,17)            56.6321         -DE/DX =    0.0                 !
 ! D34   D(14,2,5,1)           177.2709         -DE/DX =    0.0                 !
 ! D35   D(14,2,5,11)           56.6286         -DE/DX =    0.0                 !
 ! D36   D(14,2,5,17)          -59.9101         -DE/DX =    0.0                 !
 ! D37   D(6,3,4,2)             54.4545         -DE/DX =    0.0                 !
 ! D38   D(6,3,4,10)           -66.1877         -DE/DX =    0.0                 !
 ! D39   D(6,3,4,16)           177.2736         -DE/DX =    0.0                 !
 ! D40   D(9,3,4,2)            -66.187          -DE/DX =    0.0                 !
 ! D41   D(9,3,4,10)           173.1708         -DE/DX =    0.0                 !
 ! D42   D(9,3,4,16)            56.6321         -DE/DX =    0.0                 !
 ! D43   D(15,3,4,2)           177.2709         -DE/DX =    0.0                 !
 ! D44   D(15,3,4,10)           56.6286         -DE/DX =    0.0                 !
 ! D45   D(15,3,4,16)          -59.9101         -DE/DX =    0.0                 !
 ! D46   D(4,3,6,1)            -54.4545         -DE/DX =    0.0                 !
 ! D47   D(4,3,6,12)            66.187          -DE/DX =    0.0                 !
 ! D48   D(4,3,6,18)          -177.2709         -DE/DX =    0.0                 !
 ! D49   D(9,3,6,1)             66.1877         -DE/DX =    0.0                 !
 ! D50   D(9,3,6,12)          -173.1708         -DE/DX =    0.0                 !
 ! D51   D(9,3,6,18)           -56.6286         -DE/DX =    0.0                 !
 ! D52   D(15,3,6,1)          -177.2736         -DE/DX =    0.0                 !
 ! D53   D(15,3,6,12)          -56.6321         -DE/DX =    0.0                 !
 ! D54   D(15,3,6,18)           59.9101         -DE/DX =    0.0                 !
 --------------------------------------------------------------------------------
 GradGradGradGradGradGradGradGradGradGradGradGradGradGradGradGradGradGrad

                          Input orientation:                          
 ---------------------------------------------------------------------
 Center     Atomic      Atomic             Coordinates (Angstroms)
 Number     Number       Type             X           Y           Z
 ---------------------------------------------------------------------
      1          6           0        0.000000    1.463273    0.227619
      2          6           0        1.267232   -0.731637    0.227619
      3          6           0       -1.267232   -0.731636    0.227619
      4          6           0       -0.000000   -1.463273   -0.227619
      5          6           0        1.267232    0.731636   -0.227619
      6          6           0       -1.267232    0.731637   -0.227619
      7          1           0        0.000014    1.534453    1.320670
      8          1           0        1.328868   -0.767239    1.320670
      9          1           0       -1.328882   -0.767214    1.320670
     10          1           0       -0.000014   -1.534453   -1.320670
     11          1           0        1.328882    0.767214   -1.320670
     12          1           0       -1.328868    0.767239   -1.320670
     13          1           0        0.000052    2.488770   -0.148877
     14          1           0        2.155312   -1.244430   -0.148877
     15          1           0       -2.155364   -1.244340   -0.148877
     16          1           0       -0.000052   -2.488770    0.148877
     17          1           0        2.155364    1.244340    0.148877
     18          1           0       -2.155312    1.244430    0.148877
 ---------------------------------------------------------------------
                    Distance matrix (angstroms):
                    1          2          3          4          5
     1  C    0.000000
[...]
     5  C   -0.045160  -0.045161   0.004338  -0.009218   0.463466  -0.009218
     6  C   -0.045161   0.004338  -0.045160  -0.009218  -0.009218   0.463466
     7  H    0.588462   0.002358   0.002358   0.000120   0.007641   0.007641
     8  H    0.002358   0.588462   0.002358   0.007641   0.007641   0.000120
     9  H    0.002358   0.002358   0.588462   0.007641   0.000120   0.007641
    10  H    0.000120   0.007641   0.007641   0.588462   0.002358   0.002358
    11  H    0.007641   0.007641   0.000120   0.002358   0.588462   0.002358
    12  H    0.007641   0.000120   0.007641   0.002358   0.002358   0.588462
    13  H   -0.026389  -0.000301  -0.000300  -0.000101  -0.007512  -0.007510
    14  H   -0.000300  -0.026389  -0.000301  -0.007512  -0.007510  -0.000101
    15  H   -0.000301  -0.000300  -0.026389  -0.007510  -0.000101  -0.007512
    16  H   -0.000101  -0.007510  -0.007512  -0.026389  -0.000300  -0.000301
    17  H   -0.007510  -0.007512  -0.000101  -0.000301  -0.026389  -0.000300
    18  H   -0.007512  -0.000101  -0.007510  -0.000300  -0.000301  -0.026389
              13         14         15         16         17         18
     1  C    0.437967   0.013675   0.013678  -0.007875  -0.021011  -0.021016
     2  C    0.013678   0.437967   0.013675  -0.021011  -0.021016  -0.007875
     3  C    0.013675   0.013678   0.437967  -0.021016  -0.007875  -0.021011
     4  C   -0.007875  -0.021016  -0.021011   0.437967   0.013678   0.013675
     5  C   -0.021016  -0.021011  -0.007875   0.013675   0.437967   0.013678
     6  C   -0.021011  -0.007875  -0.021016   0.013678   0.013675   0.437967
     7  H   -0.026389  -0.000300  -0.000301  -0.000101  -0.007510  -0.007512
     8  H   -0.000301  -0.026389  -0.000300  -0.007510  -0.007512  -0.000101
     9  H   -0.000300  -0.000301  -0.026389  -0.007512  -0.000101  -0.007510
    10  H   -0.000101  -0.007512  -0.007510  -0.026389  -0.000301  -0.000300
    11  H   -0.007512  -0.007510  -0.000101  -0.000300  -0.026389  -0.000301
    12  H   -0.007510  -0.000101  -0.007512  -0.000301  -0.000300  -0.026389
    13  H    0.584439  -0.000382  -0.000382   0.000192  -0.007053  -0.007053
    14  H   -0.000382   0.584439  -0.000382  -0.007053  -0.007053   0.000192
    15  H   -0.000382  -0.000382   0.584439  -0.007053   0.000192  -0.007053
    16  H    0.000192  -0.007053  -0.007053   0.584439  -0.000382  -0.000382
    17  H   -0.007053  -0.007053   0.000192  -0.000382   0.584439  -0.000382
    18  H   -0.007053   0.000192  -0.007053  -0.000382  -0.000382   0.584439
          Atomic-Atomic Spin Densities.
               1          2          3          4          5          6
     1  C    0.000000   0.000000   0.000000   0.000000   0.000000   0.000000
     2  C    0.000000   0.000000   0.000000   0.000000   0.000000   0.000000
     3  C    0.000000   0.000000   0.000000   0.000000   0.000000   0.000000
     4  C    0.000000   0.000000   0.000000   0.000000   0.000000   0.000000
     5  C    0.000000   0.000000   0.000000   0.000000   0.000000   0.000000
     6  C    0.000000   0.000000   0.000000   0.000000   0.000000   0.000000
     7  H    0.000000   0.000000   0.000000   0.000000   0.000000   0.000000
     8  H    0.000000   0.000000   0.000000   0.000000   0.000000   0.000000
     9  H    0.000000   0.000000   0.000000   0.000000   0.000000   0.000000
    10  H    0.000000   0.000000   0.000000   0.000000   0.000000   0.000000
    11  H    0.000000   0.000000   0.000000   0.000000   0.000000   0.000000
    12  H    0.000000   0.000000   0.000000   0.000000   0.000000   0.000000
    13  H    0.000000   0.000000   0.000000   0.000000   0.000000   0.000000
    14  H    0.000000   0.000000   0.000000   0.000000   0.000000   0.000000
    15  H    0.000000   0.000000   0.000000   0.000000   0.000000   0.000000
    16  H    0.000000   0.000000   0.000000   0.000000   0.000000   0.000000
    17  H    0.000000   0.000000   0.000000   0.000000   0.000000   0.000000
    18  H    0.000000   0.000000   0.000000   0.000000   0.000000   0.000000
               7          8          9         10         11         12
     1  C    0.000000   0.000000   0.000000   0.000000   0.000000   0.000000
     2  C    0.000000   0.000000   0.000000   0.000000   0.000000   0.000000
     3  C    0.000000   0.000000   0.000000   0.000000   0.000000   0.000000
     4  C    0.000000   0.000000   0.000000   0.000000   0.000000   0.000000
     5  C    0.000000   0.000000   0.000000   0.000000   0.000000   0.000000
     6  C    0.000000   0.000000   0.000000   0.000000   0.000000   0.000000
     7  H    0.000000   0.000000   0.000000   0.000000   0.000000   0.000000
     8  H    0.000000   0.000000   0.000000   0.000000   0.000000   0.000000
     9  H    0.000000   0.000000   0.000000   0.000000   0.000000   0.000000
    10  H    0.000000   0.000000   0.000000   0.000000   0.000000   0.000000
    11  H    0.000000   0.000000   0.000000   0.000000   0.000000   0.000000
    12  H    0.000000   0.000000   0.000000   0.000000   0.000000   0.000000
    13  H    0.000000   0.000000   0.000000   0.000000   0.000000   0.000000
    14  H    0.000000   0.000000   0.000000   0.000000   0.000000   0.000000
    15  H    0.000000   0.000000   0.000000   0.000000   0.000000   0.000000
    16  H    0.000000   0.000000   0.000000   0.000000   0.000000   0.000000
    17  H    0.000000   0.000000   0.000000   0.000000   0.000000   0.000000
    18  H    0.000000   0.000000   0.000000   0.000000   0.000000   0.000000
              13         14         15         16         17         18
     1  C    0.000000   0.000000   0.000000   0.000000   0.000000   0.000000
     2  C    0.000000   0.000000   0.000000   0.000000   0.000000   0.000000
     3  C    0.000000   0.000000   0.000000   0.000000   0.000000   0.000000
     4  C    0.000000   0.000000   0.000000   0.000000   0.000000   0.000000
     5  C    0.000000   0.000000   0.000000   0.000000   0.000000   0.000000
     6  C    0.000000   0.000000   0.000000   0.000000   0.000000   0.000000
     7  H    0.000000   0.000000   0.000000   0.000000   0.000000   0.000000
     8  H    0.000000   0.000000   0.000000   0.000000   0.000000   0.000000
     9  H    0.000000   0.000000   0.000000   0.000000   0.000000   0.000000
    10  H    0.000000   0.000000   0.000000   0.000000   0.000000   0.000000
    11  H    0.000000   0.000000   0.000000   0.000000   0.000000   0.000000
    12  H    0.000000   0.000000   0.000000   0.000000   0.000000   0.000000
    13  H    0.000000   0.000000   0.000000   0.000000   0.000000   0.000000
    14  H    0.000000   0.000000   0.000000   0.000000   0.000000   0.000000
    15  H    0.000000   0.000000   0.000000   0.000000   0.000000   0.000000
    16  H    0.000000   0.000000   0.000000   0.000000   0.000000   0.000000
    17  H    0.000000   0.000000   0.000000   0.000000   0.000000   0.000000
    18  H    0.000000   0.000000   0.000000   0.000000   0.000000   0.000000
 Mulliken charges and spin densities:
               1          2
     1  C   -0.131415   0.000000
     2  C   -0.131415   0.000000
     3  C   -0.131415   0.000000
     4  C   -0.131415   0.000000
     5  C   -0.131415   0.000000
     6  C   -0.131415   0.000000
     7  H    0.074483   0.000000
     8  H    0.074483   0.000000
     9  H    0.074483   0.000000
    10  H    0.074483   0.000000
    11  H    0.074483   0.000000
    12  H    0.074483   0.000000
    13  H    0.056932   0.000000
    14  H    0.056932   0.000000
    15  H    0.056932   0.000000
    16  H    0.056932   0.000000
    17  H    0.056932   0.000000
    18  H    0.056932   0.000000
 Sum of Mulliken charges =   0.00000   0.00000
 Mulliken charges and spin densities with hydrogens summed into heavy atoms:
               1          2
     1  C    0.000000   0.000000
     2  C    0.000000   0.000000
     3  C    0.000000   0.000000
     4  C    0.000000   0.000000
     5  C    0.000000   0.000000
     6  C    0.000000   0.000000
 Electronic spatial extent (au):  <R**2>=            593.3274
 Charge=             -0.0000 electrons
 Dipole moment (field-independent basis, Debye):
    X=             -0.0000    Y=              0.0000    Z=             -0.0000  Tot=              0.0000
 Quadrupole moment (field-independent basis, Debye-Ang):
   XX=            -40.7860   YY=            -40.7860   ZZ=            -40.0078
   XY=              0.0000   XZ=              0.0000   YZ=             -0.0000
 Traceless Quadrupole moment (field-independent basis, Debye-Ang):
   XX=             -0.2594   YY=             -0.2594   ZZ=              0.5188
   XY=              0.0000   XZ=              0.0000   YZ=             -0.0000
 Octapole moment (field-independent basis, Debye-Ang**2):
  XXX=              0.0000  YYY=             -0.0000  ZZZ=             -0.0000  XYY=              0.0000
  XXY=              0.0000  XXZ=              0.0000  XZZ=              0.0000  YZZ=              0.0000
  YYZ=              0.0000  XYZ=             -0.0000
 Hexadecapole moment (field-independent basis, Debye-Ang**3):
 XXXX=           -363.5639 YYYY=           -363.5639 ZZZZ=            -99.4182 XXXY=             -0.0000
 XXXZ=             -0.0002 YYYX=              0.0000 YYYZ=              3.2832 ZZZX=              0.0000
 ZZZY=              0.0000 XXYY=           -121.1880 XXZZ=            -79.1088 YYZZ=            -79.1088
 XXYZ=             -3.2832 YYXZ=              0.0002 ZZXY=              0.0000
 N-N= 2.557522360029D+02 E-N=-1.056184477498D+03  KE= 2.341057888952D+02
 Symmetry AG   KE= 1.168822378530D+02
 Symmetry AU   KE= 1.172235510422D+02
 Symmetry AG   SP= 0.000000000000D+00
 Symmetry AU   SP= 0.000000000000D+00
                          Isotropic Fermi Contact Couplings
        Atom                 a.u.       MegaHertz       Gauss      10(-4) cm-1
     1  C(13)              0.00000       0.00000       0.00000       0.00000
     2  C(13)              0.00000       0.00000       0.00000       0.00000
     3  C(13)              0.00000       0.00000       0.00000       0.00000
     4  C(13)              0.00000       0.00000       0.00000       0.00000
     5  C(13)              0.00000       0.00000       0.00000       0.00000
     6  C(13)              0.00000       0.00000       0.00000       0.00000
     7  H(1)               0.00000       0.00000       0.00000       0.00000
     8  H(1)               0.00000       0.00000       0.00000       0.00000
     9  H(1)               0.00000       0.00000       0.00000       0.00000
    10  H(1)               0.00000       0.00000       0.00000       0.00000
    11  H(1)               0.00000       0.00000       0.00000       0.00000
    12  H(1)               0.00000       0.00000       0.00000       0.00000
    13  H(1)               0.00000       0.00000       0.00000       0.00000
    14  H(1)               0.00000       0.00000       0.00000       0.00000
    15  H(1)               0.00000       0.00000       0.00000       0.00000
    16  H(1)               0.00000       0.00000       0.00000       0.00000
    17  H(1)               0.00000       0.00000       0.00000       0.00000
    18  H(1)               0.00000       0.00000       0.00000       0.00000
 --------------------------------------------------------
       Center         ----  Spin Dipole Couplings  ----
                      3XX-RR        3YY-RR        3ZZ-RR
 --------------------------------------------------------
     1   Atom        0.000000      0.000000      0.000000
     2   Atom        0.000000      0.000000      0.000000
     3   Atom        0.000000      0.000000      0.000000
     4   Atom        0.000000      0.000000      0.000000
     5   Atom        0.000000      0.000000      0.000000
     6   Atom        0.000000      0.000000      0.000000
     7   Atom        0.000000      0.000000      0.000000
     8   Atom        0.000000      0.000000      0.000000
     9   Atom        0.000000      0.000000      0.000000
    10   Atom        0.000000      0.000000      0.000000
    11   Atom        0.000000      0.000000      0.000000
    12   Atom        0.000000      0.000000      0.000000
    13   Atom        0.000000      0.000000      0.000000
    14   Atom        0.000000      0.000000      0.000000
    15   Atom        0.000000      0.000000      0.000000
    16   Atom        0.000000      0.000000      0.000000
    17   Atom        0.000000      0.000000      0.000000
    18   Atom        0.000000      0.000000      0.000000
 --------------------------------------------------------
                        XY            XZ            YZ
 --------------------------------------------------------
     1   Atom        0.000000      0.000000      0.000000
     2   Atom        0.000000      0.000000      0.000000
     3   Atom        0.000000      0.000000      0.000000
     4   Atom        0.000000      0.000000      0.000000
     5   Atom        0.000000      0.000000      0.000000
     6   Atom        0.000000      0.000000      0.000000
     7   Atom        0.000000      0.000000      0.000000
     8   Atom        0.000000      0.000000      0.000000
     9   Atom        0.000000      0.000000      0.000000
    10   Atom        0.000000      0.000000      0.000000
    11   Atom        0.000000      0.000000      0.000000
    12   Atom        0.000000      0.000000      0.000000
    13   Atom        0.000000      0.000000      0.000000
    14   Atom        0.000000      0.000000      0.000000
    15   Atom        0.000000      0.000000      0.000000
    16   Atom        0.000000      0.000000      0.000000
    17   Atom        0.000000      0.000000      0.000000
    18   Atom        0.000000      0.000000      0.000000
 --------------------------------------------------------


 ---------------------------------------------------------------------------------
              Anisotropic Spin Dipole Couplings in Principal Axis System
 ---------------------------------------------------------------------------------

       Atom             a.u.   MegaHertz   Gauss  10(-4) cm-1        Axes

              Baa     0.0000     0.000     0.000     0.000  1.0000  0.0000  0.0000
     1 C(13)  Bbb     0.0000     0.000     0.000     0.000 -0.0000  1.0000  0.0000
              Bcc     0.0000     0.000     0.000     0.000  0.0000  0.0000  1.0000
 
              Baa     0.0000     0.000     0.000     0.000  1.0000  0.0000  0.0000
     2 C(13)  Bbb     0.0000     0.000     0.000     0.000 -0.0000  1.0000  0.0000
              Bcc     0.0000     0.000     0.000     0.000  0.0000  0.0000  1.0000
 
              Baa     0.0000     0.000     0.000     0.000  1.0000  0.0000  0.0000
     3 C(13)  Bbb     0.0000     0.000     0.000     0.000 -0.0000  1.0000  0.0000
              Bcc     0.0000     0.000     0.000     0.000  0.0000  0.0000  1.0000
 
              Baa     0.0000     0.000     0.000     0.000  1.0000  0.0000  0.0000
     4 C(13)  Bbb     0.0000     0.000     0.000     0.000 -0.0000  1.0000  0.0000
              Bcc     0.0000     0.000     0.000     0.000  0.0000  0.0000  1.0000
 
              Baa     0.0000     0.000     0.000     0.000  1.0000  0.0000  0.0000
     5 C(13)  Bbb     0.0000     0.000     0.000     0.000 -0.0000  1.0000  0.0000
              Bcc     0.0000     0.000     0.000     0.000  0.0000  0.0000  1.0000
 
              Baa     0.0000     0.000     0.000     0.000  1.0000  0.0000  0.0000
     6 C(13)  Bbb     0.0000     0.000     0.000     0.000 -0.0000  1.0000  0.0000
              Bcc     0.0000     0.000     0.000     0.000  0.0000  0.0000  1.0000
 
              Baa     0.0000     0.000     0.000     0.000  1.0000  0.0000  0.0000
     7 H(1)   Bbb     0.0000     0.000     0.000     0.000 -0.0000  1.0000  0.0000
              Bcc     0.0000     0.000     0.000     0.000  0.0000  0.0000  1.0000
 
              Baa     0.0000     0.000     0.000     0.000  1.0000  0.0000  0.0000
     8 H(1)   Bbb     0.0000     0.000     0.000     0.000 -0.0000  1.0000  0.0000
              Bcc     0.0000     0.000     0.000     0.000  0.0000  0.0000  1.0000
 
              Baa     0.0000     0.000     0.000     0.000  1.0000  0.0000  0.0000
     9 H(1)   Bbb     0.0000     0.000     0.000     0.000 -0.0000  1.0000  0.0000
              Bcc     0.0000     0.000     0.000     0.000  0.0000  0.0000  1.0000
 
              Baa     0.0000     0.000     0.000     0.000  1.0000  0.0000  0.0000
    10 H(1)   Bbb     0.0000     0.000     0.000     0.000 -0.0000  1.0000  0.0000
              Bcc     0.0000     0.000     0.000     0.000  0.0000  0.0000  1.0000
 
              Baa     0.0000     0.000     0.000     0.000  1.0000  0.0000  0.0000
    11 H(1)   Bbb     0.0000     0.000     0.000     0.000 -0.0000  1.0000  0.0000
              Bcc     0.0000     0.000     0.000     0.000  0.0000  0.0000  1.0000
 
              Baa     0.0000     0.000     0.000     0.000  1.0000  0.0000  0.0000
    12 H(1)   Bbb     0.0000     0.000     0.000     0.000 -0.0000  1.0000  0.0000
              Bcc     0.0000     0.000     0.000     0.000  0.0000  0.0000  1.0000
 
              Baa     0.0000     0.000     0.000     0.000  1.0000  0.0000  0.0000
    13 H(1)   Bbb     0.0000     0.000     0.000     0.000 -0.0000  1.0000  0.0000
              Bcc     0.0000     0.000     0.000     0.000  0.0000  0.0000  1.0000
 
              Baa     0.0000     0.000     0.000     0.000  1.0000  0.0000  0.0000
    14 H(1)   Bbb     0.0000     0.000     0.000     0.000 -0.0000  1.0000  0.0000
              Bcc     0.0000     0.000     0.000     0.000  0.0000  0.0000  1.0000
 
              Baa     0.0000     0.000     0.000     0.000  1.0000  0.0000  0.0000
    15 H(1)   Bbb     0.0000     0.000     0.000     0.000 -0.0000  1.0000  0.0000
              Bcc     0.0000     0.000     0.000     0.000  0.0000  0.0000  1.0000
 
              Baa     0.0000     0.000     0.000     0.000  1.0000  0.0000  0.0000
    16 H(1)   Bbb     0.0000     0.000     0.000     0.000 -0.0000  1.0000  0.0000
              Bcc     0.0000     0.000     0.000     0.000  0.0000  0.0000  1.0000
 
              Baa     0.0000     0.000     0.000     0.000  1.0000  0.0000  0.0000
    17 H(1)   Bbb     0.0000     0.000     0.000     0.000 -0.0000  1.0000  0.0000
              Bcc     0.0000     0.000     0.000     0.000  0.0000  0.0000  1.0000
 
              Baa     0.0000     0.000     0.000     0.000  1.0000  0.0000  0.0000
    18 H(1)   Bbb     0.0000     0.000     0.000     0.000 -0.0000  1.0000  0.0000
              Bcc     0.0000     0.000     0.000     0.000  0.0000  0.0000  1.0000
 

 ---------------------------------------------------------------------------------

 1\1\GINC-GAMBA\SP\ROHF\Gen\C6H12\IRIKURA\01-Oct-2023\0\\# rohf/gen geo
 m=check guess=check\\cyclohexane, ROHF/cc-pVTZ-F12\\0,1\C,0,0.,1.46327
 3,0.227619\C,0,1.2672315907,-0.7316365,0.227619\C,0,-1.2672315907,-0.7
 316365,0.227619\C,0,0.,-1.463273,-0.227619\C,0,1.2672315907,0.7316365,
 -0.227619\C,0,-1.2672315907,0.7316365,-0.227619\H,0,0.000014,1.534453,
 1.32067\H,0,1.3288682789,-0.7672386244,1.32067\H,0,-1.3288822789,-0.76
 72143756,1.32067\H,0,-0.000014,-1.534453,-1.32067\H,0,1.3288822789,0.7
 672143756,-1.32067\H,0,-1.3288682789,0.7672386244,-1.32067\H,0,0.00005
 2,2.48877,-0.148877\H,0,2.1553120442,-1.2444300333,-0.148877\H,0,-2.15
 53640442,-1.2443399667,-0.148877\H,0,-0.000052,-2.48877,0.148877\H,0,2
 .1553640442,1.2443399667,0.148877\H,0,-2.1553120442,1.2444300333,0.148
 877\\Version=ES64L-G16RevB.01\State=1-AG\HF=-234.2994642\RMSD=2.170e-0
 9\Dipole=0.,0.,0.\Quadrupole=-0.1928405,-0.1928405,0.385681,0.,0.,0.\P
 G=S06 [X(C6H12)]\\@


 If your ship doesn't come in, swim out to it!
                          -- Jonathan Winters
 Job cpu time:       0 days  0 hours  8 minutes 26.2 seconds.
 Elapsed time:       0 days  0 hours  2 minutes  6.7 seconds.
 File lengths (MBytes):  RWF=    204 Int=      0 D2E=      0 Chk=     26 Scr=      1
 Normal termination of Gaussian 16 at Sun Oct  1 00:23:00 2023.
