 Entering Gaussian System, Link 0=g16
 AtFile(1): pcseg2.gbs
            -H     0
            S   4   1.00
                  0.754732D+02           0.427821D-02
                  0.113575D+02           0.328672D-01
                  0.260081D+01           0.159578D+00
                  0.735503D+00           0.500000D+00
            S   1   1.00
                  0.231761D+00           1.0000000
            S   1   1.00
                  0.741675D-01           1.0000000
            P   1   1.00
                  0.160000D+01           1.0000000
            P   1   1.00
                  0.450000D+00           1.0000000
            D   1   1.00
                  0.125000D+01           1.0000000
            ****
            -C     0
            S   7   1.00
                  0.731999D+04           0.695369D-03
                  0.109818D+04           0.537138D-02
                  0.250014D+03           0.274734D-01
                  0.707586D+02           0.105078D+00
                  0.228595D+02           0.291262D+00
                  0.803936D+01           0.500000D+00
                  0.289309D+01           0.362224D+00
            S   2   1.00
                  0.521640D+01          -0.957844D-01
                  0.556124D+00           0.500000D+00
            S   1   1.00
                  0.228813D+00           1.0000000
            S   1   1.00
                  0.936338D-01           1.0000000
            P   4   1.00
                  0.339855D+02           0.818395D-02
                  0.772957D+01           0.586921D-01
                  0.224954D+01           0.222514D+00
                  0.767681D+00           0.500000D+00
            P   1   1.00
                  0.263283D+00           1.0000000
            P   1   1.00
                  0.848744D-01           1.0000000
            D   1   1.00
                  0.140000D+01           1.0000000
            D   1   1.00
                  0.450000D+00           1.0000000
            F   1   1.00
                  0.950000D+00           1.0000000
            ****
            -O     0
            S   7   1.00
                  0.135887D+05           0.665492D-03
                  0.203847D+04           0.514222D-02
                  0.464041D+03           0.263472D-01
                  0.131339D+03           0.101500D+00
                  0.425340D+02           0.285877D+00
                  0.150429D+02           0.500000D+00
                  0.546616D+01           0.368211D+00
            S   2   1.00
                  0.100915D+02          -0.100084D+00
                  0.110429D+01           0.500000D+00
            S   1   1.00
                  0.448082D+00           1.0000000
            S   1   1.00
                  0.175325D+00           1.0000000
            P   4   1.00
                  0.608220D+02           0.908253D-02
                  0.140332D+02           0.645878D-01
                  0.418244D+01           0.241502D+00
                  0.142490D+01           0.500000D+00
            P   1   1.00
                  0.478741D+00           1.0000000
            P   1   1.00
                  0.146257D+00           1.0000000
            D   1   1.00
                  0.220000D+01           1.0000000
            D   1   1.00
                  0.650000D+00           1.0000000
            F   1   1.00
                  0.110000D+01           1.0000000
            ****
            -N     0
            S   7   1.00
                  0.101643D+05           0.682757D-03
                  0.152481D+04           0.527488D-02
                  0.347119D+03           0.270037D-01
                  0.982389D+02           0.103673D+00
                  0.317799D+02           0.289575D+00
                  0.112240D+02           0.500000D+00
                  0.406611D+01           0.364621D+00
            S   2   1.00
                  0.747898D+01          -0.975681D-01
                  0.805040D+00           0.500000D+00
            S   1   1.00
                  0.324626D+00           1.0000000
            S   1   1.00
                  0.128132D+00           1.0000000
            P   4   1.00
                  0.482704D+02           0.829547D-02
                  0.110815D+02           0.596223D-01
                  0.326643D+01           0.227889D+00
                  0.111680D+01           0.500000D+00
            P   1   1.00
                  0.382049D+00           1.0000000
            P   1   1.00
                  0.121222D+00           1.0000000
            D   1   1.00
                  0.180000D+01           1.0000000
            D   1   1.00
                  0.550000D+00           1.0000000
            F   1   1.00
                  0.102000D+01           1.0000000
            ****
            -F     0
            S   7   1.00
                  0.174507D+05           0.655972D-03
                  0.261768D+04           0.506944D-02
                  0.595857D+03           0.259899D-01
                  0.168651D+03           0.100353D+00
                  0.546654D+02           0.284095D+00
                  0.193717D+02           0.500000D+00
                  0.706202D+01           0.370721D+00
            S   2   1.00
                  0.131197D+02          -0.101997D+00
                  0.145046D+01           0.500000D+00
            S   1   1.00
                  0.588255D+00           1.0000000
            S   1   1.00
                  0.227960D+00           1.0000000
            P   4   1.00
                  0.779407D+02           0.931135D-02
                  0.180425D+02           0.663964D-01
                  0.542342D+01           0.246386D+00
                  0.184876D+01           0.500000D+00
            P   1   1.00
                  0.617455D+00           1.0000000
            P   1   1.00
                  0.185496D+00           1.0000000
            D   1   1.00
                  0.280000D+01           1.0000000
            D   1   1.00
                  0.800000D+00           1.0000000
            F   1   1.00
                  0.120000D+01           1.0000000
            ****
            -Cl     0
            S   8   1.00
                  0.154272D+06           0.222473D-03
                  0.231232D+05           0.172590D-02
                  0.526257D+04           0.899286D-02
                  0.148995D+04           0.367724D-01
                  0.485417D+03           0.121446D+00
                  0.174634D+03           0.304148D+00
                  0.672393D+02           0.500000D+00
                  0.265780D+02           0.360252D+00
            S   3   1.00
                  0.131826D+03          -0.531330D-01
                  0.400703D+02          -0.233346D+00
                  0.789448D+01           0.500000D+00
            S   2   1.00
                  0.427711D+01           0.500000D+00
                  0.196233D+01           0.370517D+00
            S   1   1.00
                  0.520793D+00           1.0000000
            S   1   1.00
                  0.181633D+00           1.0000000
            P   7   1.00
                  0.124440D+04           0.988206D-03
                  0.295109D+03           0.829674D-02
                  0.947224D+02           0.430906D-01
                  0.352588D+02           0.148443D+00
                  0.144211D+02           0.344744D+00
                  0.610371D+01           0.500000D+00
                  0.258886D+01           0.348278D+00
            P   2   1.00
                  0.109447D+02          -0.196768D-01
                  0.104413D+01           0.500000D+00
            P   1   1.00
                  0.376184D+00           1.0000000
            P   1   1.00
                  0.120613D+00           1.0000000
            D   1   1.00
                  0.231000D+01           1.0000000
            D   1   1.00
                  0.520000D+00           1.0000000
            F   1   1.00
                  0.720000D+00           1.0000000
            ****
            -S     0
            S   8   1.00
                  0.134700D+06           0.226231D-03
                  0.201904D+05           0.175488D-02
                  0.459528D+04           0.914190D-02
                  0.130109D+04           0.373551D-01
                  0.423902D+03           0.123121D+00
                  0.152485D+03           0.306801D+00
                  0.586925D+02           0.500000D+00
                  0.231461D+02           0.354358D+00
            S   3   1.00
                  0.116327D+03          -0.491772D-01
                  0.352841D+02          -0.215962D+00
                  0.677831D+01           0.500000D+00
            S   2   1.00
                  0.360404D+01           0.500000D+00
                  0.164871D+01           0.366278D+00
            S   1   1.00
                  0.421821D+00           1.0000000
            S   1   1.00
                  0.147554D+00           1.0000000
            P   7   1.00
                  0.104863D+04           0.105273D-02
                  0.248717D+03           0.879338D-02
                  0.797887D+02           0.453358D-01
                  0.296023D+02           0.154476D+00
                  0.120627D+02           0.352366D+00
                  0.507628D+01           0.500000D+00
                  0.213375D+01           0.346429D+00
            P   2   1.00
                  0.928958D+01          -0.185932D-01
                  0.837819D+00           0.500000D+00
            P   1   1.00
                  0.301495D+00           1.0000000
            P   1   1.00
                  0.974740D-01           1.0000000
            D   1   1.00
                  0.210000D+01           1.0000000
            D   1   1.00
                  0.480000D+00           1.0000000
            F   1   1.00
                  0.660000D+00           1.0000000
            ****
            -Br     0
            S    10   1.00
                  0.233625D+07           0.532336D-04
                  0.349961D+06           0.413715D-03
                  0.796444D+05           0.217123D-02
                  0.225555D+05           0.910109D-02
                  0.735546D+04           0.323789D-01
                  0.265352D+04           0.988755D-01
                  0.103517D+04           0.248138D+00
                  0.422205D+03           0.474328D+00
                  0.180035D+03           0.500000D+00
                  0.793308D+02           0.187769D+00
            S    4   1.00
                  0.620834D+03          -0.226511D-01
                  0.190829D+03          -0.109497D+00
                  0.312505D+02           0.500000D+00
                  0.135270D+02           0.492812D+00
            S    2   1.00
                  0.216097D+02          -0.165418D+00
                  0.372566D+01           0.500000D+00
            S    1   1.00
                  0.169770D+01           1.0000000
            S    1   1.00
                  0.489332D+00           1.0000000
            S    1   1.00
                  0.175712D+00           1.0000000
            P    8   1.00
                  0.960829D+04           0.478974D-03
                  0.227618D+04           0.417853D-02
                  0.736723D+03           0.229315D-01
                  0.281579D+03           0.892653D-01
                  0.118395D+03           0.255288D+00
                  0.527481D+02           0.479074D+00
                  0.245098D+02           0.500000D+00
                  0.112009D+02           0.200944D+00
            P    4   1.00
                  0.587849D+02          -0.189674D-01
                  0.918962D+01           0.264104D+00
                  0.413895D+01           0.500000D+00
                  0.184225D+01           0.319316D+00
            P    1   1.00
                  0.713862D+00           1.0000000
            P    1   1.00
                  0.274232D+00           1.0000000
            P    1   1.00
                  0.944411D-01           1.0000000
            D    7   1.00
                  0.398470D+03           0.204066D-02
                  0.118967D+03           0.175171D-01
                  0.450197D+02           0.829708D-01
                  0.190320D+02           0.236284D+00
                  0.855686D+01           0.428468D+00
                  0.382950D+01           0.500000D+00
                  0.166291D+01           0.349360D+00
            D    1   1.00
                  0.672953D+00           1.0000000
            D    1   1.00
                  0.252000D+00           1.0000000
            F    1   1.00
                  0.530000D+00           1.0000000
            ****
            -Si     0
            S    8   1.00
                  0.996133D+05           0.235546D-03
                  0.149311D+05           0.182707D-02
                  0.339820D+04           0.951425D-02
                  0.962140D+03           0.388172D-01
                  0.313430D+03           0.127328D+00
                  0.112683D+03           0.313522D+00
                  0.433372D+02           0.500000D+00
                  0.170029D+02           0.340347D+00
            S    3   1.00
                  0.884208D+02          -0.404451D-01
                  0.266756D+02          -0.178059D+00
                  0.479640D+01           0.500000D+00
            S    2   1.00
                  0.239385D+01           0.500000D+00
                  0.108333D+01           0.338016D+00
            S    1   1.00
                  0.252420D+00           1.0000000
            S    1   1.00
                  0.891210D-01           1.0000000
            P    7   1.00
                  0.709901D+03           0.123028D-02
                  0.168426D+03           0.101366D-01
                  0.539946D+02           0.511840D-01
                  0.198646D+02           0.169967D+00
                  0.801369D+01           0.370717D+00
                  0.331870D+01           0.500000D+00
                  0.136112D+01           0.344128D+00
            P    2   1.00
                  0.622158D+01          -0.166609D-01
                  0.503049D+00           0.500000D+00
            P    1   1.00
                  0.179848D+00           1.0000000
            P    1   1.00
                  0.591912D-01           1.0000000
            D    1   1.00
                  0.168000D+01           1.0000000
            D    1   1.00
                  0.380000D+00           1.0000000
            F    1   1.00
                  0.540000D+00           1.0000000
            ****
            -P     0
            S    8   1.00
                  0.116416D+06           0.230715D-03
                  0.174500D+05           0.178960D-02
                  0.397149D+04           0.932116D-02
                  0.112447D+04           0.380591D-01
                  0.366347D+03           0.125148D+00
                  0.131757D+03           0.310022D+00
                  0.506988D+02           0.500000D+00
                  0.199436D+02           0.347528D+00
            S    3   1.00
                  0.101878D+03          -0.446755D-01
                  0.308249D+02          -0.196376D+00
                  0.573688D+01           0.500000D+00
            S    2   1.00
                  0.296868D+01           0.500000D+00
                  0.135315D+01           0.355098D+00
            S    1   1.00
                  0.332196D+00           1.0000000
            S    1   1.00
                  0.116229D+00           1.0000000
            P    7   1.00
                  0.873928D+03           0.112375D-02
                  0.207298D+03           0.933330D-02
                  0.664628D+02           0.477213D-01
                  0.245665D+02           0.160733D+00
                  0.996820D+01           0.359760D+00
                  0.416536D+01           0.500000D+00
                  0.173022D+01           0.346593D+00
            P    2   1.00
                  0.772530D+01          -0.175718D-01
                  0.657252D+00           0.500000D+00
            P    1   1.00
                  0.239903D+00           1.0000000
            P    1   1.00
                  0.800988D-01           1.0000000
            D    1   1.00
                  0.189000D+01           1.0000000
            D    1   1.00
                  0.430000D+00           1.0000000
            F    1   1.00
                  0.600000D+00           1.0000000
            ****
            
 Initial command:
 /usr/local/apps/g16_b01_avx/g16/l1.exe "/wrk/irikura/Gau-329652.inp" -scrdir="/wrk/irikura/"
 Entering Link 1 = /usr/local/apps/g16_b01_avx/g16/l1.exe PID=    329654.
  
 Copyright (c) 1988-2017, Gaussian, Inc.  All Rights Reserved.
  
 This is part of the Gaussian(R) 16 program.  It is based on
 the Gaussian(R) 09 system (copyright 2009, Gaussian, Inc.),
 the Gaussian(R) 03 system (copyright 2003, Gaussian, Inc.),
 the Gaussian(R) 98 system (copyright 1998, Gaussian, Inc.),
 the Gaussian(R) 94 system (copyright 1995, Gaussian, Inc.),
 the Gaussian 92(TM) system (copyright 1992, Gaussian, Inc.),
 the Gaussian 90(TM) system (copyright 1990, Gaussian, Inc.),
 the Gaussian 88(TM) system (copyright 1988, Gaussian, Inc.),
 the Gaussian 86(TM) system (copyright 1986, Carnegie Mellon
 University), and the Gaussian 82(TM) system (copyright 1983,
 Carnegie Mellon University). Gaussian is a federally registered
 trademark of Gaussian, Inc.
  
 This software contains proprietary and confidential information,
 including trade secrets, belonging to Gaussian, Inc.
  
 This software is provided under written license and may be
 used, copied, transmitted, or stored only in accord with that
 written license.
  
 The following legend is applicable only to US Government
 contracts under FAR:
  
                    RESTRICTED RIGHTS LEGEND
  
 Use, reproduction and disclosure by the US Government is
 subject to restrictions as set forth in subparagraphs (a)
 and (c) of the Commercial Computer Software - Restricted
 Rights clause in FAR 52.227-19.
  
 Gaussian, Inc.
 340 Quinnipiac St., Bldg. 40, Wallingford CT 06492
  
  
 ---------------------------------------------------------------
 Warning -- This program may not be used in any manner that
 competes with the business of Gaussian, Inc. or will provide
 assistance to any competitor of Gaussian, Inc.  The licensee
 of this program is prohibited from giving any competitor of
 Gaussian, Inc. access to this program.  By using this program,
 the user acknowledges that Gaussian, Inc. is engaged in the
 business of creating and licensing software in the field of
 computational chemistry and represents and warrants to the
 licensee that it is not a competitor of Gaussian, Inc. and that
 it will not use this program in any manner prohibited above.
 ---------------------------------------------------------------
  

 Cite this work as:
 Gaussian 16, Revision B.01,
 M. J. Frisch, G. W. Trucks, H. B. Schlegel, G. E. Scuseria, 
 M. A. Robb, J. R. Cheeseman, G. Scalmani, V. Barone, 
 G. A. Petersson, H. Nakatsuji, X. Li, M. Caricato, A. V. Marenich, 
 J. Bloino, B. G. Janesko, R. Gomperts, B. Mennucci, H. P. Hratchian, 
 J. V. Ortiz, A. F. Izmaylov, J. L. Sonnenberg, D. Williams-Young, 
 F. Ding, F. Lipparini, F. Egidi, J. Goings, B. Peng, A. Petrone, 
 T. Henderson, D. Ranasinghe, V. G. Zakrzewski, J. Gao, N. Rega, 
 G. Zheng, W. Liang, M. Hada, M. Ehara, K. Toyota, R. Fukuda, 
 J. Hasegawa, M. Ishida, T. Nakajima, Y. Honda, O. Kitao, H. Nakai, 
 T. Vreven, K. Throssell, J. A. Montgomery, Jr., J. E. Peralta, 
 F. Ogliaro, M. J. Bearpark, J. J. Heyd, E. N. Brothers, K. N. Kudin, 
 V. N. Staroverov, T. A. Keith, R. Kobayashi, J. Normand, 
 K. Raghavachari, A. P. Rendell, J. C. Burant, S. S. Iyengar, 
 J. Tomasi, M. Cossi, J. M. Millam, M. Klene, C. Adamo, R. Cammi, 
 J. W. Ochterski, R. L. Martin, K. Morokuma, O. Farkas, 
 J. B. Foresman, and D. J. Fox, Gaussian, Inc., Wallingford CT, 2016.
 
 ******************************************
 Gaussian 16:  ES64L-G16RevB.01 20-Dec-2017
                12-Sep-2023 
 ******************************************
 %mem=1000MW
 %nprocs=12
 Will use up to   12 processors via shared memory.
 --------------------
 # opt freq b3lyp/gen
 --------------------
 1/18=20,19=15,26=3,38=1/1,3;
 2/9=110,12=2,17=6,18=5,40=1/2;
 3/5=7,11=2,25=1,30=1,71=1,74=-5/1,2,3;
 4//1;
 5/5=2,38=5/2;
 6/7=2,8=2,9=2,10=2,28=1/1;
 7//1,2,3,16;
 1/18=20,19=15,26=3/3(2);
 2/9=110/2;
 99//99;
 2/9=110/2;
 3/5=7,6=1,11=2,25=1,30=1,71=1,74=-5,82=7/1,2,3;
 4/5=5,16=3,69=1/1;
 5/5=2,38=5/2;
 7//1,2,3,16;
 1/18=20,19=15,26=3/3(-5);
 2/9=110/2;
 6/7=2,8=2,9=2,10=2,19=2,28=1/1;
 99/9=1/99;
 ------------------------------
 cycloheptadiene, B3LYP/pcseg-2
 ------------------------------
 Symbolic Z-matrix:
 Charge =  0 Multiplicity = 1
 C                     0.        1.51813   0.42551 
 C                     0.73071  -1.46423   0.07414 
 C                    -0.73071  -1.46423   0.07414 
 C                     1.59595  -0.44891  -0.06644 
 C                    -1.59595  -0.44891  -0.06644 
 C                     1.29986   1.01715  -0.21802 
 C                    -1.29986   1.01715  -0.21802 
 H                     0.        2.61365   0.38397 
 H                     0.        1.24644   1.48753 
 H                     1.16712  -2.45563   0.17891 
 H                    -1.16712  -2.45563   0.17891 
 H                     2.65402  -0.7038   -0.07217 
 H                    -2.65402  -0.7038   -0.07217 
 H                     2.13758   1.57887   0.2154 
 H                     1.30789   1.28077  -1.28689 
 H                    -2.13758   1.57887   0.2154 
 H                    -1.30789   1.28077  -1.28689 
 

 GradGradGradGradGradGradGradGradGradGradGradGradGradGradGradGradGradGrad
 Berny optimization.
 Initialization pass.
                           ----------------------------
                           !    Initial Parameters    !
                           ! (Angstroms and Degrees)  !
 --------------------------                            --------------------------
 ! Name  Definition              Value          Derivative Info.                !
 --------------------------------------------------------------------------------
 ! R1    R(1,6)                  1.5345         estimate D2E/DX2                !
 ! R2    R(1,7)                  1.5345         estimate D2E/DX2                !
 ! R3    R(1,8)                  1.0963         estimate D2E/DX2                !
 ! R4    R(1,9)                  1.0962         estimate D2E/DX2                !
 ! R5    R(2,3)                  1.4614         estimate D2E/DX2                !
 ! R6    R(2,4)                  1.3414         estimate D2E/DX2                !
 ! R7    R(2,10)                 1.0883         estimate D2E/DX2                !
 ! R8    R(3,5)                  1.3414         estimate D2E/DX2                !
 ! R9    R(3,11)                 1.0883         estimate D2E/DX2                !
 ! R10   R(4,6)                  1.5033         estimate D2E/DX2                !
 ! R11   R(4,12)                 1.0884         estimate D2E/DX2                !
 ! R12   R(5,7)                  1.5033         estimate D2E/DX2                !
 ! R13   R(5,13)                 1.0884         estimate D2E/DX2                !
 ! R14   R(6,14)                 1.0978         estimate D2E/DX2                !
 ! R15   R(6,15)                 1.1009         estimate D2E/DX2                !
 ! R16   R(7,16)                 1.0978         estimate D2E/DX2                !
 ! R17   R(7,17)                 1.1009         estimate D2E/DX2                !
 ! A1    A(6,1,7)              115.7908         estimate D2E/DX2                !
 ! A2    A(6,1,8)              108.0805         estimate D2E/DX2                !
 ! A3    A(6,1,9)              108.9879         estimate D2E/DX2                !
 ! A4    A(7,1,8)              108.0805         estimate D2E/DX2                !
 ! A5    A(7,1,9)              108.9879         estimate D2E/DX2                !
 ! A6    A(8,1,9)              106.5212         estimate D2E/DX2                !
 ! A7    A(3,2,4)              130.1687         estimate D2E/DX2                !
 ! A8    A(3,2,10)             113.6419         estimate D2E/DX2                !
 ! A9    A(4,2,10)             116.166          estimate D2E/DX2                !
 ! A10   A(2,3,5)              130.1687         estimate D2E/DX2                !
 ! A11   A(2,3,11)             113.6419         estimate D2E/DX2                !
 ! A12   A(5,3,11)             116.166          estimate D2E/DX2                !
 ! A13   A(2,4,6)              128.4396         estimate D2E/DX2                !
 ! A14   A(2,4,12)             116.7678         estimate D2E/DX2                !
 ! A15   A(6,4,12)             114.7926         estimate D2E/DX2                !
 ! A16   A(3,5,7)              128.4396         estimate D2E/DX2                !
 ! A17   A(3,5,13)             116.7678         estimate D2E/DX2                !
 ! A18   A(7,5,13)             114.7926         estimate D2E/DX2                !
 ! A19   A(1,6,4)              116.2913         estimate D2E/DX2                !
 ! A20   A(1,6,14)             108.2867         estimate D2E/DX2                !
 ! A21   A(1,6,15)             109.5822         estimate D2E/DX2                !
 ! A22   A(4,6,14)             107.9926         estimate D2E/DX2                !
 ! A23   A(4,6,15)             109.2677         estimate D2E/DX2                !
 ! A24   A(14,6,15)            104.7868         estimate D2E/DX2                !
 ! A25   A(1,7,5)              116.2913         estimate D2E/DX2                !
 ! A26   A(1,7,16)             108.2867         estimate D2E/DX2                !
 ! A27   A(1,7,17)             109.5822         estimate D2E/DX2                !
 ! A28   A(5,7,16)             107.9926         estimate D2E/DX2                !
 ! A29   A(5,7,17)             109.2677         estimate D2E/DX2                !
 ! A30   A(16,7,17)            104.7868         estimate D2E/DX2                !
 ! D1    D(7,1,6,4)            -68.0324         estimate D2E/DX2                !
 ! D2    D(7,1,6,14)           170.2238         estimate D2E/DX2                !
 ! D3    D(7,1,6,15)            56.467          estimate D2E/DX2                !
 ! D4    D(8,1,6,4)            170.6117         estimate D2E/DX2                !
 ! D5    D(8,1,6,14)            48.8679         estimate D2E/DX2                !
 ! D6    D(8,1,6,15)           -64.8889         estimate D2E/DX2                !
 ! D7    D(9,1,6,4)             55.2271         estimate D2E/DX2                !
 ! D8    D(9,1,6,14)           -66.5167         estimate D2E/DX2                !
 ! D9    D(9,1,6,15)           179.7265         estimate D2E/DX2                !
 ! D10   D(6,1,7,5)             68.0324         estimate D2E/DX2                !
 ! D11   D(6,1,7,16)          -170.2238         estimate D2E/DX2                !
 ! D12   D(6,1,7,17)           -56.467          estimate D2E/DX2                !
 ! D13   D(8,1,7,5)           -170.6117         estimate D2E/DX2                !
 ! D14   D(8,1,7,16)           -48.8679         estimate D2E/DX2                !
 ! D15   D(8,1,7,17)            64.8889         estimate D2E/DX2                !
 ! D16   D(9,1,7,5)            -55.2271         estimate D2E/DX2                !
 ! D17   D(9,1,7,16)            66.5167         estimate D2E/DX2                !
 ! D18   D(9,1,7,17)          -179.7265         estimate D2E/DX2                !
 ! D19   D(4,2,3,5)              0.0            estimate D2E/DX2                !
 ! D20   D(4,2,3,11)           178.1497         estimate D2E/DX2                !
 ! D21   D(10,2,3,5)          -178.1497         estimate D2E/DX2                !
 ! D22   D(10,2,3,11)            0.0            estimate D2E/DX2                !
 ! D23   D(3,2,4,6)              2.4782         estimate D2E/DX2                !
 ! D24   D(3,2,4,12)          -177.6036         estimate D2E/DX2                !
 ! D25   D(10,2,4,6)          -179.4104         estimate D2E/DX2                !
 ! D26   D(10,2,4,12)            0.5079         estimate D2E/DX2                !
 ! D27   D(2,3,5,7)             -2.4782         estimate D2E/DX2                !
 ! D28   D(2,3,5,13)           177.6036         estimate D2E/DX2                !
 ! D29   D(11,3,5,7)           179.4104         estimate D2E/DX2                !
 ! D30   D(11,3,5,13)           -0.5079         estimate D2E/DX2                !
 ! D31   D(2,4,6,1)             28.2493         estimate D2E/DX2                !
 ! D32   D(2,4,6,14)           150.1484         estimate D2E/DX2                !
 ! D33   D(2,4,6,15)           -96.411          estimate D2E/DX2                !
 ! D34   D(12,4,6,1)          -151.6703         estimate D2E/DX2                !
 ! D35   D(12,4,6,14)          -29.7712         estimate D2E/DX2                !
 ! D36   D(12,4,6,15)           83.6694         estimate D2E/DX2                !
 ! D37   D(3,5,7,1)            -28.2493         estimate D2E/DX2                !
 ! D38   D(3,5,7,16)          -150.1484         estimate D2E/DX2                !
 ! D39   D(3,5,7,17)            96.411          estimate D2E/DX2                !
 ! D40   D(13,5,7,1)           151.6703         estimate D2E/DX2                !
 ! D41   D(13,5,7,16)           29.7712         estimate D2E/DX2                !
 ! D42   D(13,5,7,17)          -83.6694         estimate D2E/DX2                !
 --------------------------------------------------------------------------------
 Trust Radius=3.00D-01 FncErr=1.00D-07 GrdErr=1.00D-06 EigMax=2.50D+02 EigMin=1.00D-04
 Number of steps in this run=     99 maximum allowed number of steps=    102.
 GradGradGradGradGradGradGradGradGradGradGradGradGradGradGradGradGradGrad

                          Input orientation:                          
 ---------------------------------------------------------------------
 Center     Atomic      Atomic             Coordinates (Angstroms)
 Number     Number       Type             X           Y           Z
 ---------------------------------------------------------------------
      1          6           0        0.000000    1.518133    0.425507
      2          6           0        0.730708   -1.464226    0.074140
      3          6           0       -0.730708   -1.464226    0.074140
      4          6           0        1.595946   -0.448907   -0.066437
      5          6           0       -1.595946   -0.448907   -0.066437
      6          6           0        1.299860    1.017148   -0.218022
      7          6           0       -1.299860    1.017148   -0.218022
      8          1           0        0.000000    2.613653    0.383970
      9          1           0        0.000000    1.246442    1.487529
     10          1           0        1.167124   -2.455634    0.178910
     11          1           0       -1.167124   -2.455634    0.178910
     12          1           0        2.654022   -0.703795   -0.072165
     13          1           0       -2.654022   -0.703795   -0.072165
     14          1           0        2.137579    1.578873    0.215404
     15          1           0        1.307891    1.280774   -1.286894
     16          1           0       -2.137579    1.578873    0.215404
     17          1           0       -1.307891    1.280774   -1.286894
 ---------------------------------------------------------------------
                    Distance matrix (angstroms):
                    1          2          3          4          5
     1  C    0.000000
     2  C    3.090608   0.000000
     3  C    3.090608   1.461416   0.000000
     4  C    2.580368   1.341369   2.542431   0.000000
     5  C    2.580368   2.542431   1.341369   3.191892   0.000000
     6  C    1.534520   2.562520   3.219593   1.503317   3.249306
     7  C    1.534520   3.219593   2.562520   3.249306   1.503317
     8  H    1.096307   4.154398   4.154398   3.482698   3.482698
     9  H    1.096224   3.143139   3.143139   2.799297   2.799297
    10  H    4.148953   1.088267   2.143743   2.066649   3.423697
    11  H    4.148953   2.143743   1.088267   3.423697   2.066649
    12  H    3.496924   2.073354   3.472183   1.088359   4.257608
    13  H    3.496924   3.472183   2.073354   4.257608   1.088359
    14  H    2.148738   3.355547   4.184194   2.117709   4.257997
    15  H    2.167772   3.117784   3.680126   2.136419   3.593547
    16  H    2.148738   4.184194   3.355547   4.257997   2.117709
    17  H    2.167772   3.680126   3.117784   3.593547   2.136419
                    6          7          8          9         10
     6  C    0.000000
     7  C    2.599720   0.000000
     8  H    2.144961   2.144961   0.000000
     9  H    2.156645   2.156645   1.757017   0.000000
    10  H    3.497912   4.278292   5.205948   4.096343   0.000000
    11  H    4.278292   3.497912   5.205948   4.096343   2.334248
    12  H    2.194692   4.314638   4.272862   3.644160   2.311459
    13  H    4.314638   2.194692   4.272862   3.644160   4.211073
    14  H    1.097801   3.509897   2.380846   2.509593   4.149742
    15  H    1.100932   2.830610   2.505780   3.067439   4.016110
    16  H    3.509897   1.097801   2.380846   2.509593   5.215327
    17  H    2.830610   1.100932   2.505780   3.067439   4.715403
                   11         12         13         14         15
    11  H    0.000000
    12  H    4.211073   0.000000
    13  H    2.311459   5.308044   0.000000
    14  H    5.215327   2.357962   5.315328   0.000000
    15  H    4.715403   2.688150   4.594653   1.741880   0.000000
    16  H    4.149742   5.315328   2.357962   4.275158   3.770547
    17  H    4.016110   4.594653   2.688150   3.770547   2.615782
                   16         17
    16  H    0.000000
    17  H    1.741880   0.000000
 Stoichiometry    C7H10
 Framework group  CS[SG(CH2),X(C6H8)]
 Deg. of freedom    24
 Full point group                 CS      NOp   2
 Largest Abelian subgroup         CS      NOp   2
 Largest concise Abelian subgroup CS      NOp   2
                         Standard orientation:                         
 ---------------------------------------------------------------------
 Center     Atomic      Atomic             Coordinates (Angstroms)
 Number     Number       Type             X           Y           Z
 ---------------------------------------------------------------------
      1          6           0        0.625977   -1.414542   -0.000000
      2          6           0       -0.131094    1.491446    0.730708
      3          6           0       -0.131094    1.491446   -0.730708
      4          6           0       -0.131094    0.466441    1.595946
      5          6           0       -0.131094    0.466441   -1.595946
      6          6           0       -0.080180   -1.006550    1.299860
      7          6           0       -0.080180   -1.006550   -1.299860
      8          1           0        0.735080   -2.505407   -0.000000
      9          1           0        1.640701   -0.999765   -0.000000
     10          1           0       -0.163283    2.487855    1.167124
     11          1           0       -0.163283    2.487855   -1.167124
     12          1           0       -0.171725    0.718135    2.654022
     13          1           0       -0.171725    0.718135   -2.654022
     14          1           0        0.426189   -1.503524    2.137579
     15          1           0       -1.102796   -1.414278    1.307891
     16          1           0        0.426189   -1.503524   -2.137579
     17          1           0       -1.102796   -1.414278   -1.307891
 ---------------------------------------------------------------------
 Rotational constants (GHZ):           3.4112766           3.2916667           1.7869968
 General basis read from cards:  (5D, 7F)
 There are   211 symmetry adapted cartesian basis functions of A'  symmetry.
 There are   184 symmetry adapted cartesian basis functions of A"  symmetry.
 There are   186 symmetry adapted basis functions of A'  symmetry.
 There are   164 symmetry adapted basis functions of A"  symmetry.
   350 basis functions,   537 primitive gaussians,   395 cartesian basis functions
    26 alpha electrons       26 beta electrons
       nuclear repulsion energy       287.0030235472 Hartrees.
 NAtoms=   17 NActive=   17 NUniq=   10 SFac= 2.89D+00 NAtFMM=   60 NAOKFM=F Big=F
 Integral buffers will be    131072 words long.
 Raffenetti 2 integral format.
 Two-electron integral symmetry is turned on.
 One-electron integrals computed using PRISM.
 NBasis=   350 RedAO= T EigKep=  5.03D-05  NBF=   186   164
 NBsUse=   350 1.00D-06 EigRej= -1.00D+00 NBFU=   186   164
 ExpMin= 7.42D-02 ExpMax= 7.32D+03 ExpMxC= 2.50D+02 IAcc=3 IRadAn=         5 AccDes= 0.00D+00
 Harris functional with IExCor=  402 and IRadAn=       5 diagonalized for initial guess.
 HarFok:  IExCor=  402 AccDes= 0.00D+00 IRadAn=         5 IDoV= 1 UseB2=F ITyADJ=14
 ICtDFT=  3500011 ScaDFX=  1.000000  1.000000  1.000000  1.000000
 FoFCou: FMM=F IPFlag=           0 FMFlag=      100000 FMFlg1=           0
         NFxFlg=           0 DoJE=T BraDBF=F KetDBF=T FulRan=T
         wScrn=  0.000000 ICntrl=       500 IOpCl=  0 I1Cent=   200000004 NGrid=           0
         NMat0=    1 NMatS0=      1 NMatT0=    0 NMatD0=    1 NMtDS0=    0 NMtDT0=    0
 Petite list used in FoFCou.
 Initial guess orbital symmetries:
       Occupied  (A') (A") (A') (A') (A") (A") (A') (A') (A") (A')
                 (A") (A') (A') (A') (A") (A') (A") (A') (A") (A')
                 (A") (A') (A") (A') (A') (A")
       Virtual   (A') (A") (A') (A') (A") (A') (A') (A") (A') (A")
                 (A') (A") (A') (A") (A') (A") (A') (A') (A") (A')
                 (A") (A') (A') (A") (A') (A") (A') (A") (A') (A')
                 (A") (A') (A") (A') (A') (A") (A') (A") (A') (A")
                 (A") (A') (A') (A") (A") (A') (A") (A') (A') (A")
                 (A") (A') (A") (A') (A') (A") (A") (A') (A") (A')
                 (A") (A') (A") (A') (A') (A') (A") (A") (A') (A')
                 (A') (A") (A') (A') (A") (A") (A") (A') (A') (A")
                 (A') (A") (A') (A") (A") (A') (A') (A") (A') (A")
                 (A') (A") (A') (A') (A") (A') (A') (A") (A") (A')
                 (A') (A') (A") (A') (A") (A') (A") (A') (A") (A")
                 (A') (A") (A') (A') (A") (A") (A') (A') (A") (A')
                 (A") (A") (A') (A') (A") (A') (A") (A') (A") (A')
                 (A') (A") (A") (A') (A") (A") (A') (A') (A") (A')
                 (A') (A") (A') (A") (A") (A") (A') (A') (A") (A')
                 (A') (A") (A') (A') (A") (A") (A') (A") (A') (A')
                 (A") (A") (A") (A') (A') (A') (A") (A") (A') (A')
                 (A") (A') (A') (A') (A") (A') (A") (A') (A') (A")
                 (A') (A") (A') (A") (A') (A") (A') (A") (A") (A')
                 (A") (A') (A") (A') (A") (A') (A') (A") (A') (A")
                 (A") (A') (A") (A') (A") (A') (A") (A') (A') (A")
                 (A') (A') (A") (A") (A') (A") (A') (A') (A") (A")
                 (A') (A') (A') (A") (A") (A') (A') (A") (A") (A')
                 (A") (A') (A") (A') (A") (A') (A") (A") (A') (A")
                 (A') (A') (A") (A") (A') (A") (A') (A") (A') (A")
                 (A') (A") (A') (A") (A') (A") (A') (A") (A") (A')
                 (A') (A') (A') (A") (A") (A') (A') (A") (A") (A")
                 (A') (A") (A') (A") (A') (A") (A') (A') (A') (A")
                 (A") (A') (A") (A") (A') (A') (A") (A') (A') (A')
                 (A") (A") (A') (A") (A") (A') (A") (A') (A") (A')
                 (A') (A") (A') (A") (A') (A") (A') (A') (A") (A")
                 (A') (A") (A") (A') (A') (A") (A') (A") (A') (A")
                 (A') (A") (A') (A")
 The electronic state of the initial guess is 1-A'.
 Requested convergence on RMS density matrix=1.00D-08 within 128 cycles.
 Requested convergence on MAX density matrix=1.00D-06.
 Requested convergence on             energy=1.00D-06.
 No special actions if energy rises.
 Integral accuracy reduced to 1.0D-05 until final iterations.
 Initial convergence to 1.0D-05 achieved.  Increase integral accuracy.
 SCF Done:  E(RB3LYP) =  -272.838206533     A.U. after   12 cycles
            NFock= 12  Conv=0.61D-08     -V/T= 2.0046

 **********************************************************************

            Population analysis using the SCF Density.

 **********************************************************************

 Orbital symmetries:
       Occupied  (A') (A") (A') (A") (A') (A') (A") (A') (A") (A')
                 (A") (A') (A') (A') (A") (A') (A") (A') (A") (A')
                 (A") (A') (A") (A') (A') (A")
       Virtual   (A') (A') (A") (A') (A') (A') (A") (A') (A") (A")
                 (A') (A") (A') (A") (A') (A') (A") (A") (A') (A')
                 (A') (A") (A') (A") (A') (A") (A') (A') (A") (A')
                 (A") (A') (A") (A") (A') (A") (A') (A") (A') (A')
                 (A') (A") (A') (A") (A") (A') (A") (A') (A") (A')
                 (A") (A') (A') (A') (A") (A") (A") (A') (A") (A')
                 (A") (A') (A") (A') (A') (A") (A') (A") (A') (A')
                 (A") (A') (A') (A') (A") (A") (A') (A") (A') (A")
                 (A') (A") (A") (A') (A') (A") (A') (A') (A") (A")
                 (A') (A") (A') (A") (A') (A') (A') (A") (A") (A')
                 (A') (A') (A") (A') (A") (A') (A') (A") (A") (A')
                 (A") (A") (A') (A') (A") (A") (A') (A') (A") (A')
                 (A") (A') (A") (A") (A') (A') (A') (A") (A") (A')
                 (A') (A") (A") (A') (A") (A") (A') (A') (A") (A')
                 (A') (A") (A') (A") (A") (A') (A") (A') (A") (A')
                 (A') (A") (A') (A') (A") (A") (A') (A") (A') (A')
                 (A") (A") (A") (A') (A') (A') (A") (A') (A") (A')
                 (A") (A') (A') (A") (A') (A") (A') (A') (A') (A")
                 (A') (A") (A') (A") (A') (A") (A") (A') (A") (A')
                 (A") (A') (A") (A') (A") (A') (A') (A") (A') (A")
                 (A") (A') (A") (A') (A") (A') (A') (A") (A') (A')
                 (A") (A") (A') (A") (A') (A") (A') (A") (A') (A")
                 (A') (A') (A') (A") (A') (A") (A') (A") (A") (A')
                 (A") (A') (A") (A") (A') (A') (A") (A") (A') (A")
                 (A') (A') (A") (A") (A') (A") (A') (A") (A') (A')
                 (A") (A") (A') (A') (A") (A") (A') (A") (A') (A")
                 (A') (A') (A') (A") (A") (A') (A') (A") (A") (A")
                 (A') (A") (A') (A") (A') (A') (A") (A') (A") (A')
                 (A") (A') (A") (A") (A') (A') (A") (A') (A') (A")
                 (A') (A") (A') (A") (A") (A') (A") (A') (A") (A')
                 (A') (A") (A') (A") (A') (A") (A') (A") (A') (A")
                 (A') (A") (A") (A') (A') (A") (A') (A") (A') (A")
                 (A') (A") (A') (A")
 The electronic state is 1-A'.
 Alpha  occ. eigenvalues --  -10.17444 -10.17444 -10.17141 -10.17141 -10.17128
 Alpha  occ. eigenvalues --  -10.16795 -10.16760  -0.82981  -0.76618  -0.76475
 Alpha  occ. eigenvalues --   -0.66427  -0.63959  -0.55470  -0.50238  -0.49569
 Alpha  occ. eigenvalues --   -0.46507  -0.43244  -0.42119  -0.41731  -0.38385
 Alpha  occ. eigenvalues --   -0.35383  -0.35184  -0.32976  -0.31927  -0.30490
 Alpha  occ. eigenvalues --   -0.22177
 Alpha virt. eigenvalues --   -0.03744   0.00963   0.03349   0.03593   0.04772
 Alpha virt. eigenvalues --    0.06538   0.06655   0.07589   0.08171   0.09319
 Alpha virt. eigenvalues --    0.10305   0.10456   0.12816   0.15696   0.17162
 Alpha virt. eigenvalues --    0.19027   0.19174   0.19976   0.20785   0.21553
 Alpha virt. eigenvalues --    0.22156   0.22711   0.24123   0.24951   0.27437
 Alpha virt. eigenvalues --    0.28160   0.29123   0.29269   0.30371   0.31370
 Alpha virt. eigenvalues --    0.33158   0.33162   0.33248   0.33768   0.33788
 Alpha virt. eigenvalues --    0.35423   0.36059   0.36144   0.36699   0.37079
 Alpha virt. eigenvalues --    0.38882   0.39595   0.40338   0.40480   0.42596
 Alpha virt. eigenvalues --    0.44682   0.46258   0.46390   0.51640   0.51645
 Alpha virt. eigenvalues --    0.55470   0.56509   0.58685   0.62179   0.63655
 Alpha virt. eigenvalues --    0.66191   0.68400   0.71130   0.76849   0.78039
 Alpha virt. eigenvalues --    0.79598   0.80434   0.81272   0.84479   0.85826
 Alpha virt. eigenvalues --    0.89487   0.90562   0.93634   0.96018   0.97757
 Alpha virt. eigenvalues --    0.98749   0.99032   1.01257   1.01466   1.01794
 Alpha virt. eigenvalues --    1.04565   1.05297   1.05318   1.06674   1.08803
 Alpha virt. eigenvalues --    1.10646   1.10760   1.14100   1.14562   1.16109
 Alpha virt. eigenvalues --    1.17551   1.18347   1.19811   1.20410   1.22569
 Alpha virt. eigenvalues --    1.24140   1.24936   1.26917   1.28053   1.28139
 Alpha virt. eigenvalues --    1.28320   1.30270   1.31290   1.33830   1.34779
 Alpha virt. eigenvalues --    1.38452   1.41071   1.43888   1.44081   1.45663
 Alpha virt. eigenvalues --    1.45727   1.49225   1.49930   1.51445   1.53965
 Alpha virt. eigenvalues --    1.54378   1.58302   1.61076   1.62865   1.64099
 Alpha virt. eigenvalues --    1.67248   1.67701   1.72068   1.74218   1.75532
 Alpha virt. eigenvalues --    1.76066   1.82972   1.83676   1.85096   1.85544
 Alpha virt. eigenvalues --    1.87421   1.89131   1.89175   1.90642   1.92252
 Alpha virt. eigenvalues --    1.93978   1.95395   2.00621   2.02383   2.02408
 Alpha virt. eigenvalues --    2.07112   2.08841   2.13573   2.14298   2.17126
 Alpha virt. eigenvalues --    2.25174   2.28220   2.32268   2.34293   2.39267
 Alpha virt. eigenvalues --    2.39851   2.40191   2.43180   2.46427   2.51795
 Alpha virt. eigenvalues --    2.61340   2.69310   2.74169   2.78167   2.82326
 Alpha virt. eigenvalues --    2.84975   2.90845   3.05847   3.07315   3.10891
 Alpha virt. eigenvalues --    3.11864   3.15449   3.17834   3.19807   3.22075
 Alpha virt. eigenvalues --    3.27153   3.27487   3.31700   3.31961   3.32456
 Alpha virt. eigenvalues --    3.34186   3.36093   3.41870   3.44600   3.44908
 Alpha virt. eigenvalues --    3.47534   3.47772   3.52219   3.54326   3.54985
 Alpha virt. eigenvalues --    3.60005   3.63342   3.64557   3.66978   3.71340
 Alpha virt. eigenvalues --    3.72199   3.73376   3.74418   3.78031   3.80410
 Alpha virt. eigenvalues --    3.80888   3.81747   3.83917   3.87442   3.88026
 Alpha virt. eigenvalues --    3.93158   3.94337   3.97237   3.97640   3.98878
 Alpha virt. eigenvalues --    4.01337   4.01812   4.03945   4.05964   4.06210
 Alpha virt. eigenvalues --    4.07952   4.09075   4.10497   4.14406   4.17457
 Alpha virt. eigenvalues --    4.17572   4.18966   4.19133   4.22034   4.22083
 Alpha virt. eigenvalues --    4.22528   4.22757   4.25838   4.27341   4.30340
 Alpha virt. eigenvalues --    4.31665   4.35578   4.36495   4.37043   4.38288
 Alpha virt. eigenvalues --    4.39469   4.40259   4.40331   4.41628   4.42938
 Alpha virt. eigenvalues --    4.43149   4.45916   4.47769   4.48879   4.49471
 Alpha virt. eigenvalues --    4.53754   4.53891   4.54442   4.55489   4.57756
 Alpha virt. eigenvalues --    4.58295   4.60054   4.60619   4.62270   4.63661
 Alpha virt. eigenvalues --    4.66381   4.67602   4.69575   4.70666   4.73821
 Alpha virt. eigenvalues --    4.75008   4.76734   4.77860   4.78838   4.79977
 Alpha virt. eigenvalues --    4.83737   4.86553   4.87452   4.90672   4.91296
 Alpha virt. eigenvalues --    4.93299   4.95595   4.97721   5.03029   5.04566
 Alpha virt. eigenvalues --    5.06033   5.06536   5.08092   5.09610   5.11951
 Alpha virt. eigenvalues --    5.13322   5.18449   5.24071   5.25309   5.26048
 Alpha virt. eigenvalues --    5.28950   5.30991   5.31012   5.33011   5.34249
 Alpha virt. eigenvalues --    5.34959   5.36169   5.39052   5.41295   5.42289
 Alpha virt. eigenvalues --    5.42995   5.46280   5.47920   5.52022   5.52993
 Alpha virt. eigenvalues --    5.53284   5.54268   5.57408   5.59200   5.63144
 Alpha virt. eigenvalues --    5.65874   5.68335   5.74017   5.75306   5.77570
 Alpha virt. eigenvalues --    5.81123   5.82122   5.82536   5.83486   5.91739
 Alpha virt. eigenvalues --    5.92545   5.95760   5.98269   5.98402   5.99997
 Alpha virt. eigenvalues --    6.03485   6.07140   6.09531   6.12088   6.13880
 Alpha virt. eigenvalues --    6.16891   6.22293   6.36154   6.37685   6.53272
 Alpha virt. eigenvalues --    6.53981   6.79272   7.17911   9.14064
          Condensed to atoms (all electrons):
               1          2          3          4          5          6
     1  C    4.779978  -0.003791  -0.003791  -0.041140  -0.041140   0.307418
     2  C   -0.003791   4.872786   0.361162   0.596250  -0.092700  -0.073302
     3  C   -0.003791   0.361162   4.872786  -0.092700   0.596250   0.001827
     4  C   -0.041140   0.596250  -0.092700   5.021866  -0.018757   0.310807
     5  C   -0.041140  -0.092700   0.596250  -0.018757   5.021866   0.000855
     6  C    0.307418  -0.073302   0.001827   0.310807   0.000855   4.702532
     7  C    0.307418   0.001827  -0.073302   0.000855   0.310807  -0.020376
     8  H    0.449180  -0.001696  -0.001696   0.013284   0.013284  -0.047300
     9  H    0.448914   0.001976   0.001976  -0.008612  -0.008612  -0.042592
    10  H   -0.001154   0.441743  -0.051155  -0.042053   0.011617   0.009867
    11  H   -0.001154  -0.051155   0.441743   0.011617  -0.042053  -0.000612
    12  H    0.008667  -0.039419   0.012478   0.439738  -0.001760  -0.045144
    13  H    0.008667   0.012478  -0.039419  -0.001760   0.439738  -0.001324
    14  H   -0.043406   0.012143  -0.002295  -0.050680   0.000076   0.444076
    15  H   -0.034033  -0.001769  -0.000481  -0.056412   0.003462   0.443066
    16  H   -0.043406  -0.002295   0.012143   0.000076  -0.050680   0.012912
    17  H   -0.034033  -0.000481  -0.001769   0.003462  -0.056412  -0.018440
               7          8          9         10         11         12
     1  C    0.307418   0.449180   0.448914  -0.001154  -0.001154   0.008667
     2  C    0.001827  -0.001696   0.001976   0.441743  -0.051155  -0.039419
     3  C   -0.073302  -0.001696   0.001976  -0.051155   0.441743   0.012478
     4  C    0.000855   0.013284  -0.008612  -0.042053   0.011617   0.439738
     5  C    0.310807   0.013284  -0.008612   0.011617  -0.042053  -0.001760
     6  C   -0.020376  -0.047300  -0.042592   0.009867  -0.000612  -0.045144
     7  C    4.702532  -0.047300  -0.042592  -0.000612   0.009867  -0.001324
     8  H   -0.047300   0.645354  -0.027377   0.000083   0.000083  -0.000519
     9  H   -0.042592  -0.027377   0.631024  -0.000193  -0.000193   0.000379
    10  H   -0.000612   0.000083  -0.000193   0.638181  -0.010092  -0.013326
    11  H    0.009867   0.000083  -0.000193  -0.010092   0.638181  -0.000295
    12  H   -0.001324  -0.000519   0.000379  -0.013326  -0.000295   0.622192
    13  H   -0.045144  -0.000519   0.000379  -0.000295  -0.013326   0.000030
    14  H    0.012912  -0.008019  -0.004724  -0.000327   0.000016  -0.008995
    15  H   -0.018440  -0.004732   0.009097  -0.000165  -0.000047  -0.000234
    16  H    0.444076  -0.008019  -0.004724   0.000016  -0.000327   0.000105
    17  H    0.443066  -0.004732   0.009097  -0.000047  -0.000165   0.000003
              13         14         15         16         17
     1  C    0.008667  -0.043406  -0.034033  -0.043406  -0.034033
     2  C    0.012478   0.012143  -0.001769  -0.002295  -0.000481
     3  C   -0.039419  -0.002295  -0.000481   0.012143  -0.001769
     4  C   -0.001760  -0.050680  -0.056412   0.000076   0.003462
     5  C    0.439738   0.000076   0.003462  -0.050680  -0.056412
     6  C   -0.001324   0.444076   0.443066   0.012912  -0.018440
     7  C   -0.045144   0.012912  -0.018440   0.444076   0.443066
     8  H   -0.000519  -0.008019  -0.004732  -0.008019  -0.004732
     9  H    0.000379  -0.004724   0.009097  -0.004724   0.009097
    10  H   -0.000295  -0.000327  -0.000165   0.000016  -0.000047
    11  H   -0.013326   0.000016  -0.000047  -0.000327  -0.000165
    12  H    0.000030  -0.008995  -0.000234   0.000105   0.000003
    13  H    0.622192   0.000105   0.000003  -0.008995  -0.000234
    14  H    0.000105   0.656495  -0.032620  -0.000846   0.000549
    15  H    0.000003  -0.032620   0.661247   0.000549   0.000627
    16  H   -0.008995  -0.000846   0.000549   0.656495  -0.032620
    17  H   -0.000234   0.000549   0.000627  -0.032620   0.661247
 Mulliken charges:
               1
     1  C   -0.063194
     2  C   -0.033757
     3  C   -0.033757
     4  C   -0.085843
     5  C   -0.085843
     6  C    0.015730
     7  C    0.015730
     8  H    0.030640
     9  H    0.036777
    10  H    0.017912
    11  H    0.017912
    12  H    0.027425
    13  H    0.027425
    14  H    0.025541
    15  H    0.030880
    16  H    0.025541
    17  H    0.030880
 Sum of Mulliken charges =  -0.00000
 Mulliken charges with hydrogens summed into heavy atoms:
               1
     1  C    0.004223
     2  C   -0.015845
     3  C   -0.015845
     4  C   -0.058418
     5  C   -0.058418
     6  C    0.072152
     7  C    0.072152
 Electronic spatial extent (au):  <R**2>=            733.8248
 Charge=             -0.0000 electrons
 Dipole moment (field-independent basis, Debye):
    X=             -0.0072    Y=             -0.8087    Z=             -0.0000  Tot=              0.8087
 Quadrupole moment (field-independent basis, Debye-Ang):
   XX=            -46.5768   YY=            -42.1127   ZZ=            -42.0373
   XY=             -0.0169   XZ=              0.0000   YZ=             -0.0000
 Traceless Quadrupole moment (field-independent basis, Debye-Ang):
   XX=             -3.0012   YY=              1.4629   ZZ=              1.5383
   XY=             -0.0169   XZ=              0.0000   YZ=             -0.0000
 Octapole moment (field-independent basis, Debye-Ang**2):
  XXX=              0.8920  YYY=              2.9574  ZZZ=             -0.0000  XYY=             -0.6703
  XXY=             -4.9515  XXZ=             -0.0000  XZZ=              0.2954  YZZ=             -0.6637
  YYZ=             -0.0000  XYZ=             -0.0000
 Hexadecapole moment (field-independent basis, Debye-Ang**3):
 XXXX=            -98.5951 YYYY=           -442.0494 ZZZZ=           -458.7099 XXXY=             29.0673
 XXXZ=              0.0000 YYYX=             23.3926 YYYZ=             -0.0000 ZZZX=             -0.0000
 ZZZY=              0.0000 XXYY=            -98.7985 XXZZ=           -103.4316 YYZZ=           -154.1151
 XXYZ=              0.0000 YYXZ=              0.0000 ZZXY=              5.8536
 N-N= 2.870030235472D+02 E-N=-1.206131755515D+03  KE= 2.715954796409D+02
 Symmetry A'   KE= 1.549101992563D+02
 Symmetry A"   KE= 1.166852803846D+02
 Calling FoFJK, ICntrl=      2127 FMM=F ISym2X=1 I1Cent= 0 IOpClX= 0 NMat=1 NMatS=1 NMatT=0.
 ***** Axes restored to original set *****
 -------------------------------------------------------------------
 Center     Atomic                   Forces (Hartrees/Bohr)
 Number     Number              X              Y              Z
 -------------------------------------------------------------------
      1        6          -0.000000000    0.000609875    0.000440958
      2        6           0.001545976   -0.000454708   -0.000000365
      3        6          -0.001545976   -0.000454708   -0.000000365
      4        6           0.000618698   -0.000099297   -0.000148581
      5        6          -0.000618698   -0.000099297   -0.000148581
      6        6           0.000336239    0.001105476   -0.000327621
      7        6          -0.000336239    0.001105476   -0.000327621
      8        1          -0.000000000   -0.002509045    0.000099288
      9        1           0.000000000    0.000659182   -0.002330673
     10        1          -0.000698795    0.002279619   -0.000253922
     11        1           0.000698795    0.002279619   -0.000253922
     12        1          -0.002318225    0.000170123    0.000075992
     13        1           0.002318225    0.000170123    0.000075992
     14        1          -0.001917399   -0.001513605   -0.000861175
     15        1          -0.000152272   -0.000867615    0.002410885
     16        1           0.001917399   -0.001513605   -0.000861175
     17        1           0.000152272   -0.000867615    0.002410885
 -------------------------------------------------------------------
 Cartesian Forces:  Max     0.002509045 RMS     0.001176214

 GradGradGradGradGradGradGradGradGradGradGradGradGradGradGradGradGradGrad
 Berny optimization.
 FormGI is forming the generalized inverse of G from B-inverse, IUseBI=4.
 Internal  Forces:  Max     0.002577390 RMS     0.001008392
 Search for a local minimum.
 Step number   1 out of a maximum of   99
 All quantities printed in internal units (Hartrees-Bohrs-Radians)
 Mixed Optimization -- RFO/linear search
 Second derivative matrix not updated -- first step.
 ITU=  0
     Eigenvalues ---    0.00640   0.00678   0.01373   0.01434   0.01628
     Eigenvalues ---    0.01997   0.02060   0.02373   0.03313   0.03435
     Eigenvalues ---    0.04331   0.04870   0.05411   0.05851   0.08537
     Eigenvalues ---    0.08831   0.10016   0.10020   0.11528   0.12811
     Eigenvalues ---    0.15993   0.15996   0.16000   0.16000   0.17510
     Eigenvalues ---    0.18787   0.21995   0.22001   0.28253   0.28398
     Eigenvalues ---    0.31062   0.31991   0.33579   0.33579   0.33927
     Eigenvalues ---    0.33927   0.34094   0.34103   0.35003   0.35003
     Eigenvalues ---    0.35014   0.35014   0.36065   0.55160   0.55588
 RFO step:  Lambda=-2.62368340D-04 EMin= 6.40147646D-03
 Linear search not attempted -- first point.
 Iteration  1 RMS(Cart)=  0.00468165 RMS(Int)=  0.00000388
 Iteration  2 RMS(Cart)=  0.00000412 RMS(Int)=  0.00000038
 Iteration  3 RMS(Cart)=  0.00000000 RMS(Int)=  0.00000038
 ClnCor:  largest displacement from symmetrization is 1.70D-11 for atom    11.
 Variable       Old X    -DE/DX   Delta X   Delta X   Delta X     New X
                                 (Linear)    (Quad)   (Total)
    R1        2.89982  -0.00215   0.00000  -0.00716  -0.00716   2.89266
    R2        2.89982  -0.00215   0.00000  -0.00716  -0.00716   2.89266
    R3        2.07172  -0.00251   0.00000  -0.00736  -0.00736   2.06436
    R4        2.07156  -0.00242   0.00000  -0.00709  -0.00709   2.06447
    R5        2.76168  -0.00073   0.00000  -0.00221  -0.00221   2.75947
    R6        2.53482  -0.00243   0.00000  -0.00435  -0.00435   2.53047
    R7        2.05653  -0.00238   0.00000  -0.00680  -0.00680   2.04973
    R8        2.53482  -0.00243   0.00000  -0.00435  -0.00435   2.53047
    R9        2.05653  -0.00238   0.00000  -0.00680  -0.00680   2.04973
   R10        2.84086  -0.00191   0.00000  -0.00590  -0.00590   2.83496
   R11        2.05670  -0.00229   0.00000  -0.00655  -0.00655   2.05015
   R12        2.84086  -0.00191   0.00000  -0.00590  -0.00590   2.83496
   R13        2.05670  -0.00229   0.00000  -0.00655  -0.00655   2.05015
   R14        2.07454  -0.00258   0.00000  -0.00759  -0.00759   2.06695
   R15        2.08046  -0.00255   0.00000  -0.00759  -0.00759   2.07287
   R16        2.07454  -0.00258   0.00000  -0.00759  -0.00759   2.06695
   R17        2.08046  -0.00255   0.00000  -0.00759  -0.00759   2.07287
    A1        2.02093  -0.00013   0.00000  -0.00022  -0.00022   2.02071
    A2        1.88636   0.00005   0.00000  -0.00022  -0.00022   1.88614
    A3        1.90220   0.00003   0.00000   0.00047   0.00047   1.90267
    A4        1.88636   0.00005   0.00000  -0.00022  -0.00022   1.88614
    A5        1.90220   0.00003   0.00000   0.00047   0.00047   1.90267
    A6        1.85915  -0.00004   0.00000  -0.00030  -0.00030   1.85884
    A7        2.27187  -0.00004   0.00000  -0.00057  -0.00057   2.27130
    A8        1.98343   0.00030   0.00000   0.00208   0.00208   1.98551
    A9        2.02748  -0.00027   0.00000  -0.00151  -0.00151   2.02597
   A10        2.27187  -0.00004   0.00000  -0.00057  -0.00057   2.27130
   A11        1.98343   0.00030   0.00000   0.00208   0.00208   1.98551
   A12        2.02748  -0.00027   0.00000  -0.00151  -0.00151   2.02597
   A13        2.24169  -0.00007   0.00000  -0.00028  -0.00028   2.24141
   A14        2.03798  -0.00036   0.00000  -0.00231  -0.00231   2.03567
   A15        2.00351   0.00043   0.00000   0.00259   0.00259   2.00610
   A16        2.24169  -0.00007   0.00000  -0.00028  -0.00028   2.24141
   A17        2.03798  -0.00036   0.00000  -0.00231  -0.00231   2.03567
   A18        2.00351   0.00043   0.00000   0.00259   0.00259   2.00610
   A19        2.02967   0.00019   0.00000   0.00114   0.00114   2.03080
   A20        1.88996   0.00000   0.00000   0.00061   0.00061   1.89057
   A21        1.91257   0.00000   0.00000  -0.00024  -0.00024   1.91233
   A22        1.88483  -0.00015   0.00000  -0.00150  -0.00150   1.88333
   A23        1.90708  -0.00020   0.00000  -0.00209  -0.00209   1.90499
   A24        1.82888   0.00015   0.00000   0.00225   0.00225   1.83112
   A25        2.02967   0.00019   0.00000   0.00114   0.00114   2.03080
   A26        1.88996   0.00000   0.00000   0.00061   0.00061   1.89057
   A27        1.91257   0.00000   0.00000  -0.00024  -0.00024   1.91233
   A28        1.88483  -0.00015   0.00000  -0.00150  -0.00150   1.88333
   A29        1.90708  -0.00020   0.00000  -0.00209  -0.00209   1.90499
   A30        1.82888   0.00015   0.00000   0.00225   0.00225   1.83112
    D1       -1.18739   0.00005   0.00000   0.00016   0.00016  -1.18723
    D2        2.97097   0.00011   0.00000   0.00086   0.00086   2.97183
    D3        0.98553  -0.00007   0.00000  -0.00200  -0.00200   0.98354
    D4        2.97774   0.00003   0.00000   0.00076   0.00076   2.97850
    D5        0.85291   0.00010   0.00000   0.00147   0.00147   0.85437
    D6       -1.13252  -0.00009   0.00000  -0.00139  -0.00139  -1.13391
    D7        0.96389   0.00003   0.00000   0.00099   0.00099   0.96489
    D8       -1.16094   0.00009   0.00000   0.00170   0.00170  -1.15924
    D9        3.13682  -0.00009   0.00000  -0.00116  -0.00116   3.13566
   D10        1.18739  -0.00005   0.00000  -0.00016  -0.00016   1.18723
   D11       -2.97097  -0.00011   0.00000  -0.00086  -0.00086  -2.97183
   D12       -0.98553   0.00007   0.00000   0.00200   0.00200  -0.98354
   D13       -2.97774  -0.00003   0.00000  -0.00076  -0.00076  -2.97850
   D14       -0.85291  -0.00010   0.00000  -0.00147  -0.00147  -0.85437
   D15        1.13252   0.00009   0.00000   0.00139   0.00139   1.13391
   D16       -0.96389  -0.00003   0.00000  -0.00099  -0.00099  -0.96489
   D17        1.16094  -0.00009   0.00000  -0.00170  -0.00170   1.15924
   D18       -3.13682   0.00009   0.00000   0.00116   0.00116  -3.13566
   D19       -0.00000   0.00000   0.00000   0.00000   0.00000   0.00000
   D20        3.10930  -0.00004   0.00000  -0.00026  -0.00026   3.10904
   D21       -3.10930   0.00004   0.00000   0.00026   0.00026  -3.10904
   D22        0.00000   0.00000   0.00000   0.00000  -0.00000  -0.00000
   D23        0.04325   0.00004   0.00000   0.00002   0.00002   0.04327
   D24       -3.09977   0.00005   0.00000  -0.00019  -0.00019  -3.09996
   D25       -3.13130   0.00001   0.00000  -0.00019  -0.00019  -3.13149
   D26        0.00886   0.00001   0.00000  -0.00040  -0.00040   0.00846
   D27       -0.04325  -0.00004   0.00000  -0.00002  -0.00002  -0.04327
   D28        3.09977  -0.00005   0.00000   0.00019   0.00019   3.09996
   D29        3.13130  -0.00001   0.00000   0.00019   0.00019   3.13149
   D30       -0.00886  -0.00001   0.00000   0.00040   0.00040  -0.00846
   D31        0.49304   0.00003   0.00000   0.00013   0.00013   0.49317
   D32        2.62058   0.00004   0.00000   0.00053   0.00053   2.62112
   D33       -1.68269   0.00004   0.00000   0.00133   0.00134  -1.68135
   D34       -2.64715   0.00002   0.00000   0.00034   0.00034  -2.64680
   D35       -0.51961   0.00004   0.00000   0.00075   0.00075  -0.51886
   D36        1.46031   0.00004   0.00000   0.00155   0.00155   1.46186
   D37       -0.49304  -0.00003   0.00000  -0.00013  -0.00013  -0.49317
   D38       -2.62058  -0.00004   0.00000  -0.00053  -0.00053  -2.62112
   D39        1.68269  -0.00004   0.00000  -0.00133  -0.00134   1.68135
   D40        2.64715  -0.00002   0.00000  -0.00034  -0.00034   2.64680
   D41        0.51961  -0.00004   0.00000  -0.00075  -0.00075   0.51886
   D42       -1.46031  -0.00004   0.00000  -0.00155  -0.00155  -1.46186
         Item               Value     Threshold  Converged?
 Maximum Force            0.002577     0.000450     NO 
 RMS     Force            0.001008     0.000300     NO 
 Maximum Displacement     0.013870     0.001800     NO 
 RMS     Displacement     0.004682     0.001200     NO 
 Predicted change in Energy=-1.312931D-04
 GradGradGradGradGradGradGradGradGradGradGradGradGradGradGradGradGradGrad

                          Input orientation:                          
 ---------------------------------------------------------------------
 Center     Atomic      Atomic             Coordinates (Angstroms)
 Number     Number       Type             X           Y           Z
 ---------------------------------------------------------------------
      1          6           0        0.000000    1.515991    0.424821
      2          6           0        0.730124   -1.461001    0.073668
      3          6           0       -0.730124   -1.461001    0.073668
      4          6           0        1.593288   -0.446885   -0.066377
      5          6           0       -1.593288   -0.446885   -0.066377
      6          6           0        1.296559    1.015934   -0.217060
      7          6           0       -1.296559    1.015934   -0.217060
      8          1           0        0.000000    2.607579    0.382388
      9          1           0        0.000000    1.246563    1.483547
     10          1           0        1.167164   -2.448294    0.177389
     11          1           0       -1.167164   -2.448294    0.177389
     12          1           0        2.647561   -0.702761   -0.071788
     13          1           0       -2.647561   -0.702761   -0.071788
     14          1           0        2.131795    1.574737    0.214776
     15          1           0        1.303338    1.276550   -1.282546
     16          1           0       -2.131795    1.574737    0.214776
     17          1           0       -1.303338    1.276550   -1.282546
 ---------------------------------------------------------------------
                    Distance matrix (angstroms):
                    1          2          3          4          5
     1  C    0.000000
     2  C    3.085267   0.000000
     3  C    3.085267   1.460248   0.000000
     4  C    2.575407   1.339065   2.538954   0.000000
     5  C    2.575407   2.538954   1.339065   3.186575   0.000000
     6  C    1.530730   2.557455   3.213592   1.500198   3.242492
     7  C    1.530730   3.213592   2.557455   3.242492   1.500198
     8  H    1.092412   4.145085   4.145085   3.474148   3.474148
     9  H    1.092471   3.138749   3.138749   2.794387   2.794387
    10  H    4.139934   1.084671   2.141310   2.060738   3.418356
    11  H    4.139934   2.141310   1.084671   3.418356   2.060738
    12  H    3.489851   2.067039   3.464800   1.084894   4.248564
    13  H    3.489851   3.464800   2.067039   4.248564   1.084894
    14  H    2.142923   3.346685   4.174470   2.110922   4.247616
    15  H    2.161278   3.108388   3.669941   2.129170   3.583257
    16  H    2.142923   4.174470   3.346685   4.247616   2.110922
    17  H    2.161278   3.669941   3.108388   3.583257   2.129170
                    6          7          8          9         10
     6  C    0.000000
     7  C    2.593118   0.000000
     8  H    2.138629   2.138629   0.000000
     9  H    2.150888   2.150888   1.750690   0.000000
    10  H    3.489013   4.269239   5.192894   4.089046   0.000000
    11  H    4.269239   3.489013   5.192894   4.089046   2.334329
    12  H    2.190941   4.304776   4.263122   3.637102   2.302292
    13  H    4.304776   2.190941   4.263122   3.637102   4.202512
    14  H    1.093784   3.500336   2.374743   2.502404   4.137232
    15  H    1.096916   2.821815   2.498466   3.057917   4.003051
    16  H    3.500336   1.093784   2.374743   2.502404   5.202818
    17  H    2.821815   1.096916   2.498466   3.057917   4.702048
                   11         12         13         14         15
    11  H    0.000000
    12  H    4.202512   0.000000
    13  H    2.302292   5.295122   0.000000
    14  H    5.202818   2.352686   5.302014   0.000000
    15  H    4.702048   2.681519   4.581834   1.737017   0.000000
    16  H    4.137232   5.302014   2.352686   4.263589   3.759125
    17  H    4.003051   4.581834   2.681519   3.759125   2.606675
                   16         17
    16  H    0.000000
    17  H    1.737017   0.000000
 Stoichiometry    C7H10
 Framework group  CS[SG(CH2),X(C6H8)]
 Deg. of freedom    24
 Full point group                 CS      NOp   2
 Largest Abelian subgroup         CS      NOp   2
 Largest concise Abelian subgroup CS      NOp   2
                         Standard orientation:                         
 ---------------------------------------------------------------------
 Center     Atomic      Atomic             Coordinates (Angstroms)
 Number     Number       Type             X           Y           Z
 ---------------------------------------------------------------------
      1          6           0        0.624387   -1.412177   -0.000000
      2          6           0       -0.130710    1.488792    0.730124
      3          6           0       -0.130710    1.488792   -0.730124
      4          6           0       -0.130710    0.465051    1.593288
      5          6           0       -0.130710    0.465051   -1.593288
      6          6           0       -0.079867   -1.004629    1.296559
      7          6           0       -0.079867   -1.004629   -1.296559
      8          1           0        0.731679   -2.499307   -0.000000
      9          1           0        1.636303   -1.000450   -0.000000
     10          1           0       -0.163024    2.480992    1.167164
     11          1           0       -0.163024    2.480992   -1.167164
     12          1           0       -0.171073    0.717782    2.647561
     13          1           0       -0.171073    0.717782   -2.647561
     14          1           0        0.424353   -1.499104    2.131795
     15          1           0       -1.099684   -1.408550    1.303338
     16          1           0        0.424353   -1.499104   -2.131795
     17          1           0       -1.099684   -1.408550   -1.303338
 ---------------------------------------------------------------------
 Rotational constants (GHZ):           3.4255819           3.3051988           1.7941949
 Basis read from rwf:  (5D, 7F)
 There are   211 symmetry adapted cartesian basis functions of A'  symmetry.
 There are   184 symmetry adapted cartesian basis functions of A"  symmetry.
 There are   186 symmetry adapted basis functions of A'  symmetry.
 There are   164 symmetry adapted basis functions of A"  symmetry.
   350 basis functions,   537 primitive gaussians,   395 cartesian basis functions
    26 alpha electrons       26 beta electrons
       nuclear repulsion energy       287.6348624741 Hartrees.
 NAtoms=   17 NActive=   17 NUniq=   10 SFac= 2.89D+00 NAtFMM=   60 NAOKFM=F Big=F
 Integral buffers will be    131072 words long.
 Raffenetti 2 integral format.
 Two-electron integral symmetry is turned on.
 One-electron integrals computed using PRISM.
 NBasis=   350 RedAO= T EigKep=  4.97D-05  NBF=   186   164
 NBsUse=   350 1.00D-06 EigRej= -1.00D+00 NBFU=   186   164
 Initial guess from the checkpoint file:  "/wrk/irikura/Gau-329654.chk"
 B after Tr=    -0.000000    0.000000   -0.000000
         Rot=    1.000000    0.000000    0.000000    0.000111 Ang=   0.01 deg.
 Initial guess orbital symmetries:
       Occupied  (A') (A") (A') (A") (A') (A') (A") (A') (A") (A')
                 (A") (A') (A') (A') (A") (A') (A") (A') (A") (A')
                 (A") (A') (A") (A') (A') (A")
       Virtual   (A') (A') (A") (A') (A') (A') (A") (A') (A") (A")
                 (A') (A") (A') (A") (A') (A') (A") (A") (A') (A')
                 (A') (A") (A') (A") (A') (A") (A') (A') (A") (A')
                 (A") (A') (A") (A") (A') (A") (A') (A") (A') (A')
                 (A') (A") (A') (A") (A") (A') (A") (A') (A") (A')
                 (A") (A') (A') (A') (A") (A") (A") (A') (A") (A')
                 (A") (A') (A") (A') (A') (A") (A') (A") (A') (A')
                 (A") (A') (A') (A') (A") (A") (A') (A") (A') (A")
                 (A') (A") (A") (A') (A') (A") (A') (A') (A") (A")
                 (A') (A") (A') (A") (A') (A') (A') (A") (A") (A')
                 (A') (A') (A") (A') (A") (A') (A') (A") (A") (A')
                 (A") (A") (A') (A') (A") (A") (A') (A') (A") (A')
                 (A") (A') (A") (A") (A') (A') (A') (A") (A") (A')
                 (A') (A") (A") (A') (A") (A") (A') (A') (A") (A')
                 (A') (A") (A') (A") (A") (A') (A") (A') (A") (A')
                 (A') (A") (A') (A') (A") (A") (A') (A") (A') (A')
                 (A") (A") (A") (A') (A') (A') (A") (A') (A") (A')
                 (A") (A') (A') (A") (A') (A") (A') (A') (A') (A")
                 (A') (A") (A') (A") (A') (A") (A") (A') (A") (A')
                 (A") (A') (A") (A') (A") (A') (A') (A") (A') (A")
                 (A") (A') (A") (A') (A") (A') (A') (A") (A') (A')
                 (A") (A") (A') (A") (A') (A") (A') (A") (A') (A")
                 (A') (A') (A') (A") (A') (A") (A') (A") (A") (A')
                 (A") (A') (A") (A") (A') (A') (A") (A") (A') (A")
                 (A') (A') (A") (A") (A') (A") (A') (A") (A') (A')
                 (A") (A") (A') (A') (A") (A") (A') (A") (A') (A")
                 (A') (A') (A') (A") (A") (A') (A') (A") (A") (A")
                 (A') (A") (A') (A") (A') (A') (A") (A') (A") (A')
                 (A") (A') (A") (A") (A') (A') (A") (A') (A') (A")
                 (A') (A") (A') (A") (A") (A') (A") (A') (A") (A')
                 (A') (A") (A') (A") (A') (A") (A') (A") (A') (A")
                 (A') (A") (A") (A') (A') (A") (A') (A") (A') (A")
                 (A') (A") (A') (A")
 Requested convergence on RMS density matrix=1.00D-08 within 128 cycles.
 Requested convergence on MAX density matrix=1.00D-06.
 Requested convergence on             energy=1.00D-06.
 No special actions if energy rises.
 SCF Done:  E(RB3LYP) =  -272.838335106     A.U. after    8 cycles
            NFock=  8  Conv=0.41D-08     -V/T= 2.0042
 Calling FoFJK, ICntrl=      2127 FMM=F ISym2X=1 I1Cent= 0 IOpClX= 0 NMat=1 NMatS=1 NMatT=0.
 ***** Axes restored to original set *****
 -------------------------------------------------------------------
 Center     Atomic                   Forces (Hartrees/Bohr)
 Number     Number              X              Y              Z
 -------------------------------------------------------------------
      1        6          -0.000000000    0.000030090   -0.000058058
      2        6          -0.000043317   -0.000384689    0.000041178
      3        6           0.000043317   -0.000384689    0.000041178
      4        6           0.000219230    0.000308281   -0.000069903
      5        6          -0.000219230    0.000308281   -0.000069903
      6        6           0.000091136    0.000198853    0.000021527
      7        6          -0.000091136    0.000198853    0.000021527
      8        1          -0.000000000   -0.000005480    0.000036978
      9        1          -0.000000000    0.000053026    0.000019446
     10        1           0.000012726   -0.000019983   -0.000001438
     11        1          -0.000012726   -0.000019983   -0.000001438
     12        1           0.000015646   -0.000080089    0.000016403
     13        1          -0.000015646   -0.000080089    0.000016403
     14        1          -0.000013519   -0.000026765   -0.000038706
     15        1           0.000002705   -0.000034426    0.000031756
     16        1           0.000013519   -0.000026765   -0.000038706
     17        1          -0.000002705   -0.000034426    0.000031756
 -------------------------------------------------------------------
 Cartesian Forces:  Max     0.000384689 RMS     0.000119538

 GradGradGradGradGradGradGradGradGradGradGradGradGradGradGradGradGradGrad
 Berny optimization.
 Using GEDIIS/GDIIS optimizer.
 FormGI is forming the generalized inverse of G from B-inverse, IUseBI=4.
 Internal  Forces:  Max     0.000439658 RMS     0.000080681
 Search for a local minimum.
 Step number   2 out of a maximum of   99
 All quantities printed in internal units (Hartrees-Bohrs-Radians)
 Mixed Optimization -- En-DIIS/RFO-DIIS
 Update second derivatives using D2CorX and points    1    2
 DE= -1.29D-04 DEPred=-1.31D-04 R= 9.79D-01
 TightC=F SS=  1.41D+00  RLast= 2.89D-02 DXNew= 5.0454D-01 8.6624D-02
 Trust test= 9.79D-01 RLast= 2.89D-02 DXMaxT set to 3.00D-01
 ITU=  1  0
 Use linear search instead of GDIIS.
     Eigenvalues ---    0.00640   0.00677   0.01372   0.01433   0.01626
     Eigenvalues ---    0.01996   0.02060   0.02372   0.03312   0.03434
     Eigenvalues ---    0.04332   0.04866   0.05410   0.05844   0.08539
     Eigenvalues ---    0.08831   0.10014   0.10029   0.11532   0.12813
     Eigenvalues ---    0.15881   0.15993   0.16000   0.16004   0.17506
     Eigenvalues ---    0.18787   0.22001   0.22002   0.28250   0.28509
     Eigenvalues ---    0.31060   0.32213   0.33076   0.33579   0.33778
     Eigenvalues ---    0.33927   0.34070   0.34102   0.34971   0.35003
     Eigenvalues ---    0.35011   0.35014   0.36462   0.55153   0.57464
 RFO step:  Lambda=-1.46417172D-06 EMin= 6.39910299D-03
 Quartic linear search produced a step of -0.02257.
 Iteration  1 RMS(Cart)=  0.00067243 RMS(Int)=  0.00000021
 Iteration  2 RMS(Cart)=  0.00000022 RMS(Int)=  0.00000006
 ClnCor:  largest displacement from symmetrization is 9.49D-09 for atom     3.
 Variable       Old X    -DE/DX   Delta X   Delta X   Delta X     New X
                                 (Linear)    (Quad)   (Total)
    R1        2.89266   0.00011   0.00016   0.00017   0.00033   2.89299
    R2        2.89266   0.00011   0.00016   0.00017   0.00033   2.89299
    R3        2.06436  -0.00001   0.00017  -0.00023  -0.00006   2.06430
    R4        2.06447   0.00001   0.00016  -0.00018  -0.00002   2.06445
    R5        2.75947   0.00017   0.00005   0.00038   0.00043   2.75990
    R6        2.53047   0.00044   0.00010   0.00063   0.00073   2.53119
    R7        2.04973   0.00002   0.00015  -0.00013   0.00003   2.04976
    R8        2.53047   0.00044   0.00010   0.00063   0.00073   2.53119
    R9        2.04973   0.00002   0.00015  -0.00013   0.00003   2.04976
   R10        2.83496   0.00018   0.00013   0.00037   0.00051   2.83547
   R11        2.05015   0.00003   0.00015  -0.00009   0.00006   2.05021
   R12        2.83496   0.00018   0.00013   0.00037   0.00051   2.83547
   R13        2.05015   0.00003   0.00015  -0.00009   0.00006   2.05021
   R14        2.06695  -0.00004   0.00017  -0.00033  -0.00016   2.06680
   R15        2.07287  -0.00004   0.00017  -0.00033  -0.00016   2.07271
   R16        2.06695  -0.00004   0.00017  -0.00033  -0.00016   2.06680
   R17        2.07287  -0.00004   0.00017  -0.00033  -0.00016   2.07271
    A1        2.02071   0.00003   0.00001   0.00033   0.00033   2.02104
    A2        1.88614  -0.00000   0.00000  -0.00000   0.00000   1.88614
    A3        1.90267  -0.00001  -0.00001   0.00007   0.00006   1.90272
    A4        1.88614  -0.00000   0.00000  -0.00000   0.00000   1.88614
    A5        1.90267  -0.00001  -0.00001   0.00007   0.00006   1.90272
    A6        1.85884  -0.00002   0.00001  -0.00054  -0.00053   1.85831
    A7        2.27130  -0.00008   0.00001  -0.00024  -0.00023   2.27107
    A8        1.98551   0.00004  -0.00005   0.00020   0.00015   1.98566
[...]

 Dipole polarizability, Alpha (dipole orientation).
 (esu units = cm**3 , SI units = C**2 m**2 J**-1)
 Alpha(0;0):
               (au)            (10**-24 esu)      (10**-40 SI)
   iso        0.823770D+02      0.122070D+02      0.135821D+02
   aniso      0.369792D+02      0.547975D+01      0.609704D+01
   xx         0.987237D+02      0.146293D+02      0.162773D+02
   yx         0.000000D+00      0.000000D+00      0.000000D+00
   yy         0.583682D+02      0.864927D+01      0.962361D+01
   zx         0.000000D+00      0.000000D+00      0.000000D+00
   zy        -0.215569D+01     -0.319440D+00     -0.355425D+00
   zz         0.900391D+02      0.133424D+02      0.148454D+02

 ----------------------------------------------------------------------
 1\1\GINC-GAMBA\Freq\RB3LYP\Gen\C7H10\IRIKURA\12-Sep-2023\0\\#N Geom=Al
 lCheck Guess=TCheck SCRF=Check GenChk RB3LYP/ChkBas Freq\\cycloheptadi
 ene, B3LYP/pcseg-2\\0,1\C,0.,1.5167067105,0.4246561394\C,0.7302387485,
 -1.4616462423,0.0733507787\C,-0.7302387485,-1.4616462423,0.0733507787\
 C,1.5934171261,-0.4469662674,-0.0662026264\C,-1.5934171261,-0.44696626
 74,-0.0662026264\C,1.2968448849,1.016178959,-0.2167021153\C,-1.2968448
 849,1.016178959,-0.2167021153\H,0.,2.6082332141,0.3815095397\H,0.,1.24
 85398123,1.483690221\H,1.1674348808,-2.4489239715,0.1767035084\H,-1.16
 74348808,-2.4489239715,0.1767035084\H,2.6476143463,-0.7032880609,-0.07
 14150648\H,-2.6476143463,-0.7032880609,-0.0714150648\H,2.1321716225,1.
 5748161311,0.2149635464\H,1.3038498114,1.2764365847,-1.2821869753\H,-2
 .1321716225,1.5748161311,0.2149635464\H,-1.3038498114,1.2764365847,-1.
 2821869753\\Version=ES64L-G16RevB.01\State=1-A'\HF=-272.838336\RMSD=1.
 499e-09\RMSF=1.710e-05\ZeroPoint=0.151132\Thermal=0.1575413\Dipole=0.,
 0.3168201,-0.0467415\DipoleDeriv=0.0522974,0.,0.,0.,0.0682312,0.010989
 5,0.,0.0045361,0.1054425,0.1312567,-0.1114838,0.0153436,-0.2415485,-0.
 0204156,-0.0094653,0.0475198,-0.0036842,-0.1553413,0.1312567,0.1114838
 ,-0.0153436,0.2415485,-0.0204156,-0.0094653,-0.0475198,-0.0036842,-0.1
 553413,-0.0622544,-0.0231981,0.0092789,0.0709122,0.234962,-0.0684797,-
 0.0488275,-0.0923132,-0.2110495,-0.0622544,0.0231981,-0.0092789,-0.070
 9123,0.234962,-0.0684797,0.0488275,-0.0923132,-0.2110495,0.0361733,0.0
 540546,-0.0041921,0.0311098,0.0152006,0.0205764,0.0835748,0.0709814,0.
 1732844,0.0361733,-0.0540546,0.0041921,-0.0311098,0.0152005,0.0205764,
 -0.0835748,0.0709814,0.1732844,0.0328042,0.,0.,0.,-0.2057861,-0.017848
 8,0.,0.0042299,0.0669681,-0.0058385,0.,0.,0.,0.0551125,0.0646737,0.,0.
 0002772,-0.1322098,-0.0068018,0.0540855,-0.0049145,0.0624665,-0.118657
 ,0.0238461,-0.0029704,0.0245066,0.1289236,-0.0068018,-0.0540855,0.0049
 145,-0.0624665,-0.118657,0.0238461,0.0029704,0.0245066,0.1289236,-0.12
 88766,0.0459611,0.0091534,0.0452605,-0.0091977,-0.0010826,-0.0128052,0
 .0127779,0.1252121,-0.1288766,-0.0459611,-0.0091534,-0.0452605,-0.0091
 977,-0.0010826,0.0128052,0.0127779,0.1252121,-0.0944682,-0.0620112,-0.
 0470979,-0.0813654,-0.0339948,-0.0261413,-0.0797353,-0.0764517,0.04318
 43,0.0853395,0.0515676,-0.0122827,-0.0468723,-0.0266763,0.0318392,0.03
 96049,0.0596617,-0.1243141,-0.0944682,0.0620112,0.0470979,0.0813654,-0
 .0339948,-0.0261413,0.0797353,-0.0764517,0.0431843,0.0853395,-0.051567
 6,0.0122827,0.0468723,-0.0266763,0.0318392,-0.0396049,0.0596617,-0.124
 3141\Polar=98.7237026,0.,89.9869297,0.,-2.5091306,58.4203153\Quadrupol
 e=1.1383982,1.0168265,-2.1552246,0.,0.,-0.4283822\PG=CS [SG(C1H2),X(C6
 H8)]\NImag=0\\0.44069041,0.,0.56452571,0.,-0.03724675,0.54676812,0.001
 71284,0.00056026,0.00052409,0.65116303,-0.00328566,0.00127624,0.000831
 99,0.09173594,0.73527647,-0.00105604,-0.00060098,0.00049494,-0.0184556
 9,-0.07275689,0.13858754,0.00171284,-0.00056026,-0.00052409,-0.2308480
 9,0.02085456,-0.00104292,0.65116303,0.00328566,0.00127624,0.00083199,-
 0.02085456,-0.10958254,0.00446078,-0.09173594,0.73527647,0.00105604,-0
 .00060098,0.00049494,0.00104292,0.00446078,-0.06289817,0.01845569,-0.0
 7275689,0.13858754,-0.00574936,0.03155915,-0.00397216,-0.26725157,-0.1
 9386365,0.02800396,-0.03498882,-0.02092218,0.00315045,0.70450789,0.010
 20210,-0.01218404,-0.00133746,-0.17205475,-0.33502911,0.03683575,-0.02
 040139,0.01145519,-0.00102849,0.11104416,0.66660265,0.00142459,-0.0140
 9059,0.00104793,0.02624571,0.03644015,-0.06067264,0.00314329,0.0003920
 2,0.00605468,-0.03145245,-0.06209277,0.15548095,-0.00574936,-0.0315591
 5,0.00397216,-0.03498882,0.02092218,-0.00315045,-0.26725157,0.19386365
 ,-0.02800396,0.00400521,0.00788141,-0.00142954,0.70450789,-0.01020210,
 -0.01218404,-0.00133746,0.02040139,0.01145519,-0.00102849,0.17205475,-
 0.33502911,0.03683575,-0.00788141,-0.00277733,0.00110721,-0.11104416,0
 .66660265,-0.00142459,-0.01409059,0.00104793,-0.00314329,0.00039202,0.
 00605468,-0.02624571,0.03644015,-0.06067264,0.00142954,0.00110721,0.00
 052697,0.03145245,-0.06209277,0.15548095,-0.14606534,0.02546979,0.0372
 2049,0.01285593,-0.01907748,0.00476511,0.00076386,-0.00008827,-0.00074
 153,-0.09771505,0.02021945,-0.00428407,0.00143027,0.00005688,0.0010364
 6,0.50754426,0.02072146,-0.09072075,-0.01606847,0.00014607,-0.02568173
 ,0.00488887,0.00349078,0.00044449,0.00010102,0.02772957,-0.20128474,0.
 01688651,-0.00093829,0.00175175,-0.00129727,0.03418639,0.49053200,0.03
 645752,-0.01667515,-0.09794036,0.00062708,0.00640265,0.00444856,-0.000
 23933,-0.00178899,-0.00615910,-0.00066900,0.00741454,-0.07226842,0.001
 18479,0.00193173,0.00061527,0.03039366,0.00220518,0.52303954,-0.146065
 34,-0.02546979,-0.03722049,0.00076386,0.00008827,0.00074153,0.01285593
 ,0.01907748,-0.00476511,0.00143027,-0.00005688,-0.00103646,-0.09771505
 ,-0.02021945,0.00428407,-0.03037077,-0.00947034,-0.00968878,0.50754426
 ,-0.02072146,-0.09072075,-0.01606847,-0.00349078,0.00044449,0.00010102
 ,-0.00014607,-0.02568173,0.00488887,0.00093829,0.00175175,-0.00129727,
 -0.02772957,-0.20128474,0.01688651,0.00947034,0.00646596,0.00722595,-0
 .03418639,0.49053200,-0.03645752,-0.01667515,-0.09794036,0.00023933,-0
 .00178899,-0.00615910,-0.00062708,0.00640265,0.00444856,-0.00118479,0.
 00193173,0.00061527,0.00066900,0.00741454,-0.07226842,0.00968878,0.007
 22595,0.00872006,-0.03039366,0.00220518,0.52303954,-0.04419125,0.,0.,-
 0.00046291,0.00051311,-0.00018537,-0.00046291,-0.00051311,0.00018537,-
 0.00423626,-0.00012055,0.00323672,-0.00423626,0.00012055,-0.00323672,-
 0.00328464,0.03032694,-0.00149646,-0.00328464,-0.03032694,0.00149646,0
 .05743890,0.,-0.30096201,0.01293264,-0.00048422,0.00034383,-0.00014916
 ,0.00048422,0.00034383,-0.00014916,0.00255840,0.00140819,-0.00112151,-
 0.00255840,0.00140819,-0.00112151,0.00056914,-0.01119742,0.00066917,-0
 .00056913,-0.01119742,0.00066917,0.,0.32727569,0.,0.01440372,-0.050286
 52,-0.00010154,0.00002218,0.00004039,0.00010154,0.00002218,0.00004039,
 0.00307708,0.00045640,-0.00074609,-0.00307708,0.00045640,-0.00074609,0
 .00137284,-0.01652130,-0.00016809,-0.00137284,-0.01652130,-0.00016809,
 0.,-0.01315850,0.05022705,-0.04645134,0.,0.,0.00033535,0.00042864,-0.0
 0041543,0.00033535,-0.00042864,0.00041543,0.00128268,-0.00190587,-0.00
 027463,0.00128268,0.00190587,0.00027463,-0.00265151,-0.00591873,0.0289
 7581,-0.00265151,0.00591873,-0.02897581,-0.00051656,0.,0.,0.05687344,0
 .,-0.06599060,0.06442509,0.00035322,0.00006033,0.00010751,-0.00035322,
 0.00006033,0.00010751,-0.00020178,0.00091996,-0.00108712,0.00020178,0.
 00091996,-0.00108712,0.00100595,0.00224863,-0.01202638,-0.00100595,0.0
 0224863,-0.01202638,0.,-0.00828959,0.03161843,0.,0.06746124,0.,0.06209
 941,-0.28452515,-0.00035218,-0.00068448,0.00010895,0.00035218,-0.00068
 448,0.00010895,-0.00033484,0.00139166,0.00061555,0.00033484,0.00139166
 ,0.00061555,0.00207934,0.00252839,-0.01411329,-0.00207934,0.00252839,-
 0.01411329,0.,0.00131363,-0.00093065,0.,-0.06814703,0.31091752,-0.0002
 2833,-0.00005988,0.00000491,-0.09970313,0.10124334,-0.01028375,-0.0142
 1478,0.03037622,-0.00305369,0.00858254,-0.02249984,0.00237988,-0.00499
 880,-0.00226639,0.00012891,-0.00163771,-0.00167217,0.00061211,0.000098
 58,-0.00041410,0.00003638,0.00016115,0.00004562,-0.00002059,0.00004808
 ,-0.00001447,-0.00006044,0.11108868,-0.00022549,0.00055765,0.00014066,
 0.10059300,-0.27756160,0.02519240,-0.00274843,0.00049361,0.00029870,0.
 01019415,-0.02507130,0.00311588,0.00019063,0.00145522,0.00000269,-0.00
 366821,0.00045949,0.00116829,-0.00016686,0.00010874,-0.00012261,0.0000
 3455,-0.00003573,-0.00004446,0.00007134,0.00005206,-0.00007066,-0.1039
 5542,0.29902219,-0.00043722,0.00090636,-0.00012999,-0.00965265,0.02530
 840,-0.04068090,0.00016644,-0.00005440,0.00287721,-0.00193641,0.004004
 43,0.00384740,-0.00011850,-0.00002039,0.00185024,0.00193445,0.00068722
 ,0.01182182,0.00022288,-0.00004765,0.00005246,-0.00021774,0.00007313,0
 .00007732,0.00002570,0.00012147,-0.00006253,0.01042811,-0.02892361,0.0
 2913639,-0.00022833,0.00005988,-0.00000491,-0.01421478,-0.03037622,0.0
 0305369,-0.09970313,-0.10124334,0.01028375,-0.00499880,0.00226639,-0.0
 0012891,0.00858254,0.02249984,-0.00237988,0.00009858,0.00041410,-0.000
 03638,-0.00163771,0.00167217,-0.00061211,0.00016115,-0.00004562,0.0000
 2059,0.00004808,0.00001447,0.00006044,0.00068003,0.00011291,-0.0000770
 4,0.11108868,0.00022549,0.00055765,0.00014066,0.00274843,0.00049361,0.
 00029870,-0.10059300,-0.27756160,0.02519240,-0.00019063,0.00145522,0.0
 0000269,-0.01019415,-0.02507130,0.00311588,0.00016686,0.00010874,-0.00
 012261,0.00366821,0.00045949,0.00116829,-0.00003455,-0.00003573,-0.000
 04446,-0.00007134,0.00005206,-0.00007066,-0.00011291,0.00132118,-0.000
 16470,0.10395542,0.29902219,0.00043722,0.00090636,-0.00012999,-0.00016
 644,-0.00005440,0.00287721,0.00965265,0.02530840,-0.04068090,0.0001185
 0,-0.00002039,0.00185024,0.00193641,0.00400443,0.00384740,-0.00022288,
 -0.00004765,0.00005246,-0.00193445,0.00068722,0.01182182,0.00021774,0.
 00007313,0.00007732,-0.00002570,0.00012147,-0.00006253,0.00007704,-0.0
 0016470,-0.00073522,-0.01042811,-0.02892361,0.02913639,0.00132976,0.00
 127538,-0.00061009,-0.02121267,0.00568410,-0.00022911,0.00108150,-0.00
 378335,0.00084217,-0.31034074,0.06203475,0.00164485,0.00018802,0.00012
 970,-0.00007647,-0.00376467,-0.00084789,0.00017748,0.00025800,-0.00018
 068,0.00000732,-0.00042583,0.00012131,0.00025038,-0.00000106,-0.000116
 08,-0.00000874,0.00120310,-0.00049441,-0.00018418,-0.00108721,-0.00005
 070,0.00005557,0.33184882,-0.00080283,-0.00476079,0.00232926,-0.027164
 88,0.00509437,0.00074215,-0.00162229,-0.00209246,0.00149256,0.06641523
 ,-0.06952249,0.00216180,-0.00022093,-0.00077308,0.00020341,0.02876279,
 -0.00715415,-0.00202120,-0.00009886,-0.00006100,-0.00020409,0.00139009
 ,-0.00066518,-0.00072687,-0.00018739,0.00019151,-0.00006725,-0.0009598
 6,0.00096880,-0.00090911,-0.00095671,-0.00019629,-0.00005554,-0.064857
 85,0.07784119,0.00203336,0.00061092,0.00002509,0.00438541,-0.00003889,
 0.00632165,-0.00060399,0.00197137,0.01068019,0.00033043,0.00321237,-0.
 03675870,-0.00001036,-0.00044089,-0.00026460,-0.00526378,-0.00062976,0
 .00487693,-0.00031616,0.00001769,0.00019095,-0.00006445,0.00010906,0.0
 0034875,-0.00011391,0.00005193,0.00010049,-0.00009929,-0.00106251,-0.0
 0796983,0.00022603,0.00001968,-0.00004184,-0.00202400,-0.00307870,0.02
 351242,0.00132976,-0.00127538,0.00061009,0.00108150,0.00378335,-0.0008
 4217,-0.02121267,-0.00568410,0.00022911,0.00018802,-0.00012970,0.00007
 647,-0.31034074,-0.06203475,-0.00164485,0.00025800,0.00018068,-0.00000
 732,-0.00376467,0.00084789,-0.00017748,-0.00042583,-0.00012131,-0.0002
 5038,-0.00000106,0.00011608,0.00000874,-0.00108721,0.00005070,-0.00005
 557,0.00120310,0.00049441,0.00018418,-0.00011900,-0.00008003,0.0000604
 6,0.33184882,0.00080283,-0.00476079,0.00232926,0.00162229,-0.00209246,
 0.00149256,0.02716488,0.00509437,0.00074215,0.00022093,-0.00077308,0.0
 0020341,-0.06641523,-0.06952249,0.00216180,0.00009886,-0.00006100,-0.0
 0020409,-0.02876279,-0.00715415,-0.00202120,-0.00139009,-0.00066518,-0
 .00072687,0.00018739,0.00019151,-0.00006725,0.00095671,-0.00019629,-0.
 00005554,0.00095986,0.00096880,-0.00090911,0.00008003,0.00022928,-0.00
 017091,0.06485785,0.07784119,-0.00203336,0.00061092,0.00002509,0.00060
 399,0.00197137,0.01068019,-0.00438541,-0.00003889,0.00632165,0.0000103
 6,-0.00044089,-0.00026460,-0.00033043,0.00321237,-0.03675870,0.0003161
 6,0.00001769,0.00019095,0.00526378,-0.00062976,0.00487693,0.00006445,0
 .00010906,0.00034875,0.00011391,0.00005193,0.00010049,-0.00022603,0.00
 001968,-0.00004184,0.00009929,-0.00106251,-0.00796983,-0.00006046,-0.0
 0017091,-0.00097854,0.00202400,-0.00307870,0.02351242,-0.02274044,-0.0
 1318660,-0.01222478,0.00118075,0.00112611,-0.00111381,-0.00036380,-0.0
 0011270,-0.00026163,0.00433247,0.00361394,0.00369114,0.00050137,0.0006
 0230,0.00015984,-0.19263198,-0.09706909,-0.07665437,-0.00358376,0.0033
 5179,0.00414276,0.00079977,0.00047044,-0.00055792,0.00074998,-0.000446
 07,0.00045879,-0.00003458,-0.00002802,-0.00020835,0.00005497,-0.000082
 59,0.00001296,0.00133979,0.00000478,0.00072644,-0.00002528,-0.00017967
 ,0.00013761,0.21260597,0.00934979,0.00455883,0.00479896,0.00375710,-0.
 00414856,0.00041398,0.00035890,0.00054176,-0.00068858,-0.02675377,-0.0
 2267511,-0.01325272,0.00013975,-0.00045092,0.00007296,-0.09662757,-0.1
 0952834,-0.05245772,0.00191432,0.00012156,-0.00103223,0.00012245,0.000
 83145,0.00049278,-0.00053423,0.00003905,0.00012800,-0.00055585,-0.0009
 5381,0.00171243,-0.00010831,0.00000099,-0.00002387,0.00028632,0.001176
 14,0.00036338,-0.00006425,0.00015733,-0.00003208,0.10273772,0.12635075
 ,0.01247208,0.00781988,0.00581327,-0.00024775,0.00009685,0.00018132,0.
 00024694,0.00014453,0.00022551,0.00396091,0.00504117,0.00164867,-0.000
 13447,-0.00040223,-0.00015837,-0.07693427,-0.05342954,-0.08699922,0.00
 193864,-0.00081288,-0.00122510,-0.00071153,0.00037957,0.00061584,-0.00
 044183,0.00048145,0.00035747,-0.00002734,0.00023324,-0.00015881,-0.000
 01949,0.00000819,0.00001329,0.00020256,-0.00055795,0.00056713,-0.00001
 047,0.00004980,-0.00015030,0.08377565,0.05731617,0.09292733,-0.0032830
 3,-0.00583830,0.02987295,0.00022659,-0.00005293,-0.00013600,-0.0002740
 7,-0.00016361,-0.00008479,0.00030393,-0.00007964,-0.00372609,0.0001462
 1,-0.00058872,-0.00064933,-0.04386289,0.00219012,-0.00448060,0.0026174
 0,0.00011782,0.00101345,0.00108319,-0.00024931,-0.00084303,-0.00471629
 ,0.00204825,0.00267084,-0.00000923,-0.00001311,0.00016850,-0.00000335,
 0.00002991,0.00004545,-0.00027457,0.00013980,0.00085927,0.00000204,-0.
 00005927,-0.00001214,-0.00090509,0.00545086,-0.02481837,0.04911183,0.0
 0038643,0.00248632,-0.01075043,0.00260915,-0.00168928,-0.00048525,0.00
 011875,0.00079901,0.00117564,-0.00108465,-0.01338659,0.03233560,-0.000
 37793,-0.00043824,0.00022375,0.00050532,-0.05652176,0.05910360,-0.0008
 6410,0.00001728,0.00020723,-0.00048850,0.00030282,-0.00011057,0.002177
 66,-0.00010207,-0.00085866,-0.00028645,-0.00062152,-0.00259134,-0.0000
 6714,0.00000032,-0.00002284,0.00063909,-0.00053586,-0.00077571,-0.0000
 1604,0.00010266,-0.00012696,-0.00015455,0.00382017,-0.01631695,-0.0030
 7496,0.06530397,0.00134005,0.00240137,-0.01528910,-0.00123372,-0.00061
 208,0.00067089,0.00006835,-0.00013520,-0.00028098,-0.00039277,0.004666
 05,-0.00089617,0.00027327,-0.00073908,0.00007734,-0.00077240,0.0529848
 0,-0.27498791,-0.00135029,0.00128122,0.00009590,-0.00011512,-0.0005041
 4,0.00032695,0.00256666,-0.00159711,0.00026250,0.00010594,0.00019363,0
 .00013343,0.00002165,0.00001519,-0.00003043,0.00002707,0.00081563,-0.0
 0044328,0.00002484,-0.00000299,-0.00001650,-0.00144532,0.00225125,-0.0
 1472399,0.00055570,-0.06102707,0.30341016,-0.02274044,0.01318661,0.012
 22478,-0.00036380,0.00011270,0.00026163,0.00118075,-0.00112611,0.00111
 381,0.00050137,-0.00060230,-0.00015984,0.00433247,-0.00361394,-0.00369
 114,-0.00358376,-0.00335179,-0.00414276,-0.19263198,0.09706909,0.07665
 437,0.00079977,-0.00047044,0.00055792,0.00074998,0.00044607,-0.0004587
 9,0.00005497,0.00008259,-0.00001296,-0.00003458,0.00002802,0.00020835,
 -0.00002528,0.00017967,-0.00013761,0.00133979,-0.00000478,-0.00072644,
 -0.00182073,0.00068557,0.00073978,0.00054058,-0.00003778,-0.00010077,0
 .21260597,-0.00934979,0.00455883,0.00479896,-0.00035890,0.00054176,-0.
 00068858,-0.00375710,-0.00414856,0.00041398,-0.00013975,-0.00045092,0.
 00007296,0.02675377,-0.02267511,-0.01325272,-0.00191432,0.00012156,-0.
 00103223,0.09662757,-0.10952834,-0.05245772,-0.00012245,0.00083145,0.0
 0049278,0.00053423,0.00003905,0.00012800,0.00010831,0.00000099,-0.0000
 2387,0.00055585,-0.00095381,0.00171243,0.00006425,0.00015733,-0.000032
 08,-0.00028632,0.00117614,0.00036338,-0.00068557,0.00018804,0.00006016
 ,0.00015880,-0.00002933,-0.00012290,-0.10273772,0.12635075,-0.01247208
 ,0.00781988,0.00581327,-0.00024694,0.00014453,0.00022551,0.00024775,0.
 00009685,0.00018132,0.00013447,-0.00040223,-0.00015837,-0.00396091,0.0
 0504117,0.00164867,-0.00193864,-0.00081288,-0.00122510,0.07693427,-0.0
 5342954,-0.08699922,0.00071153,0.00037957,0.00061584,0.00044183,0.0004
 8145,0.00035747,0.00001949,0.00000819,0.00001329,0.00002734,0.00023324
 ,-0.00015881,0.00001047,0.00004980,-0.00015030,-0.00020256,-0.00055795
 ,0.00056713,-0.00073978,0.00006016,0.00064478,-0.00000897,-0.00011145,
 0.00042118,-0.08377565,0.05731617,0.09292733,-0.00328303,0.00583830,-0
 .02987295,-0.00027407,0.00016361,0.00008479,0.00022659,0.00005293,0.00
 013600,0.00014621,0.00058872,0.00064933,0.00030393,0.00007964,0.003726
 09,0.00261740,-0.00011782,-0.00101345,-0.04386289,-0.00219012,0.004480
 60,0.00108319,0.00024931,0.00084303,-0.00471629,-0.00204825,-0.0026708
 4,-0.00000335,-0.00002991,-0.00004545,-0.00000923,0.00001311,-0.000168
 50,0.00000204,0.00005927,0.00001214,-0.00027457,-0.00013980,-0.0008592
 7,0.00054058,-0.00015880,0.00000897,-0.00070324,0.00001571,0.00042685,
 -0.00090509,-0.00545086,0.02481837,0.04911183,-0.00038643,0.00248632,-
 0.01075043,-0.00011875,0.00079901,0.00117564,-0.00260915,-0.00168928,-
 0.00048525,0.00037793,-0.00043824,0.00022375,0.00108465,-0.01338659,0.
 03233560,0.00086410,0.00001728,0.00020723,-0.00050532,-0.05652176,0.05
 910360,0.00048850,0.00030282,-0.00011057,-0.00217766,-0.00010207,-0.00
 085866,0.00006714,0.00000032,-0.00002284,0.00028645,-0.00062152,-0.002
 59134,0.00001604,0.00010266,-0.00012696,-0.00063909,-0.00053586,-0.000
 77571,0.00003778,-0.00002933,-0.00011145,-0.00001571,0.00049211,0.0001
 3141,0.00015455,0.00382017,-0.01631695,0.00307496,0.06530397,-0.001340
 05,0.00240137,-0.01528910,-0.00006835,-0.00013520,-0.00028098,0.001233
 72,-0.00061208,0.00067089,-0.00027327,-0.00073908,0.00007734,0.0003927
 7,0.00466605,-0.00089617,0.00135029,0.00128122,0.00009590,0.00077240,0
 .05298480,-0.27498791,0.00011512,-0.00050414,0.00032695,-0.00256666,-0
 .00159711,0.00026250,-0.00002165,0.00001519,-0.00003043,-0.00010594,0.
 00019363,0.00013343,-0.00002484,-0.00000299,-0.00001650,-0.00002707,0.
 00081563,-0.00044328,0.00010077,-0.00012290,0.00042118,-0.00042685,0.0
 0013141,0.00127002,0.00144532,0.00225125,-0.01472399,-0.00055570,-0.06
 102707,0.30341016\\0.,0.00003400,0.00001548,0.00001249,0.00003261,0.00
 000043,-0.00001249,0.00003261,0.00000043,0.00001926,-0.00005669,0.0000
 0107,-0.00001926,-0.00005669,0.00000107,0.00001390,-0.00001096,-0.0000
 0891,-0.00001390,-0.00001096,-0.00000891,0.,-0.00001813,0.00000361,0.,
 -0.00000493,-0.00002046,-0.00001071,-0.00000216,0.00000234,0.00001071,
 -0.00000216,0.00000234,-0.00001035,0.00001653,-0.00000751,0.00001035,0
 .00001653,-0.00000751,0.00000269,0.00000530,-0.00000711,0.00000251,0.0
 0000990,0.00002037,-0.00000269,0.00000530,-0.00000711,-0.00000251,0.00
 000990,0.00002037\\\@


 EVERYTHING'S GOT A MORAL, IF ONLY YOU CAN FIND IT.

                                    -- LEWIS CARROL, ALICE IN WONDERLAND
 Job cpu time:       0 days  1 hours 25 minutes  6.7 seconds.
 Elapsed time:       0 days  0 hours  7 minutes  6.1 seconds.
 File lengths (MBytes):  RWF=    124 Int=      0 D2E=      0 Chk=     11 Scr=      1
 Normal termination of Gaussian 16 at Tue Sep 12 10:35:26 2023.
