 Entering Gaussian System, Link 0=g16
 AtFile(1): pcseg2.gbs
            -H     0
            S   4   1.00
                  0.754732D+02           0.427821D-02
                  0.113575D+02           0.328672D-01
                  0.260081D+01           0.159578D+00
                  0.735503D+00           0.500000D+00
            S   1   1.00
                  0.231761D+00           1.0000000
            S   1   1.00
                  0.741675D-01           1.0000000
            P   1   1.00
                  0.160000D+01           1.0000000
            P   1   1.00
                  0.450000D+00           1.0000000
            D   1   1.00
                  0.125000D+01           1.0000000
            ****
            -C     0
            S   7   1.00
                  0.731999D+04           0.695369D-03
                  0.109818D+04           0.537138D-02
                  0.250014D+03           0.274734D-01
                  0.707586D+02           0.105078D+00
                  0.228595D+02           0.291262D+00
                  0.803936D+01           0.500000D+00
                  0.289309D+01           0.362224D+00
            S   2   1.00
                  0.521640D+01          -0.957844D-01
                  0.556124D+00           0.500000D+00
            S   1   1.00
                  0.228813D+00           1.0000000
            S   1   1.00
                  0.936338D-01           1.0000000
            P   4   1.00
                  0.339855D+02           0.818395D-02
                  0.772957D+01           0.586921D-01
                  0.224954D+01           0.222514D+00
                  0.767681D+00           0.500000D+00
            P   1   1.00
                  0.263283D+00           1.0000000
            P   1   1.00
                  0.848744D-01           1.0000000
            D   1   1.00
                  0.140000D+01           1.0000000
            D   1   1.00
                  0.450000D+00           1.0000000
            F   1   1.00
                  0.950000D+00           1.0000000
            ****
            -O     0
            S   7   1.00
                  0.135887D+05           0.665492D-03
                  0.203847D+04           0.514222D-02
                  0.464041D+03           0.263472D-01
                  0.131339D+03           0.101500D+00
                  0.425340D+02           0.285877D+00
                  0.150429D+02           0.500000D+00
                  0.546616D+01           0.368211D+00
            S   2   1.00
                  0.100915D+02          -0.100084D+00
                  0.110429D+01           0.500000D+00
            S   1   1.00
                  0.448082D+00           1.0000000
            S   1   1.00
                  0.175325D+00           1.0000000
            P   4   1.00
                  0.608220D+02           0.908253D-02
                  0.140332D+02           0.645878D-01
                  0.418244D+01           0.241502D+00
                  0.142490D+01           0.500000D+00
            P   1   1.00
                  0.478741D+00           1.0000000
            P   1   1.00
                  0.146257D+00           1.0000000
            D   1   1.00
                  0.220000D+01           1.0000000
            D   1   1.00
                  0.650000D+00           1.0000000
            F   1   1.00
                  0.110000D+01           1.0000000
            ****
            -N     0
            S   7   1.00
                  0.101643D+05           0.682757D-03
                  0.152481D+04           0.527488D-02
                  0.347119D+03           0.270037D-01
                  0.982389D+02           0.103673D+00
                  0.317799D+02           0.289575D+00
                  0.112240D+02           0.500000D+00
                  0.406611D+01           0.364621D+00
            S   2   1.00
                  0.747898D+01          -0.975681D-01
                  0.805040D+00           0.500000D+00
            S   1   1.00
                  0.324626D+00           1.0000000
            S   1   1.00
                  0.128132D+00           1.0000000
            P   4   1.00
                  0.482704D+02           0.829547D-02
                  0.110815D+02           0.596223D-01
                  0.326643D+01           0.227889D+00
                  0.111680D+01           0.500000D+00
            P   1   1.00
                  0.382049D+00           1.0000000
            P   1   1.00
                  0.121222D+00           1.0000000
            D   1   1.00
                  0.180000D+01           1.0000000
            D   1   1.00
                  0.550000D+00           1.0000000
            F   1   1.00
                  0.102000D+01           1.0000000
            ****
            -F     0
            S   7   1.00
                  0.174507D+05           0.655972D-03
                  0.261768D+04           0.506944D-02
                  0.595857D+03           0.259899D-01
                  0.168651D+03           0.100353D+00
                  0.546654D+02           0.284095D+00
                  0.193717D+02           0.500000D+00
                  0.706202D+01           0.370721D+00
            S   2   1.00
                  0.131197D+02          -0.101997D+00
                  0.145046D+01           0.500000D+00
            S   1   1.00
                  0.588255D+00           1.0000000
            S   1   1.00
                  0.227960D+00           1.0000000
            P   4   1.00
                  0.779407D+02           0.931135D-02
                  0.180425D+02           0.663964D-01
                  0.542342D+01           0.246386D+00
                  0.184876D+01           0.500000D+00
            P   1   1.00
                  0.617455D+00           1.0000000
            P   1   1.00
                  0.185496D+00           1.0000000
            D   1   1.00
                  0.280000D+01           1.0000000
            D   1   1.00
                  0.800000D+00           1.0000000
            F   1   1.00
                  0.120000D+01           1.0000000
            ****
            -Cl     0
            S   8   1.00
                  0.154272D+06           0.222473D-03
                  0.231232D+05           0.172590D-02
                  0.526257D+04           0.899286D-02
                  0.148995D+04           0.367724D-01
                  0.485417D+03           0.121446D+00
                  0.174634D+03           0.304148D+00
                  0.672393D+02           0.500000D+00
                  0.265780D+02           0.360252D+00
            S   3   1.00
                  0.131826D+03          -0.531330D-01
                  0.400703D+02          -0.233346D+00
                  0.789448D+01           0.500000D+00
            S   2   1.00
                  0.427711D+01           0.500000D+00
                  0.196233D+01           0.370517D+00
            S   1   1.00
                  0.520793D+00           1.0000000
            S   1   1.00
                  0.181633D+00           1.0000000
            P   7   1.00
                  0.124440D+04           0.988206D-03
                  0.295109D+03           0.829674D-02
                  0.947224D+02           0.430906D-01
                  0.352588D+02           0.148443D+00
                  0.144211D+02           0.344744D+00
                  0.610371D+01           0.500000D+00
                  0.258886D+01           0.348278D+00
            P   2   1.00
                  0.109447D+02          -0.196768D-01
                  0.104413D+01           0.500000D+00
            P   1   1.00
                  0.376184D+00           1.0000000
            P   1   1.00
                  0.120613D+00           1.0000000
            D   1   1.00
                  0.231000D+01           1.0000000
            D   1   1.00
                  0.520000D+00           1.0000000
            F   1   1.00
                  0.720000D+00           1.0000000
            ****
            -S     0
            S   8   1.00
                  0.134700D+06           0.226231D-03
                  0.201904D+05           0.175488D-02
                  0.459528D+04           0.914190D-02
                  0.130109D+04           0.373551D-01
                  0.423902D+03           0.123121D+00
                  0.152485D+03           0.306801D+00
                  0.586925D+02           0.500000D+00
                  0.231461D+02           0.354358D+00
            S   3   1.00
                  0.116327D+03          -0.491772D-01
                  0.352841D+02          -0.215962D+00
                  0.677831D+01           0.500000D+00
            S   2   1.00
                  0.360404D+01           0.500000D+00
                  0.164871D+01           0.366278D+00
            S   1   1.00
                  0.421821D+00           1.0000000
            S   1   1.00
                  0.147554D+00           1.0000000
            P   7   1.00
                  0.104863D+04           0.105273D-02
                  0.248717D+03           0.879338D-02
                  0.797887D+02           0.453358D-01
                  0.296023D+02           0.154476D+00
                  0.120627D+02           0.352366D+00
                  0.507628D+01           0.500000D+00
                  0.213375D+01           0.346429D+00
            P   2   1.00
                  0.928958D+01          -0.185932D-01
                  0.837819D+00           0.500000D+00
            P   1   1.00
                  0.301495D+00           1.0000000
            P   1   1.00
                  0.974740D-01           1.0000000
            D   1   1.00
                  0.210000D+01           1.0000000
            D   1   1.00
                  0.480000D+00           1.0000000
            F   1   1.00
                  0.660000D+00           1.0000000
            ****
            -Br     0
            S    10   1.00
                  0.233625D+07           0.532336D-04
                  0.349961D+06           0.413715D-03
                  0.796444D+05           0.217123D-02
                  0.225555D+05           0.910109D-02
                  0.735546D+04           0.323789D-01
                  0.265352D+04           0.988755D-01
                  0.103517D+04           0.248138D+00
                  0.422205D+03           0.474328D+00
                  0.180035D+03           0.500000D+00
                  0.793308D+02           0.187769D+00
            S    4   1.00
                  0.620834D+03          -0.226511D-01
                  0.190829D+03          -0.109497D+00
                  0.312505D+02           0.500000D+00
                  0.135270D+02           0.492812D+00
            S    2   1.00
                  0.216097D+02          -0.165418D+00
                  0.372566D+01           0.500000D+00
            S    1   1.00
                  0.169770D+01           1.0000000
            S    1   1.00
                  0.489332D+00           1.0000000
            S    1   1.00
                  0.175712D+00           1.0000000
            P    8   1.00
                  0.960829D+04           0.478974D-03
                  0.227618D+04           0.417853D-02
                  0.736723D+03           0.229315D-01
                  0.281579D+03           0.892653D-01
                  0.118395D+03           0.255288D+00
                  0.527481D+02           0.479074D+00
                  0.245098D+02           0.500000D+00
                  0.112009D+02           0.200944D+00
            P    4   1.00
                  0.587849D+02          -0.189674D-01
                  0.918962D+01           0.264104D+00
                  0.413895D+01           0.500000D+00
                  0.184225D+01           0.319316D+00
            P    1   1.00
                  0.713862D+00           1.0000000
            P    1   1.00
                  0.274232D+00           1.0000000
            P    1   1.00
                  0.944411D-01           1.0000000
            D    7   1.00
                  0.398470D+03           0.204066D-02
                  0.118967D+03           0.175171D-01
                  0.450197D+02           0.829708D-01
                  0.190320D+02           0.236284D+00
                  0.855686D+01           0.428468D+00
                  0.382950D+01           0.500000D+00
                  0.166291D+01           0.349360D+00
            D    1   1.00
                  0.672953D+00           1.0000000
            D    1   1.00
                  0.252000D+00           1.0000000
            F    1   1.00
                  0.530000D+00           1.0000000
            ****
            -Si     0
            S    8   1.00
                  0.996133D+05           0.235546D-03
                  0.149311D+05           0.182707D-02
                  0.339820D+04           0.951425D-02
                  0.962140D+03           0.388172D-01
                  0.313430D+03           0.127328D+00
                  0.112683D+03           0.313522D+00
                  0.433372D+02           0.500000D+00
                  0.170029D+02           0.340347D+00
            S    3   1.00
                  0.884208D+02          -0.404451D-01
                  0.266756D+02          -0.178059D+00
                  0.479640D+01           0.500000D+00
            S    2   1.00
                  0.239385D+01           0.500000D+00
                  0.108333D+01           0.338016D+00
            S    1   1.00
                  0.252420D+00           1.0000000
            S    1   1.00
                  0.891210D-01           1.0000000
            P    7   1.00
                  0.709901D+03           0.123028D-02
                  0.168426D+03           0.101366D-01
                  0.539946D+02           0.511840D-01
                  0.198646D+02           0.169967D+00
                  0.801369D+01           0.370717D+00
                  0.331870D+01           0.500000D+00
                  0.136112D+01           0.344128D+00
            P    2   1.00
                  0.622158D+01          -0.166609D-01
                  0.503049D+00           0.500000D+00
            P    1   1.00
                  0.179848D+00           1.0000000
            P    1   1.00
                  0.591912D-01           1.0000000
            D    1   1.00
                  0.168000D+01           1.0000000
            D    1   1.00
                  0.380000D+00           1.0000000
            F    1   1.00
                  0.540000D+00           1.0000000
            ****
            -P     0
            S    8   1.00
                  0.116416D+06           0.230715D-03
                  0.174500D+05           0.178960D-02
                  0.397149D+04           0.932116D-02
                  0.112447D+04           0.380591D-01
                  0.366347D+03           0.125148D+00
                  0.131757D+03           0.310022D+00
                  0.506988D+02           0.500000D+00
                  0.199436D+02           0.347528D+00
            S    3   1.00
                  0.101878D+03          -0.446755D-01
                  0.308249D+02          -0.196376D+00
                  0.573688D+01           0.500000D+00
            S    2   1.00
                  0.296868D+01           0.500000D+00
                  0.135315D+01           0.355098D+00
            S    1   1.00
                  0.332196D+00           1.0000000
            S    1   1.00
                  0.116229D+00           1.0000000
            P    7   1.00
                  0.873928D+03           0.112375D-02
                  0.207298D+03           0.933330D-02
                  0.664628D+02           0.477213D-01
                  0.245665D+02           0.160733D+00
                  0.996820D+01           0.359760D+00
                  0.416536D+01           0.500000D+00
                  0.173022D+01           0.346593D+00
            P    2   1.00
                  0.772530D+01          -0.175718D-01
                  0.657252D+00           0.500000D+00
            P    1   1.00
                  0.239903D+00           1.0000000
            P    1   1.00
                  0.800988D-01           1.0000000
            D    1   1.00
                  0.189000D+01           1.0000000
            D    1   1.00
                  0.430000D+00           1.0000000
            F    1   1.00
                  0.600000D+00           1.0000000
            ****
            
 Initial command:
 /usr/local/apps/g16_b01_avx/g16/l1.exe "/wrk/irikura/Gau-1288.inp" -scrdir="/wrk/irikura/"
 Entering Link 1 = /usr/local/apps/g16_b01_avx/g16/l1.exe PID=      1290.
  
 Copyright (c) 1988-2017, Gaussian, Inc.  All Rights Reserved.
  
 This is part of the Gaussian(R) 16 program.  It is based on
 the Gaussian(R) 09 system (copyright 2009, Gaussian, Inc.),
 the Gaussian(R) 03 system (copyright 2003, Gaussian, Inc.),
 the Gaussian(R) 98 system (copyright 1998, Gaussian, Inc.),
 the Gaussian(R) 94 system (copyright 1995, Gaussian, Inc.),
 the Gaussian 92(TM) system (copyright 1992, Gaussian, Inc.),
 the Gaussian 90(TM) system (copyright 1990, Gaussian, Inc.),
 the Gaussian 88(TM) system (copyright 1988, Gaussian, Inc.),
 the Gaussian 86(TM) system (copyright 1986, Carnegie Mellon
 University), and the Gaussian 82(TM) system (copyright 1983,
 Carnegie Mellon University). Gaussian is a federally registered
 trademark of Gaussian, Inc.
  
 This software contains proprietary and confidential information,
 including trade secrets, belonging to Gaussian, Inc.
  
 This software is provided under written license and may be
 used, copied, transmitted, or stored only in accord with that
 written license.
  
 The following legend is applicable only to US Government
 contracts under FAR:
  
                    RESTRICTED RIGHTS LEGEND
  
 Use, reproduction and disclosure by the US Government is
 subject to restrictions as set forth in subparagraphs (a)
 and (c) of the Commercial Computer Software - Restricted
 Rights clause in FAR 52.227-19.
  
 Gaussian, Inc.
 340 Quinnipiac St., Bldg. 40, Wallingford CT 06492
  
  
 ---------------------------------------------------------------
 Warning -- This program may not be used in any manner that
 competes with the business of Gaussian, Inc. or will provide
 assistance to any competitor of Gaussian, Inc.  The licensee
 of this program is prohibited from giving any competitor of
 Gaussian, Inc. access to this program.  By using this program,
 the user acknowledges that Gaussian, Inc. is engaged in the
 business of creating and licensing software in the field of
 computational chemistry and represents and warrants to the
 licensee that it is not a competitor of Gaussian, Inc. and that
 it will not use this program in any manner prohibited above.
 ---------------------------------------------------------------
  

 Cite this work as:
 Gaussian 16, Revision B.01,
 M. J. Frisch, G. W. Trucks, H. B. Schlegel, G. E. Scuseria, 
 M. A. Robb, J. R. Cheeseman, G. Scalmani, V. Barone, 
 G. A. Petersson, H. Nakatsuji, X. Li, M. Caricato, A. V. Marenich, 
 J. Bloino, B. G. Janesko, R. Gomperts, B. Mennucci, H. P. Hratchian, 
 J. V. Ortiz, A. F. Izmaylov, J. L. Sonnenberg, D. Williams-Young, 
 F. Ding, F. Lipparini, F. Egidi, J. Goings, B. Peng, A. Petrone, 
 T. Henderson, D. Ranasinghe, V. G. Zakrzewski, J. Gao, N. Rega, 
 G. Zheng, W. Liang, M. Hada, M. Ehara, K. Toyota, R. Fukuda, 
 J. Hasegawa, M. Ishida, T. Nakajima, Y. Honda, O. Kitao, H. Nakai, 
 T. Vreven, K. Throssell, J. A. Montgomery, Jr., J. E. Peralta, 
 F. Ogliaro, M. J. Bearpark, J. J. Heyd, E. N. Brothers, K. N. Kudin, 
 V. N. Staroverov, T. A. Keith, R. Kobayashi, J. Normand, 
 K. Raghavachari, A. P. Rendell, J. C. Burant, S. S. Iyengar, 
 J. Tomasi, M. Cossi, J. M. Millam, M. Klene, C. Adamo, R. Cammi, 
 J. W. Ochterski, R. L. Martin, K. Morokuma, O. Farkas, 
 J. B. Foresman, and D. J. Fox, Gaussian, Inc., Wallingford CT, 2016.
 
 ******************************************
 Gaussian 16:  ES64L-G16RevB.01 20-Dec-2017
                16-Jun-2022 
 ******************************************
 %mem=1000mw
 %nprocs=12
 Will use up to   12 processors via shared memory.
 --------------------
 # b3lyp/gen opt freq
 --------------------
 1/18=20,19=15,26=3,38=1/1,3;
 2/9=110,12=2,17=6,18=5,40=1/2;
 3/5=7,11=2,25=1,30=1,71=1,74=-5/1,2,3;
 4//1;
 5/5=2,38=5/2;
 6/7=2,8=2,9=2,10=2,28=1/1;
 7//1,2,3,16;
 1/18=20,19=15,26=3/3(2);
 2/9=110/2;
 99//99;
 2/9=110/2;
 3/5=7,6=1,11=2,25=1,30=1,71=1,74=-5,82=7/1,2,3;
 4/5=5,16=3,69=1/1;
 5/5=2,38=5/2;
 7//1,2,3,16;
 1/18=20,19=15,26=3/3(-5);
 2/9=110/2;
 6/7=2,8=2,9=2,10=2,19=2,28=1/1;
 99/9=1/99;
 ---------------------------
 cyclopentene, B3LYP/pcseg-2
 ---------------------------
 Symbolic Z-matrix:
 Charge =  0 Multiplicity = 1
 C                     0.24856  -1.20922   0. 
 C                    -0.06421  -0.32477   1.23663 
 C                    -0.06421  -0.32477  -1.23663 
 C                    -0.06421   1.07435   0.66582 
 C                    -0.06421   1.07435  -0.66582 
 H                     1.31192  -1.46829   0. 
 H                    -0.31042  -2.14829   0. 
 H                    -1.04437  -0.56257   1.67464 
 H                    -1.04437  -0.56257  -1.67464 
 H                    -0.0991    1.95969   1.29158 
 H                    -0.0991    1.95969  -1.29158 
 H                     0.66755  -0.45866  -2.04165 
 H                     0.66755  -0.45866   2.04165 
 

 GradGradGradGradGradGradGradGradGradGradGradGradGradGradGradGradGradGrad
 Berny optimization.
 Initialization pass.
                           ----------------------------
                           !    Initial Parameters    !
                           ! (Angstroms and Degrees)  !
 --------------------------                            --------------------------
 ! Name  Definition              Value          Derivative Info.                !
 --------------------------------------------------------------------------------
 ! R1    R(1,2)                  1.5522         estimate D2E/DX2                !
 ! R2    R(1,3)                  1.5522         estimate D2E/DX2                !
 ! R3    R(1,6)                  1.0945         estimate D2E/DX2                !
 ! R4    R(1,7)                  1.0928         estimate D2E/DX2                !
 ! R5    R(2,4)                  1.5111         estimate D2E/DX2                !
 ! R6    R(2,8)                  1.0996         estimate D2E/DX2                !
 ! R7    R(2,13)                 1.0961         estimate D2E/DX2                !
 ! R8    R(3,5)                  1.5111         estimate D2E/DX2                !
 ! R9    R(3,9)                  1.0996         estimate D2E/DX2                !
 ! R10   R(3,12)                 1.0961         estimate D2E/DX2                !
 ! R11   R(4,5)                  1.3316         estimate D2E/DX2                !
 ! R12   R(4,10)                 1.0847         estimate D2E/DX2                !
 ! R13   R(5,11)                 1.0847         estimate D2E/DX2                !
 ! A1    A(2,1,3)              105.6305         estimate D2E/DX2                !
 ! A2    A(2,1,6)              109.3084         estimate D2E/DX2                !
 ! A3    A(2,1,7)              112.7407         estimate D2E/DX2                !
 ! A4    A(3,1,6)              109.3084         estimate D2E/DX2                !
 ! A5    A(3,1,7)              112.7407         estimate D2E/DX2                !
 ! A6    A(6,1,7)              107.071          estimate D2E/DX2                !
 ! A7    A(1,2,4)              103.0993         estimate D2E/DX2                !
 ! A8    A(1,2,8)              111.946          estimate D2E/DX2                !
 ! A9    A(1,2,13)             112.3951         estimate D2E/DX2                !
 ! A10   A(4,2,8)              110.5311         estimate D2E/DX2                !
 ! A11   A(4,2,13)             112.9879         estimate D2E/DX2                !
 ! A12   A(8,2,13)             106.0282         estimate D2E/DX2                !
 ! A13   A(1,3,5)              103.0993         estimate D2E/DX2                !
 ! A14   A(1,3,9)              111.946          estimate D2E/DX2                !
 ! A15   A(1,3,12)             112.3951         estimate D2E/DX2                !
 ! A16   A(5,3,9)              110.5311         estimate D2E/DX2                !
 ! A17   A(5,3,12)             112.9879         estimate D2E/DX2                !
 ! A18   A(9,3,12)             106.0282         estimate D2E/DX2                !
 ! A19   A(2,4,5)              112.1944         estimate D2E/DX2                !
 ! A20   A(2,4,10)             122.5341         estimate D2E/DX2                !
 ! A21   A(5,4,10)             125.2316         estimate D2E/DX2                !
 ! A22   A(3,5,4)              112.1944         estimate D2E/DX2                !
 ! A23   A(3,5,11)             122.5341         estimate D2E/DX2                !
 ! A24   A(4,5,11)             125.2316         estimate D2E/DX2                !
 ! D1    D(3,1,2,4)            -18.4782         estimate D2E/DX2                !
 ! D2    D(3,1,2,8)            100.3364         estimate D2E/DX2                !
 ! D3    D(3,1,2,13)          -140.4543         estimate D2E/DX2                !
 ! D4    D(6,1,2,4)             99.0276         estimate D2E/DX2                !
 ! D5    D(6,1,2,8)           -142.1578         estimate D2E/DX2                !
 ! D6    D(6,1,2,13)           -22.9486         estimate D2E/DX2                !
 ! D7    D(7,1,2,4)           -142.0174         estimate D2E/DX2                !
 ! D8    D(7,1,2,8)            -23.2028         estimate D2E/DX2                !
 ! D9    D(7,1,2,13)            96.0064         estimate D2E/DX2                !
 ! D10   D(2,1,3,5)             18.4782         estimate D2E/DX2                !
 ! D11   D(2,1,3,9)           -100.3364         estimate D2E/DX2                !
 ! D12   D(2,1,3,12)           140.4543         estimate D2E/DX2                !
 ! D13   D(6,1,3,5)            -99.0276         estimate D2E/DX2                !
 ! D14   D(6,1,3,9)            142.1578         estimate D2E/DX2                !
 ! D15   D(6,1,3,12)            22.9486         estimate D2E/DX2                !
 ! D16   D(7,1,3,5)            142.0174         estimate D2E/DX2                !
 ! D17   D(7,1,3,9)             23.2028         estimate D2E/DX2                !
 ! D18   D(7,1,3,12)           -96.0064         estimate D2E/DX2                !
 ! D19   D(1,2,4,5)             11.9399         estimate D2E/DX2                !
 ! D20   D(1,2,4,10)          -170.2464         estimate D2E/DX2                !
 ! D21   D(8,2,4,5)           -107.8545         estimate D2E/DX2                !
 ! D22   D(8,2,4,10)            69.9592         estimate D2E/DX2                !
 ! D23   D(13,2,4,5)           133.5159         estimate D2E/DX2                !
 ! D24   D(13,2,4,10)          -48.6704         estimate D2E/DX2                !
 ! D25   D(1,3,5,4)            -11.9399         estimate D2E/DX2                !
 ! D26   D(1,3,5,11)           170.2464         estimate D2E/DX2                !
 ! D27   D(9,3,5,4)            107.8545         estimate D2E/DX2                !
 ! D28   D(9,3,5,11)           -69.9592         estimate D2E/DX2                !
 ! D29   D(12,3,5,4)          -133.5159         estimate D2E/DX2                !
 ! D30   D(12,3,5,11)           48.6704         estimate D2E/DX2                !
 ! D31   D(2,4,5,3)              0.0            estimate D2E/DX2                !
 ! D32   D(2,4,5,11)           177.7434         estimate D2E/DX2                !
 ! D33   D(10,4,5,3)          -177.7434         estimate D2E/DX2                !
 ! D34   D(10,4,5,11)            0.0            estimate D2E/DX2                !
 --------------------------------------------------------------------------------
 Trust Radius=3.00D-01 FncErr=1.00D-07 GrdErr=1.00D-06 EigMax=2.50D+02 EigMin=1.00D-04
 Number of steps in this run=     81 maximum allowed number of steps=    100.
 GradGradGradGradGradGradGradGradGradGradGradGradGradGradGradGradGradGrad

                          Input orientation:                          
 ---------------------------------------------------------------------
 Center     Atomic      Atomic             Coordinates (Angstroms)
 Number     Number       Type             X           Y           Z
 ---------------------------------------------------------------------
      1          6           0        0.248562   -1.209223    0.000000
      2          6           0       -0.064210   -0.324765    1.236627
      3          6           0       -0.064210   -0.324765   -1.236627
      4          6           0       -0.064210    1.074349    0.665819
      5          6           0       -0.064210    1.074349   -0.665819
      6          1           0        1.311922   -1.468291    0.000000
      7          1           0       -0.310419   -2.148288    0.000000
      8          1           0       -1.044368   -0.562573    1.674635
      9          1           0       -1.044368   -0.562573   -1.674635
     10          1           0       -0.099097    1.959691    1.291576
     11          1           0       -0.099097    1.959691   -1.291576
     12          1           0        0.667552   -0.458661   -2.041654
     13          1           0        0.667552   -0.458661    2.041654
 ---------------------------------------------------------------------
                    Distance matrix (angstroms):
                    1          2          3          4          5
     1  C    0.000000
     2  C    1.552204   0.000000
     3  C    1.552204   2.473254   0.000000
     4  C    2.399134   1.511073   2.361529   0.000000
     5  C    2.399134   2.361529   1.511073   1.331638   0.000000
     6  H    1.094464   2.175003   2.175003   2.966829   2.966829
     7  H    1.092842   2.217003   2.217003   3.299897   3.299897
     8  H    2.212290   1.099597   3.081024   2.158225   3.019594
     9  H    2.212290   3.081024   1.099597   3.019594   2.158225
    10  H    3.439630   2.285383   3.407604   1.084721   2.148591
    11  H    3.439630   3.407604   2.285383   2.148591   1.084721
    12  H    2.215231   3.361626   1.096117   3.196249   2.185982
    13  H    2.215231   1.096117   3.361626   2.185982   3.196249
                    6          7          8          9         10
     6  H    0.000000
     7  H    1.759087   0.000000
     8  H    3.029328   2.420243   0.000000
     9  H    3.029328   2.420243   3.349270   0.000000
    10  H    3.925583   4.311417   2.720678   4.006714   0.000000
    11  H    3.925583   4.311417   4.006714   2.720678   2.583152
    12  H    2.367048   2.824822   4.092954   1.753902   4.188866
    13  H    2.367048   2.824822   1.753902   4.092954   2.645523
                   11         12         13
    11  H    0.000000
    12  H    2.645523   0.000000
    13  H    4.188866   4.083308   0.000000
 Stoichiometry    C5H8
 Framework group  CS[SG(CH2),X(C4H6)]
 Deg. of freedom    18
 Full point group                 CS      NOp   2
 Largest Abelian subgroup         CS      NOp   2
 Largest concise Abelian subgroup CS      NOp   2
                         Standard orientation:                         
 ---------------------------------------------------------------------
 Center     Atomic      Atomic             Coordinates (Angstroms)
 Number     Number       Type             X           Y           Z
 ---------------------------------------------------------------------
      1          6           0        0.248562   -1.209223    0.000000
      2          6           0       -0.064210   -0.324765    1.236627
      3          6           0       -0.064210   -0.324765   -1.236627
      4          6           0       -0.064210    1.074349    0.665819
      5          6           0       -0.064210    1.074349   -0.665819
      6          1           0        1.311922   -1.468291    0.000000
      7          1           0       -0.310419   -2.148288    0.000000
      8          1           0       -1.044368   -0.562573    1.674635
      9          1           0       -1.044368   -0.562573   -1.674635
     10          1           0       -0.099097    1.959691    1.291576
     11          1           0       -0.099097    1.959691   -1.291576
     12          1           0        0.667552   -0.458661   -2.041654
     13          1           0        0.667552   -0.458661    2.041654
 ---------------------------------------------------------------------
 Rotational constants (GHZ):           7.2978970           7.2139515           3.9264553
 General basis read from cards:  (5D, 7F)
 There are   161 symmetry adapted cartesian basis functions of A'  symmetry.
 There are   134 symmetry adapted cartesian basis functions of A"  symmetry.
 There are   142 symmetry adapted basis functions of A'  symmetry.
 There are   120 symmetry adapted basis functions of A"  symmetry.
   262 basis functions,   399 primitive gaussians,   295 cartesian basis functions
    19 alpha electrons       19 beta electrons
       nuclear repulsion energy       171.0138385885 Hartrees.
 NAtoms=   13 NActive=   13 NUniq=    8 SFac= 2.64D+00 NAtFMM=   60 NAOKFM=F Big=F
 Integral buffers will be    131072 words long.
 Raffenetti 2 integral format.
 Two-electron integral symmetry is turned on.
 One-electron integrals computed using PRISM.
 NBasis=   262 RedAO= T EigKep=  1.26D-04  NBF=   142   120
 NBsUse=   262 1.00D-06 EigRej= -1.00D+00 NBFU=   142   120
 ExpMin= 7.42D-02 ExpMax= 7.32D+03 ExpMxC= 2.50D+02 IAcc=3 IRadAn=         5 AccDes= 0.00D+00
 Harris functional with IExCor=  402 and IRadAn=       5 diagonalized for initial guess.
 HarFok:  IExCor=  402 AccDes= 0.00D+00 IRadAn=         5 IDoV= 1 UseB2=F ITyADJ=14
 ICtDFT=  3500011 ScaDFX=  1.000000  1.000000  1.000000  1.000000
 FoFCou: FMM=F IPFlag=           0 FMFlag=      100000 FMFlg1=           0
         NFxFlg=           0 DoJE=T BraDBF=F KetDBF=T FulRan=T
         wScrn=  0.000000 ICntrl=       500 IOpCl=  0 I1Cent=   200000004 NGrid=           0
         NMat0=    1 NMatS0=      1 NMatT0=    0 NMatD0=    1 NMtDS0=    0 NMtDT0=    0
 Petite list used in FoFCou.
 Initial guess orbital symmetries:
       Occupied  (A') (A") (A') (A') (A") (A') (A') (A") (A') (A")
                 (A') (A') (A') (A") (A') (A") (A") (A') (A')
       Virtual   (A") (A') (A') (A') (A") (A') (A") (A') (A") (A")
                 (A') (A') (A") (A') (A') (A") (A') (A') (A') (A")
                 (A") (A') (A") (A") (A') (A') (A') (A") (A') (A")
                 (A') (A') (A") (A') (A") (A") (A') (A") (A') (A")
                 (A') (A") (A") (A') (A') (A') (A') (A") (A") (A')
                 (A') (A') (A") (A') (A") (A") (A') (A") (A') (A')
                 (A") (A') (A') (A") (A') (A") (A') (A') (A") (A')
                 (A") (A') (A") (A') (A") (A") (A') (A') (A') (A')
                 (A") (A") (A") (A') (A") (A") (A') (A") (A') (A')
                 (A") (A') (A") (A') (A') (A') (A") (A") (A") (A')
                 (A') (A") (A') (A") (A') (A") (A') (A") (A') (A')
                 (A") (A') (A") (A") (A') (A') (A') (A") (A') (A")
                 (A') (A") (A") (A') (A') (A') (A") (A') (A") (A')
                 (A") (A') (A") (A') (A') (A') (A") (A') (A") (A')
                 (A") (A') (A") (A') (A") (A") (A') (A') (A") (A')
                 (A") (A') (A') (A") (A') (A") (A") (A') (A") (A')
                 (A") (A') (A") (A') (A") (A') (A") (A') (A") (A')
                 (A') (A") (A") (A') (A') (A") (A') (A") (A") (A')
                 (A') (A") (A') (A") (A') (A") (A') (A") (A') (A')
                 (A") (A") (A') (A") (A') (A") (A') (A") (A") (A')
                 (A') (A") (A") (A") (A') (A") (A') (A") (A') (A")
                 (A') (A") (A') (A") (A') (A') (A") (A") (A') (A')
                 (A") (A') (A') (A") (A') (A") (A') (A') (A') (A")
                 (A') (A") (A") (A') (A") (A") (A') (A") (A') (A')
                 (A") (A') (A")
 The electronic state of the initial guess is 1-A'.
 Keep R1 ints in memory in symmetry-blocked form, NReq=890399573.
 Requested convergence on RMS density matrix=1.00D-08 within 128 cycles.
 Requested convergence on MAX density matrix=1.00D-06.
 Requested convergence on             energy=1.00D-06.
 No special actions if energy rises.
 Integral accuracy reduced to 1.0D-05 until final iterations.
 Initial convergence to 1.0D-05 achieved.  Increase integral accuracy.
 SCF Done:  E(RB3LYP) =  -195.405031619     A.U. after   11 cycles
            NFock= 11  Conv=0.36D-08     -V/T= 2.0047

 **********************************************************************

            Population analysis using the SCF Density.

 **********************************************************************

 Orbital symmetries:
       Occupied  (A') (A") (A') (A') (A") (A') (A') (A") (A') (A")
                 (A') (A') (A") (A') (A') (A") (A') (A") (A')
       Virtual   (A") (A') (A') (A') (A") (A') (A") (A") (A') (A')
                 (A") (A') (A") (A') (A") (A') (A') (A') (A") (A')
                 (A") (A') (A") (A') (A') (A") (A") (A') (A') (A")
                 (A') (A") (A') (A") (A') (A') (A") (A') (A") (A')
                 (A") (A") (A") (A') (A') (A') (A") (A') (A") (A')
                 (A') (A") (A') (A') (A") (A") (A') (A") (A') (A')
                 (A") (A') (A') (A") (A') (A") (A') (A") (A') (A")
                 (A') (A') (A") (A') (A") (A') (A") (A') (A') (A')
                 (A") (A") (A") (A') (A") (A") (A') (A") (A') (A')
                 (A") (A') (A') (A") (A') (A') (A") (A") (A") (A')
                 (A") (A') (A') (A") (A') (A") (A') (A") (A') (A')
                 (A") (A') (A") (A") (A') (A') (A") (A') (A') (A")
                 (A') (A") (A") (A') (A') (A') (A") (A') (A") (A')
                 (A") (A') (A") (A') (A') (A') (A") (A') (A") (A")
                 (A') (A') (A") (A') (A") (A") (A') (A') (A") (A')
                 (A") (A') (A') (A') (A") (A") (A") (A") (A') (A')
                 (A") (A') (A") (A') (A") (A') (A") (A') (A') (A")
                 (A') (A") (A") (A') (A') (A") (A') (A") (A") (A')
                 (A') (A") (A') (A") (A') (A") (A') (A') (A") (A')
                 (A") (A") (A') (A") (A') (A") (A') (A") (A') (A")
                 (A') (A") (A") (A") (A') (A") (A') (A") (A') (A")
                 (A') (A") (A') (A") (A') (A") (A') (A') (A") (A')
                 (A") (A') (A') (A") (A') (A") (A') (A') (A') (A")
                 (A') (A") (A") (A') (A") (A") (A') (A") (A') (A')
                 (A") (A') (A")
 The electronic state is 1-A'.
 Alpha  occ. eigenvalues --  -10.16947 -10.16946 -10.16749 -10.16501 -10.16408
 Alpha  occ. eigenvalues --   -0.83918  -0.70725  -0.70430  -0.57410  -0.52874
 Alpha  occ. eigenvalues --   -0.49803  -0.46723  -0.39903  -0.38214  -0.35082
 Alpha  occ. eigenvalues --   -0.34937  -0.34465  -0.34182  -0.24439
 Alpha virt. eigenvalues --    0.01210   0.01453   0.04536   0.04622   0.04630
 Alpha virt. eigenvalues --    0.07172   0.07498   0.08818   0.10132   0.14011
 Alpha virt. eigenvalues --    0.15049   0.15648   0.17265   0.18435   0.20383
 Alpha virt. eigenvalues --    0.20505   0.21667   0.21962   0.26584   0.26685
 Alpha virt. eigenvalues --    0.30272   0.30365   0.31451   0.32027   0.33247
 Alpha virt. eigenvalues --    0.34614   0.35322   0.35322   0.36504   0.37140
 Alpha virt. eigenvalues --    0.37400   0.38045   0.38908   0.40914   0.41623
 Alpha virt. eigenvalues --    0.46118   0.46453   0.50159   0.55237   0.58440
 Alpha virt. eigenvalues --    0.59683   0.62248   0.67581   0.75797   0.79461
 Alpha virt. eigenvalues --    0.83819   0.88599   0.88891   0.88921   0.93360
 Alpha virt. eigenvalues --    0.94210   0.97147   0.97710   1.00445   1.01846
 Alpha virt. eigenvalues --    1.02772   1.04304   1.04952   1.05464   1.05982
 Alpha virt. eigenvalues --    1.07999   1.10344   1.11111   1.13142   1.15219
 Alpha virt. eigenvalues --    1.16791   1.18463   1.21699   1.23573   1.25813
 Alpha virt. eigenvalues --    1.26077   1.29778   1.31456   1.31625   1.35147
 Alpha virt. eigenvalues --    1.40103   1.40515   1.43546   1.44469   1.47611
 Alpha virt. eigenvalues --    1.47745   1.52516   1.54136   1.57502   1.65040
 Alpha virt. eigenvalues --    1.67902   1.70859   1.73835   1.75935   1.77231
 Alpha virt. eigenvalues --    1.80160   1.81552   1.81862   1.81923   1.89220
 Alpha virt. eigenvalues --    1.90983   1.92259   1.95997   1.96348   1.97145
 Alpha virt. eigenvalues --    1.99257   2.01797   2.07684   2.15408   2.20436
 Alpha virt. eigenvalues --    2.24215   2.29082   2.34999   2.36794   2.39565
 Alpha virt. eigenvalues --    2.48630   2.51740   2.60303   2.70072   2.79558
 Alpha virt. eigenvalues --    2.88772   3.01848   3.02965   3.07281   3.08794
 Alpha virt. eigenvalues --    3.14433   3.15954   3.17126   3.19049   3.25338
 Alpha virt. eigenvalues --    3.25413   3.25565   3.32148   3.39055   3.43802
 Alpha virt. eigenvalues --    3.46053   3.51592   3.54037   3.55885   3.63109
 Alpha virt. eigenvalues --    3.63778   3.68360   3.72121   3.74664   3.75949
 Alpha virt. eigenvalues --    3.76410   3.79971   3.80518   3.83940   3.84273
 Alpha virt. eigenvalues --    3.92468   3.93724   3.93854   3.98293   3.98745
 Alpha virt. eigenvalues --    4.00451   4.02423   4.07387   4.07833   4.08220
 Alpha virt. eigenvalues --    4.09648   4.14667   4.16836   4.16865   4.19102
 Alpha virt. eigenvalues --    4.23062   4.24706   4.27229   4.28841   4.30878
 Alpha virt. eigenvalues --    4.32642   4.35515   4.36071   4.40593   4.41236
 Alpha virt. eigenvalues --    4.43595   4.44998   4.47277   4.52027   4.52699
 Alpha virt. eigenvalues --    4.53212   4.56252   4.56464   4.59386   4.60244
 Alpha virt. eigenvalues --    4.61383   4.64870   4.65645   4.65886   4.67176
 Alpha virt. eigenvalues --    4.69916   4.70357   4.73682   4.74164   4.74911
 Alpha virt. eigenvalues --    4.81383   4.83999   4.86448   4.91222   4.91271
 Alpha virt. eigenvalues --    4.96254   5.03552   5.05348   5.06832   5.07616
 Alpha virt. eigenvalues --    5.10819   5.13536   5.19228   5.20866   5.23076
 Alpha virt. eigenvalues --    5.25235   5.27145   5.31477   5.33838   5.34608
 Alpha virt. eigenvalues --    5.35597   5.40471   5.42862   5.44972   5.46331
 Alpha virt. eigenvalues --    5.53446   5.53609   5.56636   5.59124   5.65986
 Alpha virt. eigenvalues --    5.68514   5.69326   5.74294   5.74383   5.76143
 Alpha virt. eigenvalues --    5.80526   5.86373   5.88270   5.90843   5.91385
 Alpha virt. eigenvalues --    5.96695   5.96845   5.98173   6.02619   6.07278
 Alpha virt. eigenvalues --    6.12082   6.14816   6.18411   6.21730   6.37573
 Alpha virt. eigenvalues --    6.52893   7.99003   8.55849
          Condensed to atoms (all electrons):
               1          2          3          4          5          6
     1  C    4.765021   0.327541   0.327541  -0.047109  -0.047109   0.445841
     2  C    0.327541   4.693819  -0.015758   0.342682  -0.113993  -0.045454
     3  C    0.327541  -0.015758   4.693819  -0.113993   0.342682  -0.045454
     4  C   -0.047109   0.342682  -0.113993   4.967459   0.610234   0.005431
     5  C   -0.047109  -0.113993   0.342682   0.610234   4.967459   0.005431
     6  H    0.445841  -0.045454  -0.045454   0.005431   0.005431   0.628914
     7  H    0.437011  -0.038179  -0.038179   0.008011   0.008011  -0.021686
     8  H   -0.027987   0.420332  -0.001905  -0.045581  -0.000815   0.008148
     9  H   -0.027987  -0.001905   0.420332  -0.000815  -0.045581   0.008148
    10  H    0.006324  -0.032985   0.008071   0.433868  -0.035034  -0.000389
    11  H    0.006324   0.008071  -0.032985  -0.035034   0.433868  -0.000389
    12  H   -0.042323   0.011534   0.448846   0.004194  -0.050449  -0.011780
    13  H   -0.042323   0.448846   0.011534  -0.050449   0.004194  -0.011780
               7          8          9         10         11         12
     1  C    0.437011  -0.027987  -0.027987   0.006324   0.006324  -0.042323
     2  C   -0.038179   0.420332  -0.001905  -0.032985   0.008071   0.011534
     3  C   -0.038179  -0.001905   0.420332   0.008071  -0.032985   0.448846
     4  C    0.008011  -0.045581  -0.000815   0.433868  -0.035034   0.004194
     5  C    0.008011  -0.000815  -0.045581  -0.035034   0.433868  -0.050449
     6  H   -0.021686   0.008148   0.008148  -0.000389  -0.000389  -0.011780
     7  H    0.621481  -0.004927  -0.004927  -0.000271  -0.000271   0.000216
     8  H   -0.004927   0.661771   0.004608  -0.001181  -0.000375  -0.001628
     9  H   -0.004927   0.004608   0.661771  -0.000375  -0.001181  -0.039001
    10  H   -0.000271  -0.001181  -0.000375   0.601754  -0.006154  -0.000211
    11  H   -0.000271  -0.000375  -0.001181  -0.006154   0.601754  -0.002203
    12  H    0.000216  -0.001628  -0.039001  -0.000211  -0.002203   0.649777
    13  H    0.000216  -0.039001  -0.001628  -0.002203  -0.000211   0.000776
              13
     1  C   -0.042323
     2  C    0.448846
     3  C    0.011534
     4  C   -0.050449
     5  C    0.004194
     6  H   -0.011780
     7  H    0.000216
     8  H   -0.039001
     9  H   -0.001628
    10  H   -0.002203
    11  H   -0.000211
    12  H    0.000776
    13  H    0.649777
 Mulliken charges:
               1
     1  C   -0.080767
     2  C   -0.004551
     3  C   -0.004551
     4  C   -0.078901
     5  C   -0.078901
     6  H    0.035020
     7  H    0.033494
     8  H    0.028540
     9  H    0.028540
    10  H    0.028786
    11  H    0.028786
    12  H    0.032252
    13  H    0.032252
 Sum of Mulliken charges =  -0.00000
 Mulliken charges with hydrogens summed into heavy atoms:
               1
     1  C   -0.012253
     2  C    0.056241
     3  C    0.056241
     4  C   -0.050115
     5  C   -0.050115
 Electronic spatial extent (au):  <R**2>=            377.4005
 Charge=             -0.0000 electrons
 Dipole moment (field-independent basis, Debye):
    X=             -0.0582    Y=             -0.2344    Z=              0.0000  Tot=              0.2415
 Quadrupole moment (field-independent basis, Debye-Ang):
   XX=            -33.0055   YY=            -31.7867   ZZ=            -31.0589
   XY=             -0.0277   XZ=             -0.0000   YZ=              0.0000
 Traceless Quadrupole moment (field-independent basis, Debye-Ang):
   XX=             -1.0551   YY=              0.1637   ZZ=              0.8915
   XY=             -0.0277   XZ=             -0.0000   YZ=              0.0000
 Octapole moment (field-independent basis, Debye-Ang**2):
  XXX=              0.2708  YYY=              2.1933  ZZZ=             -0.0000  XYY=             -0.7955
  XXY=             -3.2658  XXZ=             -0.0000  XZZ=              0.5003  YZZ=              1.9098
  YYZ=             -0.0000  XYZ=              0.0000
 Hexadecapole moment (field-independent basis, Debye-Ang**3):
 XXXX=            -62.9990 YYYY=           -227.7551 ZZZZ=           -240.9337 XXXY=              8.5425
 XXXZ=              0.0000 YYYX=              9.9478 YYYZ=             -0.0000 ZZZX=             -0.0000
 ZZZY=              0.0000 XXYY=            -52.5458 XXZZ=            -48.7834 YYZZ=            -75.6121
 XXYZ=             -0.0000 YYXZ=             -0.0000 ZZXY=              2.3584
 N-N= 1.710138385885D+02 E-N=-7.946346128948D+02  KE= 1.944827068066D+02
 Symmetry A'   KE= 1.179063775575D+02
 Symmetry A"   KE= 7.657632924912D+01
 Calling FoFJK, ICntrl=      2127 FMM=F ISym2X=1 I1Cent= 0 IOpClX= 0 NMat=1 NMatS=1 NMatT=0.
 ***** Axes restored to original set *****
 -------------------------------------------------------------------
 Center     Atomic                   Forces (Hartrees/Bohr)
 Number     Number              X              Y              Z
 -------------------------------------------------------------------
      1        6           0.000701593   -0.001250381   -0.000000000
      2        6          -0.000202394   -0.000616839    0.000769957
      3        6          -0.000202394   -0.000616839   -0.000769957
      4        6          -0.000089653   -0.000108946   -0.000833314
      5        6          -0.000089653   -0.000108946    0.000833314
      6        1          -0.002361782    0.000695133   -0.000000000
      7        1           0.001029396    0.002231636   -0.000000000
      8        1           0.002065208    0.000658005   -0.001288307
      9        1           0.002065208    0.000658005    0.001288307
     10        1           0.000056444   -0.001324366   -0.001566856
     11        1           0.000056444   -0.001324366    0.001566856
     12        1          -0.001514208    0.000553951    0.002148773
     13        1          -0.001514208    0.000553951   -0.002148773
 -------------------------------------------------------------------
 Cartesian Forces:  Max     0.002361782 RMS     0.001167813

 GradGradGradGradGradGradGradGradGradGradGradGradGradGradGradGradGradGrad
 Berny optimization.
 FormGI is forming the generalized inverse of G from B-inverse, IUseBI=4.
 Internal  Forces:  Max     0.003271335 RMS     0.001012122
 Search for a local minimum.
 Step number   1 out of a maximum of   81
 All quantities printed in internal units (Hartrees-Bohrs-Radians)
 Mixed Optimization -- RFO/linear search
 Second derivative matrix not updated -- first step.
 ITU=  0
     Eigenvalues ---    0.00351   0.00986   0.01250   0.01826   0.03339
     Eigenvalues ---    0.03397   0.04844   0.05185   0.05800   0.05901
     Eigenvalues ---    0.07092   0.07554   0.08123   0.08143   0.09528
     Eigenvalues ---    0.11125   0.15978   0.15988   0.21519   0.21618
     Eigenvalues ---    0.26659   0.26751   0.29782   0.31015   0.33727
     Eigenvalues ---    0.33727   0.34115   0.34115   0.34302   0.34486
     Eigenvalues ---    0.35430   0.35430   0.56006
 RFO step:  Lambda=-2.15131789D-04 EMin= 3.50828869D-03
 Linear search not attempted -- first point.
 Iteration  1 RMS(Cart)=  0.00457697 RMS(Int)=  0.00000654
 Iteration  2 RMS(Cart)=  0.00000632 RMS(Int)=  0.00000055
 Iteration  3 RMS(Cart)=  0.00000000 RMS(Int)=  0.00000055
 ClnCor:  largest displacement from symmetrization is 6.62D-09 for atom    11.
 Variable       Old X    -DE/DX   Delta X   Delta X   Delta X     New X
                                 (Linear)    (Quad)   (Total)
    R1        2.93324  -0.00197   0.00000  -0.00651  -0.00651   2.92673
    R2        2.93324  -0.00197   0.00000  -0.00651  -0.00651   2.92673
    R3        2.06824  -0.00246   0.00000  -0.00716  -0.00716   2.06107
    R4        2.06517  -0.00244   0.00000  -0.00708  -0.00708   2.05809
    R5        2.85551  -0.00166   0.00000  -0.00557  -0.00558   2.84994
    R6        2.07794  -0.00250   0.00000  -0.00740  -0.00740   2.07054
    R7        2.07136  -0.00266   0.00000  -0.00778  -0.00778   2.06358
    R8        2.85551  -0.00166   0.00000  -0.00557  -0.00558   2.84994
    R9        2.07794  -0.00250   0.00000  -0.00740  -0.00740   2.07054
   R10        2.07136  -0.00266   0.00000  -0.00778  -0.00778   2.06358
   R11        2.51643  -0.00327   0.00000  -0.00592  -0.00592   2.51051
   R12        2.04983  -0.00199   0.00000  -0.00560  -0.00560   2.04422
   R13        2.04983  -0.00199   0.00000  -0.00560  -0.00560   2.04422
    A1        1.84360  -0.00060   0.00000  -0.00133  -0.00134   1.84226
    A2        1.90779   0.00013   0.00000   0.00045   0.00045   1.90824
    A3        1.96770   0.00017   0.00000  -0.00083  -0.00083   1.96687
    A4        1.90779   0.00013   0.00000   0.00045   0.00045   1.90824
    A5        1.96770   0.00017   0.00000  -0.00083  -0.00083   1.96687
    A6        1.86874  -0.00000   0.00000   0.00212   0.00212   1.87086
    A7        1.79942   0.00024   0.00000   0.00144   0.00144   1.80086
    A8        1.95383  -0.00008   0.00000  -0.00079  -0.00079   1.95303
    A9        1.96166  -0.00009   0.00000  -0.00024  -0.00024   1.96142
   A10        1.92913  -0.00017   0.00000  -0.00165  -0.00165   1.92748
   A11        1.97201  -0.00017   0.00000  -0.00227  -0.00227   1.96975
   A12        1.85054   0.00025   0.00000   0.00325   0.00325   1.85379
   A13        1.79942   0.00024   0.00000   0.00144   0.00144   1.80086
   A14        1.95383  -0.00008   0.00000  -0.00079  -0.00079   1.95303
   A15        1.96166  -0.00009   0.00000  -0.00024  -0.00024   1.96142
   A16        1.92913  -0.00017   0.00000  -0.00165  -0.00165   1.92748
   A17        1.97201  -0.00017   0.00000  -0.00227  -0.00227   1.96975
   A18        1.85054   0.00025   0.00000   0.00325   0.00325   1.85379
   A19        1.95816   0.00006   0.00000  -0.00049  -0.00049   1.95767
   A20        2.13862   0.00050   0.00000   0.00354   0.00354   2.14216
   A21        2.18570  -0.00056   0.00000  -0.00305  -0.00305   2.18265
   A22        1.95816   0.00006   0.00000  -0.00049  -0.00049   1.95767
   A23        2.13862   0.00050   0.00000   0.00354   0.00354   2.14216
   A24        2.18570  -0.00056   0.00000  -0.00305  -0.00305   2.18265
    D1       -0.32251   0.00004   0.00000   0.00143   0.00143  -0.32107
    D2        1.75120  -0.00007   0.00000  -0.00006  -0.00006   1.75114
    D3       -2.45139   0.00014   0.00000   0.00338   0.00338  -2.44801
    D4        1.72836  -0.00007   0.00000   0.00145   0.00145   1.72981
    D5       -2.48112  -0.00017   0.00000  -0.00004  -0.00004  -2.48117
    D6       -0.40053   0.00003   0.00000   0.00340   0.00340  -0.39712
    D7       -2.47867   0.00013   0.00000   0.00389   0.00389  -2.47478
    D8       -0.40497   0.00002   0.00000   0.00239   0.00239  -0.40257
    D9        1.67563   0.00023   0.00000   0.00584   0.00584   1.68147
   D10        0.32251  -0.00004   0.00000  -0.00143  -0.00143   0.32107
   D11       -1.75120   0.00007   0.00000   0.00006   0.00006  -1.75114
   D12        2.45139  -0.00014   0.00000  -0.00338  -0.00338   2.44801
   D13       -1.72836   0.00007   0.00000  -0.00145  -0.00145  -1.72981
   D14        2.48112   0.00017   0.00000   0.00004   0.00004   2.48117
   D15        0.40053  -0.00003   0.00000  -0.00340  -0.00340   0.39712
   D16        2.47867  -0.00013   0.00000  -0.00389  -0.00389   2.47478
   D17        0.40497  -0.00002   0.00000  -0.00239  -0.00239   0.40257
   D18       -1.67563  -0.00023   0.00000  -0.00584  -0.00584  -1.68147
   D19        0.20839   0.00007   0.00000  -0.00076  -0.00076   0.20763
   D20       -2.97136   0.00001   0.00000  -0.00090  -0.00090  -2.97226
   D21       -1.88242   0.00011   0.00000   0.00015   0.00015  -1.88226
   D22        1.22102   0.00005   0.00000   0.00002   0.00002   1.22104
   D23        2.33029   0.00002   0.00000  -0.00134  -0.00134   2.32895
   D24       -0.84946  -0.00004   0.00000  -0.00148  -0.00148  -0.85094
   D25       -0.20839  -0.00007   0.00000   0.00076   0.00076  -0.20763
   D26        2.97136  -0.00001   0.00000   0.00090   0.00090   2.97226
   D27        1.88242  -0.00011   0.00000  -0.00015  -0.00015   1.88226
   D28       -1.22102  -0.00005   0.00000  -0.00002  -0.00002  -1.22104
   D29       -2.33029  -0.00002   0.00000   0.00134   0.00134  -2.32895
   D30        0.84946   0.00004   0.00000   0.00148   0.00148   0.85094
   D31        0.00000   0.00000   0.00000   0.00000   0.00000   0.00000
   D32        3.10221  -0.00003   0.00000   0.00004   0.00004   3.10224
   D33       -3.10221   0.00003   0.00000  -0.00004  -0.00004  -3.10224
   D34       -0.00000   0.00000   0.00000   0.00000   0.00000   0.00000
         Item               Value     Threshold  Converged?
 Maximum Force            0.003271     0.000450     NO 
 RMS     Force            0.001012     0.000300     NO 
 Maximum Displacement     0.014387     0.001800     NO 
 RMS     Displacement     0.004579     0.001200     NO 
 Predicted change in Energy=-1.076552D-04
 GradGradGradGradGradGradGradGradGradGradGradGradGradGradGradGradGradGrad

                          Input orientation:                          
 ---------------------------------------------------------------------
 Center     Atomic      Atomic             Coordinates (Angstroms)
 Number     Number       Type             X           Y           Z
 ---------------------------------------------------------------------
      1          6           0        0.248182   -1.208680    0.000000
      2          6           0       -0.063394   -0.325134    1.233258
      3          6           0       -0.063394   -0.325134   -1.233258
      4          6           0       -0.064546    1.071529    0.664253
      5          6           0       -0.064546    1.071529   -0.664253
      6          1           0        1.307565   -1.468054    0.000000
      7          1           0       -0.311924   -2.142706    0.000000
      8          1           0       -1.040519   -0.561527    1.668991
      9          1           0       -1.040519   -0.561527   -1.668991
     10          1           0       -0.100109    1.956320    1.285602
     11          1           0       -0.100109    1.956320   -1.285602
     12          1           0        0.667357   -0.456328   -2.034041
     13          1           0        0.667357   -0.456328    2.034041
 ---------------------------------------------------------------------
                    Distance matrix (angstroms):
                    1          2          3          4          5
     1  C    0.000000
     2  C    1.548760   0.000000
     3  C    1.548760   2.466516   0.000000
     4  C    2.395492   1.508123   2.356101   0.000000
     5  C    2.395492   2.356101   1.508123   1.328505   0.000000
     6  H    1.090672   2.169497   2.169497   2.961993   2.961993
     7  H    1.089093   2.210489   2.210489   3.291464   3.291464
     8  H    2.205695   1.095683   3.071434   2.151487   3.010552
     9  H    2.205695   3.071434   1.095683   3.010552   2.151487
    10  H    3.433847   2.282349   3.398681   1.081755   2.141507
    11  H    3.433847   3.398681   2.282349   2.141507   1.081755
    12  H    2.208860   3.350589   1.091999   3.186035   2.178612
    13  H    2.208860   1.091999   3.350589   2.178612   3.186035
                    6          7          8          9         10
     6  H    0.000000
     7  H    1.754394   0.000000
     8  H    3.020070   2.411744   0.000000
     9  H    3.020070   2.411744   3.337982   0.000000
    10  H    3.919267   4.301123   2.714943   3.994189   0.000000
    11  H    3.919267   4.301123   3.994189   2.714943   2.571204
    12  H    2.360249   2.817833   4.079258   1.749619   4.174914
    13  H    2.360249   2.817833   1.749619   4.079258   2.640083
                   11         12         13
    11  H    0.000000
    12  H    2.640083   0.000000
    13  H    4.174914   4.068081   0.000000
 Stoichiometry    C5H8
 Framework group  CS[SG(CH2),X(C4H6)]
 Deg. of freedom    18
 Full point group                 CS      NOp   2
 Largest Abelian subgroup         CS      NOp   2
 Largest concise Abelian subgroup CS      NOp   2
                         Standard orientation:                         
 ---------------------------------------------------------------------
 Center     Atomic      Atomic             Coordinates (Angstroms)
 Number     Number       Type             X           Y           Z
 ---------------------------------------------------------------------
      1          6           0        0.247109   -1.208117    0.000000
      2          6           0       -0.063738   -0.324314    1.233258
      3          6           0       -0.063738   -0.324314   -1.233258
      4          6           0       -0.063738    1.072350    0.664253
      5          6           0       -0.063738    1.072350   -0.664253
      6          1           0        1.306277   -1.468365    0.000000
      7          1           0       -0.313768   -2.141681    0.000000
      8          1           0       -1.041058   -0.559901    1.668991
      9          1           0       -1.041058   -0.559901   -1.668991
     10          1           0       -0.098571    1.957170    1.285602
     11          1           0       -0.098571    1.957170   -1.285602
     12          1           0        0.666904   -0.456111   -2.034041
     13          1           0        0.666904   -0.456111    2.034041
 ---------------------------------------------------------------------
 Rotational constants (GHZ):           7.3233554           7.2568377           3.9445181
 Basis read from rwf:  (5D, 7F)
 There are   161 symmetry adapted cartesian basis functions of A'  symmetry.
 There are   134 symmetry adapted cartesian basis functions of A"  symmetry.
 There are   142 symmetry adapted basis functions of A'  symmetry.
 There are   120 symmetry adapted basis functions of A"  symmetry.
   262 basis functions,   399 primitive gaussians,   295 cartesian basis functions
    19 alpha electrons       19 beta electrons
       nuclear repulsion energy       171.4337203579 Hartrees.
 NAtoms=   13 NActive=   13 NUniq=    8 SFac= 2.64D+00 NAtFMM=   60 NAOKFM=F Big=F
 Integral buffers will be    131072 words long.
 Raffenetti 2 integral format.
 Two-electron integral symmetry is turned on.
 One-electron integrals computed using PRISM.
 NBasis=   262 RedAO= T EigKep=  1.24D-04  NBF=   142   120
 NBsUse=   262 1.00D-06 EigRej= -1.00D+00 NBFU=   142   120
 Initial guess from the checkpoint file:  "/wrk/irikura/Gau-1290.chk"
 B after Tr=    -0.000000    0.000000   -0.000000
         Rot=    1.000000    0.000000   -0.000000    0.000338 Ang=   0.04 deg.
 Initial guess orbital symmetries:
       Occupied  (A') (A") (A') (A') (A") (A') (A') (A") (A') (A")
                 (A') (A') (A") (A') (A') (A") (A') (A") (A')
       Virtual   (A") (A') (A') (A') (A") (A') (A") (A") (A') (A')
                 (A") (A') (A") (A') (A") (A') (A') (A') (A") (A')
                 (A") (A') (A") (A') (A') (A") (A") (A') (A') (A")
                 (A') (A") (A') (A") (A') (A') (A") (A') (A") (A')
                 (A") (A") (A") (A') (A') (A') (A") (A') (A") (A')
                 (A') (A") (A') (A') (A") (A") (A') (A") (A') (A')
                 (A") (A') (A') (A") (A') (A") (A') (A") (A') (A")
                 (A') (A') (A") (A') (A") (A') (A") (A') (A') (A')
                 (A") (A") (A") (A') (A") (A") (A') (A") (A') (A')
                 (A") (A') (A') (A") (A') (A') (A") (A") (A") (A')
                 (A") (A') (A') (A") (A') (A") (A') (A") (A') (A')
                 (A") (A') (A") (A") (A') (A') (A") (A') (A') (A")
                 (A') (A") (A") (A') (A') (A') (A") (A') (A") (A')
                 (A") (A') (A") (A') (A') (A') (A") (A') (A") (A")
                 (A') (A') (A") (A') (A") (A") (A') (A') (A") (A')
                 (A") (A') (A') (A') (A") (A") (A") (A") (A') (A')
                 (A") (A') (A") (A') (A") (A') (A") (A') (A') (A")
                 (A') (A") (A") (A') (A') (A") (A') (A") (A") (A')
                 (A') (A") (A') (A") (A') (A") (A') (A') (A") (A')
                 (A") (A") (A') (A") (A') (A") (A') (A") (A') (A")
                 (A') (A") (A") (A") (A') (A") (A') (A") (A') (A")
                 (A') (A") (A') (A") (A') (A") (A') (A') (A") (A')
                 (A") (A') (A') (A") (A') (A") (A') (A') (A') (A")
                 (A') (A") (A") (A') (A") (A") (A') (A") (A') (A')
                 (A") (A') (A")
 Keep R1 ints in memory in symmetry-blocked form, NReq=890399573.
 Requested convergence on RMS density matrix=1.00D-08 within 128 cycles.
 Requested convergence on MAX density matrix=1.00D-06.
 Requested convergence on             energy=1.00D-06.
 No special actions if energy rises.
 SCF Done:  E(RB3LYP) =  -195.405136893     A.U. after    7 cycles
            NFock=  7  Conv=0.55D-08     -V/T= 2.0044
 Calling FoFJK, ICntrl=      2127 FMM=F ISym2X=1 I1Cent= 0 IOpClX= 0 NMat=1 NMatS=1 NMatT=0.
 ***** Axes restored to original set *****
 -------------------------------------------------------------------
 Center     Atomic                   Forces (Hartrees/Bohr)
 Number     Number              X              Y              Z
 -------------------------------------------------------------------
      1        6           0.000167138   -0.000117633    0.000000000
      2        6          -0.000071409   -0.000155470    0.000427157
      3        6          -0.000071409   -0.000155470   -0.000427157
      4        6           0.000003791    0.000014276    0.000565145
      5        6           0.000003791    0.000014276   -0.000565145
      6        1          -0.000062147   -0.000014668    0.000000000
      7        1          -0.000015123    0.000060636   -0.000000000
      8        1           0.000040216    0.000022444   -0.000044106
      9        1           0.000040216    0.000022444    0.000044106
     10        1          -0.000006153    0.000128418   -0.000071106
     11        1          -0.000006153    0.000128418    0.000071106
     12        1          -0.000011381    0.000026163    0.000029900
     13        1          -0.000011381    0.000026163   -0.000029900
 -------------------------------------------------------------------
 Cartesian Forces:  Max     0.000565145 RMS     0.000172995

 GradGradGradGradGradGradGradGradGradGradGradGradGradGradGradGradGradGrad
 Berny optimization.
 Using GEDIIS/GDIIS optimizer.
 FormGI is forming the generalized inverse of G from B-inverse, IUseBI=4.
 Internal  Forces:  Max     0.000553656 RMS     0.000096367
 Search for a local minimum.
 Step number   2 out of a maximum of   81
 All quantities printed in internal units (Hartrees-Bohrs-Radians)
 Mixed Optimization -- En-DIIS/RFO-DIIS
 Update second derivatives using D2CorX and points    1    2
 DE= -1.05D-04 DEPred=-1.08D-04 R= 9.78D-01
 TightC=F SS=  1.41D+00  RLast= 2.91D-02 DXNew= 5.0454D-01 8.7276D-02
 Trust test= 9.78D-01 RLast= 2.91D-02 DXMaxT set to 3.00D-01
 ITU=  1  0
 Use linear search instead of GDIIS.
     Eigenvalues ---    0.00350   0.00985   0.01246   0.01820   0.03338
     Eigenvalues ---    0.03403   0.04847   0.05186   0.05797   0.05871
     Eigenvalues ---    0.07079   0.07548   0.08134   0.08155   0.09537
     Eigenvalues ---    0.11120   0.15696   0.15978   0.21622   0.21634
     Eigenvalues ---    0.26749   0.27085   0.29780   0.31515   0.33104
     Eigenvalues ---    0.33727   0.33971   0.34115   0.34249   0.34445
     Eigenvalues ---    0.35430   0.35621   0.58011
 RFO step:  Lambda=-1.99256060D-06 EMin= 3.49958530D-03
 Quartic linear search produced a step of -0.02381.
 Iteration  1 RMS(Cart)=  0.00071250 RMS(Int)=  0.00000034
 Iteration  2 RMS(Cart)=  0.00000034 RMS(Int)=  0.00000009
 ClnCor:  largest displacement from symmetrization is 5.80D-09 for atom    11.
 Variable       Old X    -DE/DX   Delta X   Delta X   Delta X     New X
                                 (Linear)    (Quad)   (Total)
    R1        2.92673   0.00026   0.00015   0.00066   0.00081   2.92754
    R2        2.92673   0.00026   0.00015   0.00066   0.00081   2.92754
    R3        2.06107  -0.00006   0.00017  -0.00040  -0.00023   2.06084
    R4        2.05809  -0.00004   0.00017  -0.00036  -0.00019   2.05790
    R5        2.84994   0.00015   0.00013   0.00032   0.00046   2.85040
    R6        2.07054  -0.00006   0.00018  -0.00041  -0.00024   2.07030
    R7        2.06358  -0.00003   0.00019  -0.00035  -0.00017   2.06341
    R8        2.84994   0.00015   0.00013   0.00032   0.00046   2.85040
    R9        2.07054  -0.00006   0.00018  -0.00041  -0.00024   2.07030
   R10        2.06358  -0.00003   0.00019  -0.00035  -0.00017   2.06341
   R11        2.51051   0.00055   0.00014   0.00075   0.00090   2.51141
   R12        2.04422   0.00006   0.00013  -0.00001   0.00013   2.04435
   R13        2.04422   0.00006   0.00013  -0.00001   0.00013   2.04435
    A1        1.84226   0.00016   0.00003   0.00069   0.00072   1.84299
    A2        1.90824  -0.00003  -0.00001   0.00020   0.00019   1.90843
    A3        1.96687  -0.00007   0.00002  -0.00054  -0.00052   1.96635
    A4        1.90824  -0.00003  -0.00001   0.00020   0.00019   1.90843
    A5        1.96687  -0.00007   0.00002  -0.00054  -0.00052   1.96635
    A6        1.87086   0.00003  -0.00005   0.00002  -0.00003   1.87083
    A7        1.80086  -0.00009  -0.00003  -0.00040  -0.00043   1.80043
    A8        1.95303   0.00001   0.00002  -0.00006  -0.00004   1.95299
    A9        1.96142   0.00004   0.00001   0.00027   0.00028   1.96170
   A10        1.92748   0.00002   0.00004  -0.00017  -0.00013   1.92734
   A11        1.96975   0.00002   0.00005  -0.00007  -0.00001   1.96973
   A12        1.85379  -0.00000  -0.00008   0.00040   0.00032   1.85411
   A13        1.80086  -0.00009  -0.00003  -0.00040  -0.00043   1.80043
   A14        1.95303   0.00001   0.00002  -0.00006  -0.00004   1.95299
   A15        1.96142   0.00004   0.00001   0.00027   0.00028   1.96170
   A16        1.92748   0.00002   0.00004  -0.00017  -0.00013   1.92734
   A17        1.96975   0.00002   0.00005  -0.00007  -0.00001   1.96973
   A18        1.85379  -0.00000  -0.00008   0.00040   0.00032   1.85411
   A19        1.95767   0.00001   0.00001   0.00024   0.00025   1.95792
   A20        2.14216   0.00013  -0.00008   0.00081   0.00073   2.14289
   A21        2.18265  -0.00014   0.00007  -0.00105  -0.00098   2.18168
   A22        1.95767   0.00001   0.00001   0.00024   0.00025   1.95792
   A23        2.14216   0.00013  -0.00008   0.00081   0.00073   2.14289
   A24        2.18265  -0.00014   0.00007  -0.00105  -0.00098   2.18168
    D1       -0.32107  -0.00001  -0.00003   0.00087   0.00084  -0.32023
    D2        1.75114  -0.00003   0.00000   0.00041   0.00041   1.75154
    D3       -2.44801   0.00000  -0.00008   0.00106   0.00098  -2.44703
    D4        1.72981   0.00003  -0.00003   0.00158   0.00155   1.73136
    D5       -2.48117   0.00000   0.00000   0.00112   0.00112  -2.48005
    D6       -0.39712   0.00004  -0.00008   0.00177   0.00169  -0.39543
    D7       -2.47478   0.00000  -0.00009   0.00140   0.00131  -2.47348
    D8       -0.40257  -0.00002  -0.00006   0.00093   0.00088  -0.40170
    D9        1.68147   0.00001  -0.00014   0.00159   0.00145   1.68292
   D10        0.32107   0.00001   0.00003  -0.00087  -0.00084   0.32023
   D11       -1.75114   0.00003  -0.00000  -0.00041  -0.00041  -1.75154
   D12        2.44801  -0.00000   0.00008  -0.00106  -0.00098   2.44703
   D13       -1.72981  -0.00003   0.00003  -0.00158  -0.00155  -1.73136
   D14        2.48117  -0.00000  -0.00000  -0.00112  -0.00112   2.48005
   D15        0.39712  -0.00004   0.00008  -0.00177  -0.00169   0.39543
   D16        2.47478  -0.00000   0.00009  -0.00140  -0.00131   2.47348
   D17        0.40257   0.00002   0.00006  -0.00093  -0.00088   0.40170
   D18       -1.68147  -0.00001   0.00014  -0.00159  -0.00145  -1.68292
   D19        0.20763  -0.00002   0.00002  -0.00063  -0.00061   0.20702
   D20       -2.97226  -0.00002   0.00002  -0.00062  -0.00059  -2.97285
   D21       -1.88226   0.00001  -0.00000  -0.00025  -0.00026  -1.88252
   D22        1.22104   0.00001  -0.00000  -0.00024  -0.00024   1.22080
   D23        2.32895  -0.00001   0.00003  -0.00059  -0.00056   2.32839
   D24       -0.85094  -0.00001   0.00004  -0.00058  -0.00054  -0.85148
   D25       -0.20763   0.00002  -0.00002   0.00063   0.00061  -0.20702
   D26        2.97226   0.00002  -0.00002   0.00062   0.00059   2.97285
   D27        1.88226  -0.00001   0.00000   0.00025   0.00026   1.88252
   D28       -1.22104  -0.00001   0.00000   0.00024   0.00024  -1.22080
   D29       -2.32895   0.00001  -0.00003   0.00059   0.00056  -2.32839
   D30        0.85094   0.00001  -0.00004   0.00058   0.00054   0.85148
   D31        0.00000   0.00000   0.00000   0.00000   0.00000   0.00000
   D32        3.10224   0.00001  -0.00000   0.00006   0.00006   3.10231
   D33       -3.10224  -0.00001   0.00000  -0.00006  -0.00006  -3.10231
   D34       -0.00000   0.00000   0.00000   0.00000   0.00000   0.00000
         Item               Value     Threshold  Converged?
 Maximum Force            0.000554     0.000450     NO 
 RMS     Force            0.000096     0.000300     YES
 Maximum Displacement     0.002305     0.001800     NO 
 RMS     Displacement     0.000712     0.001200     YES
 Predicted change in Energy=-1.055287D-06
 GradGradGradGradGradGradGradGradGradGradGradGradGradGradGradGradGradGrad

                          Input orientation:                          
 ---------------------------------------------------------------------
 Center     Atomic      Atomic             Coordinates (Angstroms)
 Number     Number       Type             X           Y           Z
 ---------------------------------------------------------------------
      1          6           0        0.248086   -1.208786    0.000000
      2          6           0       -0.063065   -0.325287    1.233939
      3          6           0       -0.063065   -0.325287   -1.233939
      4          6           0       -0.064784    1.071455    0.664490
      5          6           0       -0.064784    1.071455   -0.664490
      6          1           0        1.307071   -1.469274    0.000000
      7          1           0       -0.312945   -2.142139    0.000000
      8          1           0       -1.039951   -0.561712    1.669876
      9          1           0       -1.039951   -0.561712   -1.669876
     10          1           0       -0.100678    1.956896    1.285009
     11          1           0       -0.100678    1.956896   -1.285009
     12          1           0        0.668071   -0.456114   -2.034310
     13          1           0        0.668071   -0.456114    2.034310
 ---------------------------------------------------------------------
                    Distance matrix (angstroms):
                    1          2          3          4          5
     1  C    0.000000
     2  C    1.549190   0.000000
     3  C    1.549190   2.467877   0.000000
     4  C    2.395607   1.508365   2.356888   0.000000
     5  C    2.395607   2.356888   1.508365   1.328979   0.000000
     6  H    1.090552   2.169927   2.169927   2.962910   2.962910
     7  H    1.088992   2.210429   2.210429   3.290945   3.290945
     8  H    2.205953   1.095557   3.072839   2.151508   3.011220
     9  H    2.205953   3.072839   1.095557   3.011220   2.151508
    10  H    3.434301   2.283064   3.399246   1.081822   2.141457
    11  H    3.434301   3.399246   2.283064   2.141457   1.081822
    12  H    2.209371   3.351585   1.091911   3.186544   2.178750
    13  H    2.209371   1.091911   3.351585   2.178750   3.186544
                    6          7          8          9         10
     6  H    0.000000
     7  H    1.754194   0.000000
     8  H    3.020044   2.411384   0.000000
     9  H    3.020044   2.411384   3.339752   0.000000
    10  H    3.920669   4.300976   2.715463   3.994617   0.000000
    11  H    3.920669   4.300976   3.994617   2.715463   2.570018
    12  H    2.360769   2.818419   4.080377   1.749657   4.175101
    13  H    2.360769   2.818419   1.749657   4.080377   2.641030
                   11         12         13
    11  H    0.000000
    12  H    2.641030   0.000000
    13  H    4.175101   4.068619   0.000000
 Stoichiometry    C5H8
 Framework group  CS[SG(CH2),X(C4H6)]
 Deg. of freedom    18
 Full point group                 CS      NOp   2
 Largest Abelian subgroup         CS      NOp   2
 Largest concise Abelian subgroup CS      NOp   2
                         Standard orientation:                         
 ---------------------------------------------------------------------
 Center     Atomic      Atomic             Coordinates (Angstroms)
 Number     Number       Type             X           Y           Z
 ---------------------------------------------------------------------
      1          6           0        0.246511   -1.208249   -0.000000
      2          6           0       -0.063552   -0.324368    1.233939
      3          6           0       -0.063552   -0.324368   -1.233939
      4          6           0       -0.063552    1.072376    0.664490
      5          6           0       -0.063552    1.072376   -0.664490
      6          1           0        1.305174   -1.470040   -0.000000
      7          1           0       -0.315668   -2.140911   -0.000000
      8          1           0       -1.040728   -0.559590    1.669876
      9          1           0       -1.040728   -0.559590   -1.669876
     10          1           0       -0.098356    1.957860    1.285009
     11          1           0       -0.098356    1.957860   -1.285009
     12          1           0        0.667422   -0.456094   -2.034310
     13          1           0        0.667422   -0.456094    2.034310
 ---------------------------------------------------------------------
 Rotational constants (GHZ):           7.3227211           7.2516827           3.9425982
 Basis read from rwf:  (5D, 7F)
 There are   161 symmetry adapted cartesian basis functions of A'  symmetry.
 There are   134 symmetry adapted cartesian basis functions of A"  symmetry.
 There are   142 symmetry adapted basis functions of A'  symmetry.
 There are   120 symmetry adapted basis functions of A"  symmetry.
   262 basis functions,   399 primitive gaussians,   295 cartesian basis functions
    19 alpha electrons       19 beta electrons
       nuclear repulsion energy       171.4024422741 Hartrees.
 NAtoms=   13 NActive=   13 NUniq=    8 SFac= 2.64D+00 NAtFMM=   60 NAOKFM=F Big=F
 Integral buffers will be    131072 words long.
 Raffenetti 2 integral format.
 Two-electron integral symmetry is turned on.
 One-electron integrals computed using PRISM.
 NBasis=   262 RedAO= T EigKep=  1.25D-04  NBF=   142   120
 NBsUse=   262 1.00D-06 EigRej= -1.00D+00 NBFU=   142   120
 Initial guess from the checkpoint file:  "/wrk/irikura/Gau-1290.chk"
 B after Tr=     0.000000   -0.000000   -0.000000
         Rot=    1.000000   -0.000000   -0.000000    0.000169 Ang=   0.02 deg.
 Initial guess orbital symmetries:
       Occupied  (A') (A") (A') (A') (A") (A') (A') (A") (A') (A")
                 (A') (A') (A") (A') (A') (A") (A') (A") (A')
       Virtual   (A") (A') (A') (A') (A") (A') (A") (A") (A') (A')
                 (A") (A') (A") (A') (A") (A') (A') (A') (A") (A')
                 (A") (A') (A") (A') (A') (A") (A') (A") (A') (A")
                 (A') (A") (A') (A") (A') (A') (A") (A') (A") (A')
                 (A") (A") (A") (A') (A') (A') (A") (A') (A") (A')
                 (A') (A") (A') (A') (A") (A") (A') (A") (A') (A')
                 (A") (A') (A') (A") (A') (A") (A') (A") (A') (A")
                 (A') (A') (A') (A") (A") (A') (A") (A') (A') (A')
                 (A") (A") (A") (A') (A") (A") (A') (A") (A') (A')
                 (A") (A') (A') (A") (A') (A') (A") (A") (A") (A')
                 (A") (A') (A') (A") (A') (A") (A') (A") (A') (A')
                 (A") (A') (A") (A") (A') (A') (A") (A') (A') (A")
                 (A') (A") (A") (A') (A') (A') (A") (A') (A") (A')
                 (A") (A') (A") (A') (A') (A') (A") (A') (A") (A")
                 (A') (A') (A") (A') (A") (A") (A') (A') (A") (A')
                 (A") (A') (A') (A') (A") (A") (A") (A") (A') (A')
                 (A") (A') (A") (A') (A") (A') (A") (A') (A') (A")
                 (A') (A") (A") (A') (A') (A") (A') (A") (A") (A')
                 (A') (A") (A') (A") (A') (A") (A') (A') (A") (A')
                 (A") (A") (A') (A') (A") (A") (A') (A") (A') (A")
                 (A') (A") (A") (A") (A') (A") (A') (A") (A') (A")
                 (A') (A") (A') (A") (A') (A") (A') (A') (A") (A')
                 (A") (A') (A") (A') (A') (A") (A') (A') (A') (A")
                 (A") (A') (A") (A') (A") (A") (A') (A") (A') (A')
                 (A") (A') (A")
 Keep R1 ints in memory in symmetry-blocked form, NReq=890399573.
 Requested convergence on RMS density matrix=1.00D-08 within 128 cycles.
 Requested convergence on MAX density matrix=1.00D-06.
 Requested convergence on             energy=1.00D-06.
 No special actions if energy rises.
 SCF Done:  E(RB3LYP) =  -195.405138140     A.U. after    6 cycles
[...]
 ! A4    A(3,1,6)              109.3622         -DE/DX =    0.0                 !
 ! A5    A(3,1,7)              112.6397         -DE/DX =    0.0                 !
 ! A6    A(6,1,7)              107.1908         -DE/DX =    0.0                 !
 ! A7    A(1,2,4)              103.1689         -DE/DX =    0.0                 !
 ! A8    A(1,2,8)              111.8984         -DE/DX =    0.0                 !
 ! A9    A(1,2,13)             112.377          -DE/DX =    0.0                 !
 ! A10   A(4,2,8)              110.4434         -DE/DX =    0.0                 !
 ! A11   A(4,2,13)             112.8403         -DE/DX =    0.0                 !
 ! A12   A(8,2,13)             106.2428         -DE/DX =    0.0                 !
 ! A13   A(1,3,5)              103.1689         -DE/DX =    0.0                 !
 ! A14   A(1,3,9)              111.8984         -DE/DX =    0.0                 !
 ! A15   A(1,3,12)             112.377          -DE/DX =    0.0                 !
 ! A16   A(5,3,9)              110.4434         -DE/DX =    0.0                 !
 ! A17   A(5,3,12)             112.8403         -DE/DX =    0.0                 !
 ! A18   A(9,3,12)             106.2428         -DE/DX =    0.0                 !
 ! A19   A(2,4,5)              112.1918         -DE/DX =    0.0                 !
 ! A20   A(2,4,10)             122.8074         -DE/DX =    0.0                 !
 ! A21   A(5,4,10)             124.9614         -DE/DX =    0.0                 !
 ! A22   A(3,5,4)              112.1918         -DE/DX =    0.0                 !
 ! A23   A(3,5,11)             122.8074         -DE/DX =    0.0                 !
 ! A24   A(4,5,11)             124.9614         -DE/DX =    0.0                 !
 ! D1    D(3,1,2,4)            -18.1981         -DE/DX =    0.0                 !
 ! D2    D(3,1,2,8)            100.5304         -DE/DX =    0.0                 !
 ! D3    D(3,1,2,13)          -140.0306         -DE/DX =    0.0                 !
 ! D4    D(6,1,2,4)             99.3864         -DE/DX =    0.0                 !
 ! D5    D(6,1,2,8)           -141.8851         -DE/DX =    0.0                 !
 ! D6    D(6,1,2,13)           -22.4461         -DE/DX =    0.0                 !
 ! D7    D(7,1,2,4)           -141.5361         -DE/DX =    0.0                 !
 ! D8    D(7,1,2,8)            -22.8076         -DE/DX =    0.0                 !
 ! D9    D(7,1,2,13)            96.6314         -DE/DX =    0.0                 !
 ! D10   D(2,1,3,5)             18.1981         -DE/DX =    0.0                 !
 ! D11   D(2,1,3,9)           -100.5304         -DE/DX =    0.0                 !
 ! D12   D(2,1,3,12)           140.0306         -DE/DX =    0.0                 !
 ! D13   D(6,1,3,5)            -99.3864         -DE/DX =    0.0                 !
 ! D14   D(6,1,3,9)            141.8851         -DE/DX =    0.0                 !
 ! D15   D(6,1,3,12)            22.4461         -DE/DX =    0.0                 !
 ! D16   D(7,1,3,5)            141.5361         -DE/DX =    0.0                 !
 ! D17   D(7,1,3,9)             22.8076         -DE/DX =    0.0                 !
 ! D18   D(7,1,3,12)           -96.6314         -DE/DX =    0.0                 !
 ! D19   D(1,2,4,5)             11.7651         -DE/DX =    0.0                 !
 ! D20   D(1,2,4,10)          -170.4178         -DE/DX =    0.0                 !
 ! D21   D(8,2,4,5)           -107.9704         -DE/DX =    0.0                 !
 ! D22   D(8,2,4,10)            69.8467         -DE/DX =    0.0                 !
 ! D23   D(13,2,4,5)           133.2849         -DE/DX =    0.0                 !
 ! D24   D(13,2,4,10)          -48.8981         -DE/DX =    0.0                 !
 ! D25   D(1,3,5,4)            -11.7651         -DE/DX =    0.0                 !
 ! D26   D(1,3,5,11)           170.4178         -DE/DX =    0.0                 !
 ! D27   D(9,3,5,4)            107.9704         -DE/DX =    0.0                 !
 ! D28   D(9,3,5,11)           -69.8467         -DE/DX =    0.0                 !
 ! D29   D(12,3,5,4)          -133.2849         -DE/DX =    0.0                 !
 ! D30   D(12,3,5,11)           48.8981         -DE/DX =    0.0                 !
 ! D31   D(2,4,5,3)              0.0            -DE/DX =    0.0                 !
 ! D32   D(2,4,5,11)           177.7612         -DE/DX =    0.0                 !
 ! D33   D(10,4,5,3)          -177.7612         -DE/DX =    0.0                 !
 ! D34   D(10,4,5,11)            0.0            -DE/DX =    0.0                 !
 --------------------------------------------------------------------------------
 GradGradGradGradGradGradGradGradGradGradGradGradGradGradGradGradGradGrad


 ----------------------------------------------------------------------

 Electric dipole moment (input orientation):
 (Debye = 10**-18 statcoulomb cm , SI units = C m)
                  (au)            (Debye)         (10**-30 SI)
   Tot        0.959864D-01      0.243973D+00      0.813806D+00
   x         -0.229892D-01     -0.584328D-01     -0.194911D+00
   y         -0.931927D-01     -0.236872D+00     -0.790121D+00
   z          0.000000D+00      0.000000D+00      0.000000D+00

 Dipole polarizability, Alpha (input orientation).
 (esu units = cm**3 , SI units = C**2 m**2 J**-1)
 Alpha(0;0):
               (au)            (10**-24 esu)      (10**-40 SI)
   iso        0.572624D+02      0.848541D+01      0.944129D+01
   aniso      0.194552D+02      0.288296D+01      0.320773D+01
   xx         0.453683D+02      0.672289D+01      0.748023D+01
   yx        -0.784151D+00     -0.116199D+00     -0.129289D+00
   yy         0.587990D+02      0.871311D+01      0.969465D+01
   zx         0.000000D+00      0.000000D+00      0.000000D+00
   zy         0.000000D+00      0.000000D+00      0.000000D+00
   zz         0.676198D+02      0.100202D+02      0.111490D+02

 ----------------------------------------------------------------------

 Dipole orientation:
     6          0.97272983         -0.23995786          2.10595155
     6          0.58961352          2.25653412          0.62521665
     6         -0.52747412         -2.27186298          0.62521665
     6         -0.28594924          1.36393784         -1.93642154
     6         -0.88746868         -1.07447324         -1.93642154
     1          2.97357161         -0.73353552          2.10631549
     1          0.38168110         -0.09415500          4.07180390
     1         -0.84848201          3.46077078          1.50137241
     1         -2.36063645         -2.66912938          1.50137241
     1         -0.45903957          2.61340628         -3.54530398
     1         -1.62179009         -2.10009681         -3.54530398
     1          0.47148651         -4.07499389          0.53365174
     1          2.31254804          3.38821432          0.53365174

 Electric dipole moment (dipole orientation):
 (Debye = 10**-18 statcoulomb cm , SI units = C m)
                  (au)            (Debye)         (10**-30 SI)
   Tot        0.959864D-01      0.243973D+00      0.813806D+00
   x          0.000000D+00      0.000000D+00      0.000000D+00
   y          0.000000D+00      0.000000D+00      0.000000D+00
   z          0.959864D-01      0.243973D+00      0.813806D+00

 Dipole polarizability, Alpha (dipole orientation).
 (esu units = cm**3 , SI units = C**2 m**2 J**-1)
 Alpha(0;0):
               (au)            (10**-24 esu)      (10**-40 SI)
   iso        0.572624D+02      0.848541D+01      0.944129D+01
   aniso      0.194552D+02      0.288296D+01      0.320773D+01
   xx         0.477147D+02      0.707059D+01      0.786710D+01
   yx         0.491029D+01      0.727629D+00      0.809597D+00
   yy         0.664085D+02      0.984073D+01      0.109493D+02
   zx         0.370618D+01      0.549200D+00      0.611067D+00
   zy        -0.914260D+00     -0.135479D+00     -0.150741D+00
   zz         0.576639D+02      0.854491D+01      0.950749D+01

 ----------------------------------------------------------------------
 1\1\GINC-GAMBA\Freq\RB3LYP\Gen\C5H8\IRIKURA\16-Jun-2022\0\\#N Geom=All
 Check Guess=TCheck SCRF=Check GenChk RB3LYP/ChkBas Freq\\cyclopentene,
  B3LYP/pcseg-2\\0,1\C,0.2478366414,-1.2089666385,0.\C,-0.0627990319,-0
 .325276868,1.2340800881\C,-0.0627990319,-0.325276868,-1.2340800881\C,-
 0.0650495476,1.0714750688,0.6645164948\C,-0.0650495476,1.0714750688,-0
 .6645164948\H,1.306590387,-1.4703436657,0.\H,-0.3140864226,-2.14181794
 57,0.\H,-1.0393811994,-0.5619091327,1.6705221691\H,-1.0393811994,-0.56
 19091327,-1.6705221691\H,-0.1012294329,1.9573063187,1.2845252282\H,-0.
 1012294329,1.9573063187,-1.2845252282\H,0.6689884127,-0.4558912593,-2.
 0338756622\H,0.6689884127,-0.4558912593,2.0338756622\\Version=ES64L-G1
 6RevB.01\State=1-A'\HF=-195.4051383\RMSD=8.190e-10\RMSF=1.359e-05\Zero
 Point=0.1164081\Thermal=0.1210662\Dipole=-0.0229892,-0.0931927,0.\Dipo
 leDeriv=0.1453786,0.0130494,0.,0.0391472,0.1196425,0.,0.,0.,-0.0156274
 ,0.223955,0.0065147,0.0474057,0.0107561,-0.0059004,-0.0083922,0.015683
 ,-0.0231675,0.0548042,0.223955,0.0065147,-0.0474057,0.0107561,-0.00590
 04,0.0083923,-0.015683,0.0231675,0.0548043,-0.2491785,0.0023948,-0.058
 6926,-0.0113581,0.0793827,-0.0577337,-0.0165615,-0.0877982,0.0298215,-
 0.2491785,0.0023948,0.0586926,-0.0113581,0.0793827,0.0577337,0.0165615
 ,0.0877982,0.0298214,-0.1452089,0.0875493,0.,0.0308582,0.0210362,0.,0.
 ,0.,0.0201792,0.0123463,-0.1108267,0.,-0.056748,-0.1436902,0.,0.,0.,0.
 0373617,-0.1130805,-0.0477368,0.1238373,-0.0280382,-0.0019154,0.077209
 6,0.0659216,0.0125768,-0.0182753,-0.1130805,-0.0477368,-0.1238373,-0.0
 280382,-0.0019154,-0.0772096,-0.0659216,-0.0125768,-0.0182753,0.155831
 8,0.0113544,0.0107852,0.010382,-0.0954361,-0.0818947,0.0052908,-0.0617
 128,0.0096743,0.1558318,0.0113544,-0.0107852,0.010382,-0.0954361,0.081
 8946,-0.0052908,0.0617128,0.0096743,-0.0237858,0.0325869,0.1381537,0.0
 116294,0.0253748,-0.0451145,0.0759808,-0.021169,-0.0969815,-0.0237858,
 0.0325869,-0.1381537,0.0116294,0.0253749,0.0451145,-0.0759808,0.021169
 ,-0.0969815\Polar=45.3683305,-0.784151,58.7990119,0.0000001,0.,67.6198
 18\Quadrupole=-0.7608481,0.1246047,0.6362434,-0.0206474,0.,0.\PG=CS [S
 G(C1H2),X(C4H6)]\NImag=0\\0.57857905,0.03000386,0.56347329,0.,0.,0.377
 31486,-0.08335610,0.01122325,0.01192793,0.55121390,0.01119388,-0.09713
 444,-0.03867016,0.00991163,0.41202255,0.01592462,-0.03609811,-0.123004
 65,0.02390628,-0.04898480,0.54157175,-0.08335610,0.01122325,-0.0119279
 3,-0.00456959,-0.00518337,0.00433658,0.55121390,0.01119388,-0.09713444
 ,0.03867016,-0.00518337,0.00672770,-0.00333692,0.00991163,0.41202255,-
 0.01592462,0.03609811,-0.12300465,-0.00433658,0.00333692,-0.03459435,-
 0.02390628,0.04898480,0.54157175,0.00075695,0.00629322,-0.00160593,-0.
 07151780,0.00099854,-0.00066128,0.00891858,-0.00163225,-0.00238630,0.1
 4394198,-0.00064007,-0.03585768,-0.01240394,0.00160266,-0.17389683,0.0
 3053548,-0.00005775,-0.01125413,-0.03275645,-0.01120061,0.58612823,-0.
 00026738,-0.02088801,0.00344532,-0.00105496,0.04227811,-0.09627607,-0.
 00038101,-0.02260091,-0.02683954,-0.00814505,0.10593877,0.82780642,0.0
 0075695,0.00629322,0.00160594,0.00891858,-0.00163225,0.00238630,-0.071
 51780,0.00099854,0.00066128,-0.05695223,0.00364826,-0.00210901,0.14394
 198,-0.00064007,-0.03585768,0.01240394,-0.00005775,-0.01125413,0.03275
 645,0.00160266,-0.17389683,-0.03053548,0.00364826,-0.10427585,-0.00348
 590,-0.01120061,0.58612823,0.00026738,0.02088801,0.00344532,0.00038101
 ,0.02260091,-0.02683954,0.00105496,-0.04227811,-0.09627607,0.00210901,
 0.00348590,-0.52978201,0.00814505,-0.10593877,0.82780642,-0.29444126,0
 .05710276,0.,-0.00542837,0.00032882,0.00095076,-0.00542837,0.00032882,
 -0.00095076,0.00018387,0.00005417,0.00016667,0.00018387,0.00005417,-0.
 00016667,0.31643031,0.05556408,-0.06387063,0.,0.01758311,-0.00378264,-
 0.00095479,0.01758311,-0.00378264,0.00095479,-0.00023186,0.00003696,-0
 .00105838,-0.00023186,0.00003696,0.00105838,-0.06330738,0.06461133,0.,
 0.,-0.04274233,0.02655684,-0.00726954,-0.00375103,-0.02655684,0.007269
 54,-0.00375103,0.00049032,0.00042802,-0.00133242,-0.00049032,-0.000428
 02,-0.00133242,0.,0.,0.05581334,-0.12280887,-0.12099207,0.,0.00321550,
 0.00794680,0.00058793,0.00321550,0.00794680,-0.00058793,0.00014841,0.0
 0176234,0.00103154,0.00014841,0.00176235,-0.00103154,-0.01702419,-0.02
 760110,0.,0.12988510,-0.11767131,-0.23627943,0.,-0.00817250,-0.0117224
 9,0.00111124,-0.00817250,-0.01172249,-0.00111124,0.00030826,-0.0019485
 7,-0.00197679,0.00030826,-0.00194857,0.00197679,0.00334512,0.00756662,
 0.,0.12823446,0.25652011,0.,0.,-0.04613958,-0.01326731,-0.02173962,0.0
 0058763,0.01326731,0.02173962,0.00058763,0.00044322,-0.00185531,-0.004
 07395,-0.00044322,0.00185530,-0.00407395,0.,0.,0.00004405,0.,0.,0.0507
 5683,-0.00449239,0.00043307,0.00095852,-0.24520624,-0.04604495,0.08368
 583,-0.00031615,0.00045856,0.00088533,0.00369045,-0.00233854,0.0005114
 0,0.00085304,-0.00039607,-0.00150213,0.00110834,0.00070962,0.00134665,
 0.00132892,0.00045597,-0.00008290,0.26632473,0.01864393,0.00201605,-0.
 00717638,-0.05052294,-0.05583021,0.02026974,-0.00044170,-0.00032213,-0
 .00030578,-0.02790596,-0.00781002,0.01563475,0.00016451,-0.00376199,-0
 .00046053,0.00117027,-0.00149321,-0.00392765,0.00005420,0.00128507,0.0
 0088281,0.05288818,0.06362256,0.02113664,0.00409535,-0.00724813,0.0840
 5679,0.01731403,-0.08241255,0.00167270,0.00014841,-0.00110872,0.009468
 94,0.00614939,-0.00696891,0.00031255,0.00156078,0.00048423,0.00084514,
 -0.00170868,-0.00300423,-0.00043551,0.00037504,0.00166884,-0.09409161,
 -0.02296242,0.09056520,-0.00449239,0.00043307,-0.00095852,-0.00031615,
 0.00045856,-0.00088533,-0.24520624,-0.04604495,-0.08368583,0.00085304,
 -0.00039607,0.00150213,0.00369045,-0.00233854,-0.00051140,0.00110834,0
 .00070962,-0.00134665,0.00132892,0.00045597,0.00008290,-0.00027104,-0.
 00015085,-0.00024267,0.26632473,0.01864393,0.00201605,0.00717638,-0.00
 044170,-0.00032213,0.00030578,-0.05052294,-0.05583021,-0.02026974,0.00
 016451,-0.00376199,0.00046053,-0.02790596,-0.00781002,-0.01563475,0.00
 117027,-0.00149321,0.00392765,0.00005420,0.00128507,-0.00088281,-0.000
 15085,0.00003275,-0.00002876,0.05288818,0.06362256,-0.02113664,-0.0040
 9535,-0.00724814,-0.00167270,-0.00014841,-0.00110872,-0.08405679,-0.01
 731403,-0.08241255,-0.00031255,-0.00156078,0.00048423,-0.00946894,-0.0
 0614939,-0.00696891,-0.00084514,0.00170868,-0.00300423,0.00043551,-0.0
 0037504,0.00166884,0.00024267,0.00002876,0.00007451,0.09409161,0.02296
 242,0.09056520,0.00190705,0.00035163,-0.00005516,0.00120814,0.00014787
 ,-0.00025711,0.01149455,0.00057578,-0.00036067,-0.03762927,0.00774381,
 0.00645587,0.00506399,-0.00043460,-0.00036021,-0.00017617,-0.00018411,
 -0.00031641,0.00007704,0.00022897,0.00029835,-0.00018638,0.00067026,0.
 00004600,-0.00023056,0.00248466,0.00117696,0.02429697,-0.00089951,-0.0
 0329956,0.00155317,0.00143268,-0.01108418,-0.01633966,0.00070534,-0.00
 012713,0.00140550,0.00736489,-0.24561832,-0.13310551,0.00002336,0.0048
 3690,0.00419745,0.00015771,-0.00032394,-0.00027846,0.00047136,-0.00068
 799,-0.00099803,-0.00065642,-0.00010079,0.00027855,-0.00008237,0.00022
 413,-0.00011530,-0.00876004,0.25504304,0.00020127,0.00325561,-0.001613
 12,-0.00102155,0.01051461,0.01024825,0.00040952,0.00089417,-0.00438829
 ,0.00592777,-0.12832723,-0.14792119,0.00088253,-0.02821960,-0.01027913
 ,-0.00000003,0.00006786,0.00019180,-0.00019402,0.00036112,0.00073825,0
 .00045042,-0.00055554,0.00002562,0.00001515,-0.00057827,-0.00030885,-0
 .00616698,0.14390990,0.15250966,0.00190705,0.00035163,0.00005516,0.011
 49455,0.00057578,0.00036067,0.00120814,0.00014787,0.00025711,0.0050639
 9,-0.00043460,0.00036021,-0.03762927,0.00774381,-0.00645587,-0.0001761
 7,-0.00018411,0.00031641,0.00007704,0.00022897,-0.00029835,-0.00023056
 ,0.00248466,-0.00117696,-0.00018638,0.00067026,-0.00004600,-0.00584665
 ,-0.00018083,-0.00006835,0.02429697,-0.00089951,-0.00329956,-0.0015531
 7,0.00070534,-0.00012713,-0.00140550,0.00143268,-0.01108418,0.01633966
 ,0.00002336,0.00483690,-0.00419745,0.00736489,-0.24561832,0.13310551,0
 .00015771,-0.00032394,0.00027846,0.00047136,-0.00068800,0.00099803,-0.
 00008237,0.00022413,0.00011530,-0.00065642,-0.00010079,-0.00027855,-0.
 00018083,0.00047725,0.00075085,-0.00876004,0.25504304,-0.00020127,-0.0
 0325561,-0.00161312,-0.00040952,-0.00089417,-0.00438829,0.00102155,-0.
 01051461,0.01024825,-0.00088253,0.02821960,-0.01027913,-0.00592777,0.1
 2832723,-0.14792119,0.00000003,-0.00006786,0.00019180,0.00019402,-0.00
 036111,0.00073825,-0.00001515,0.00057827,-0.00030885,-0.00045042,0.000
 55554,0.00002562,0.00006835,-0.00075085,0.00101370,0.00616698,-0.14390
 990,0.15250966,0.00452004,-0.00135844,-0.00762488,0.00042123,0.0008368
 2,-0.00217130,-0.16607766,0.02046186,0.12816395,0.00039342,0.00051062,
 -0.00017959,0.00214860,-0.00025422,-0.00210918,0.00182990,-0.00020456,
 -0.00026176,0.00020410,0.00022517,0.00011810,-0.00006227,-0.00030670,-
 0.00052092,-0.02254045,0.00325213,0.02107110,-0.00008260,-0.00012300,-
 0.00013732,0.00010390,0.00054684,0.00029842,0.17916252,-0.01224655,0.0
 0261402,0.01449474,0.00144295,-0.00282060,0.00117425,0.02047664,-0.050
 77547,-0.02096682,-0.00013897,-0.00505350,-0.00106940,0.02230860,-0.00
 152521,-0.02407018,-0.00028121,0.00140916,-0.00079291,-0.00005535,-0.0
 0082966,0.00102834,-0.00003140,0.00069077,0.00017226,-0.00524480,0.001
 44701,0.00550926,-0.00215359,0.00010791,-0.00107188,-0.00048981,0.0005
 5268,0.00100160,-0.02346746,0.05378546,0.01350067,-0.00347167,-0.01579
 589,0.00053051,0.00208031,-0.00240530,0.12559674,-0.01958183,-0.177627
 12,0.00064000,-0.00082004,0.00012065,0.00508562,-0.00296658,-0.0083834
 1,-0.00027691,-0.00047658,0.00133835,-0.00016297,0.00065378,-0.0012514
 2,0.00001463,-0.00029205,-0.00080724,-0.00759635,0.00171397,0.00904024
 ,-0.00071978,-0.00023225,-0.00044094,-0.00019080,-0.00047550,0.0002242
 3,-0.13653399,0.02422959,0.19653664,0.00452004,-0.00135844,0.00762488,
 -0.16607766,0.02046186,-0.12816395,0.00042123,0.00083682,0.00217130,0.
 00214860,-0.00025422,0.00210918,0.00039342,0.00051062,0.00017959,0.001
 82990,-0.00020456,0.00026176,0.00020410,0.00022517,-0.00011810,-0.0225
 4045,0.00325213,-0.02107110,-0.00006227,-0.00030670,0.00052092,0.00010
 390,0.00054684,-0.00029842,-0.00008260,-0.00012300,0.00013732,-0.00002
 074,-0.00011906,0.00011264,0.17916252,-0.01224655,0.00261402,-0.014494
 74,0.02047664,-0.05077547,0.02096682,0.00144295,-0.00282060,-0.0011742
 5,0.02230860,-0.00152521,0.02407018,-0.00013897,-0.00505350,0.00106940
 ,-0.00028121,0.00140916,0.00079291,-0.00005535,-0.00082966,-0.00102834
 ,-0.00524480,0.00144701,-0.00550926,-0.00003140,0.00069077,-0.00017226
 ,-0.00048981,0.00055268,-0.00100160,-0.00215359,0.00010791,0.00107188,
 -0.00011906,0.00039743,-0.00036114,-0.02346746,0.05378546,-0.01350067,
 0.00347167,-0.01579589,-0.12559674,0.01958183,-0.17762712,-0.00053051,
 -0.00208031,-0.00240530,-0.00508562,0.00296658,-0.00838341,-0.00064000
 ,0.00082004,0.00012065,0.00027691,0.00047658,0.00133835,0.00016297,-0.
 00065378,-0.00125142,0.00759635,-0.00171397,0.00904024,-0.00001463,0.0
 0029205,-0.00080724,0.00019080,0.00047550,0.00022423,0.00071978,0.0002
 3225,-0.00044094,-0.00011264,0.00036114,-0.00054879,0.13653399,-0.0242
 2959,0.19653664\\-0.00002004,-0.00001002,0.,0.00002402,-0.00003249,0.0
 0001907,0.00002402,-0.00003249,-0.00001907,-0.00000687,0.00002805,0.00
 001419,-0.00000687,0.00002805,-0.00001419,-0.00000091,0.00000898,0.,0.
 00000823,0.00000015,0.,-0.00000157,0.00000417,-0.00000840,-0.00000157,
 0.00000417,0.00000840,0.00000201,0.00000014,0.00000390,0.00000201,0.00
 000014,-0.00000390,-0.00001123,0.00000058,0.00000246,-0.00001123,0.000
 00058,-0.00000246\\\@


 FESTINA LENTE!
     - IMPERATOR AUGUSTUS 
 Job cpu time:       0 days  0 hours 30 minutes 37.7 seconds.
 Elapsed time:       0 days  0 hours  2 minutes 33.4 seconds.
 File lengths (MBytes):  RWF=     54 Int=      0 D2E=      0 Chk=      7 Scr=      1
 Normal termination of Gaussian 16 at Thu Jun 16 12:31:48 2022.
