 Entering Gaussian System, Link 0=g16
 AtFile(1): pcseg2.gbs
            -H     0
            S   4   1.00
                  0.754732D+02           0.427821D-02
                  0.113575D+02           0.328672D-01
                  0.260081D+01           0.159578D+00
                  0.735503D+00           0.500000D+00
            S   1   1.00
                  0.231761D+00           1.0000000
            S   1   1.00
                  0.741675D-01           1.0000000
            P   1   1.00
                  0.160000D+01           1.0000000
            P   1   1.00
                  0.450000D+00           1.0000000
            D   1   1.00
                  0.125000D+01           1.0000000
            ****
            -C     0
            S   7   1.00
                  0.731999D+04           0.695369D-03
                  0.109818D+04           0.537138D-02
                  0.250014D+03           0.274734D-01
                  0.707586D+02           0.105078D+00
                  0.228595D+02           0.291262D+00
                  0.803936D+01           0.500000D+00
                  0.289309D+01           0.362224D+00
            S   2   1.00
                  0.521640D+01          -0.957844D-01
                  0.556124D+00           0.500000D+00
            S   1   1.00
                  0.228813D+00           1.0000000
            S   1   1.00
                  0.936338D-01           1.0000000
            P   4   1.00
                  0.339855D+02           0.818395D-02
                  0.772957D+01           0.586921D-01
                  0.224954D+01           0.222514D+00
                  0.767681D+00           0.500000D+00
            P   1   1.00
                  0.263283D+00           1.0000000
            P   1   1.00
                  0.848744D-01           1.0000000
            D   1   1.00
                  0.140000D+01           1.0000000
            D   1   1.00
                  0.450000D+00           1.0000000
            F   1   1.00
                  0.950000D+00           1.0000000
            ****
            -O     0
            S   7   1.00
                  0.135887D+05           0.665492D-03
                  0.203847D+04           0.514222D-02
                  0.464041D+03           0.263472D-01
                  0.131339D+03           0.101500D+00
                  0.425340D+02           0.285877D+00
                  0.150429D+02           0.500000D+00
                  0.546616D+01           0.368211D+00
            S   2   1.00
                  0.100915D+02          -0.100084D+00
                  0.110429D+01           0.500000D+00
            S   1   1.00
                  0.448082D+00           1.0000000
            S   1   1.00
                  0.175325D+00           1.0000000
            P   4   1.00
                  0.608220D+02           0.908253D-02
                  0.140332D+02           0.645878D-01
                  0.418244D+01           0.241502D+00
                  0.142490D+01           0.500000D+00
            P   1   1.00
                  0.478741D+00           1.0000000
            P   1   1.00
                  0.146257D+00           1.0000000
            D   1   1.00
                  0.220000D+01           1.0000000
            D   1   1.00
                  0.650000D+00           1.0000000
            F   1   1.00
                  0.110000D+01           1.0000000
            ****
            -N     0
            S   7   1.00
                  0.101643D+05           0.682757D-03
                  0.152481D+04           0.527488D-02
                  0.347119D+03           0.270037D-01
                  0.982389D+02           0.103673D+00
                  0.317799D+02           0.289575D+00
                  0.112240D+02           0.500000D+00
                  0.406611D+01           0.364621D+00
            S   2   1.00
                  0.747898D+01          -0.975681D-01
                  0.805040D+00           0.500000D+00
            S   1   1.00
                  0.324626D+00           1.0000000
            S   1   1.00
                  0.128132D+00           1.0000000
            P   4   1.00
                  0.482704D+02           0.829547D-02
                  0.110815D+02           0.596223D-01
                  0.326643D+01           0.227889D+00
                  0.111680D+01           0.500000D+00
            P   1   1.00
                  0.382049D+00           1.0000000
            P   1   1.00
                  0.121222D+00           1.0000000
            D   1   1.00
                  0.180000D+01           1.0000000
            D   1   1.00
                  0.550000D+00           1.0000000
            F   1   1.00
                  0.102000D+01           1.0000000
            ****
            -F     0
            S   7   1.00
                  0.174507D+05           0.655972D-03
                  0.261768D+04           0.506944D-02
                  0.595857D+03           0.259899D-01
                  0.168651D+03           0.100353D+00
                  0.546654D+02           0.284095D+00
                  0.193717D+02           0.500000D+00
                  0.706202D+01           0.370721D+00
            S   2   1.00
                  0.131197D+02          -0.101997D+00
                  0.145046D+01           0.500000D+00
            S   1   1.00
                  0.588255D+00           1.0000000
            S   1   1.00
                  0.227960D+00           1.0000000
            P   4   1.00
                  0.779407D+02           0.931135D-02
                  0.180425D+02           0.663964D-01
                  0.542342D+01           0.246386D+00
                  0.184876D+01           0.500000D+00
            P   1   1.00
                  0.617455D+00           1.0000000
            P   1   1.00
                  0.185496D+00           1.0000000
            D   1   1.00
                  0.280000D+01           1.0000000
            D   1   1.00
                  0.800000D+00           1.0000000
            F   1   1.00
                  0.120000D+01           1.0000000
            ****
            -Cl     0
            S   8   1.00
                  0.154272D+06           0.222473D-03
                  0.231232D+05           0.172590D-02
                  0.526257D+04           0.899286D-02
                  0.148995D+04           0.367724D-01
                  0.485417D+03           0.121446D+00
                  0.174634D+03           0.304148D+00
                  0.672393D+02           0.500000D+00
                  0.265780D+02           0.360252D+00
            S   3   1.00
                  0.131826D+03          -0.531330D-01
                  0.400703D+02          -0.233346D+00
                  0.789448D+01           0.500000D+00
            S   2   1.00
                  0.427711D+01           0.500000D+00
                  0.196233D+01           0.370517D+00
            S   1   1.00
                  0.520793D+00           1.0000000
            S   1   1.00
                  0.181633D+00           1.0000000
            P   7   1.00
                  0.124440D+04           0.988206D-03
                  0.295109D+03           0.829674D-02
                  0.947224D+02           0.430906D-01
                  0.352588D+02           0.148443D+00
                  0.144211D+02           0.344744D+00
                  0.610371D+01           0.500000D+00
                  0.258886D+01           0.348278D+00
            P   2   1.00
                  0.109447D+02          -0.196768D-01
                  0.104413D+01           0.500000D+00
            P   1   1.00
                  0.376184D+00           1.0000000
            P   1   1.00
                  0.120613D+00           1.0000000
            D   1   1.00
                  0.231000D+01           1.0000000
            D   1   1.00
                  0.520000D+00           1.0000000
            F   1   1.00
                  0.720000D+00           1.0000000
            ****
            -S     0
            S   8   1.00
                  0.134700D+06           0.226231D-03
                  0.201904D+05           0.175488D-02
                  0.459528D+04           0.914190D-02
                  0.130109D+04           0.373551D-01
                  0.423902D+03           0.123121D+00
                  0.152485D+03           0.306801D+00
                  0.586925D+02           0.500000D+00
                  0.231461D+02           0.354358D+00
            S   3   1.00
                  0.116327D+03          -0.491772D-01
                  0.352841D+02          -0.215962D+00
                  0.677831D+01           0.500000D+00
            S   2   1.00
                  0.360404D+01           0.500000D+00
                  0.164871D+01           0.366278D+00
            S   1   1.00
                  0.421821D+00           1.0000000
            S   1   1.00
                  0.147554D+00           1.0000000
            P   7   1.00
                  0.104863D+04           0.105273D-02
                  0.248717D+03           0.879338D-02
                  0.797887D+02           0.453358D-01
                  0.296023D+02           0.154476D+00
                  0.120627D+02           0.352366D+00
                  0.507628D+01           0.500000D+00
                  0.213375D+01           0.346429D+00
            P   2   1.00
                  0.928958D+01          -0.185932D-01
                  0.837819D+00           0.500000D+00
            P   1   1.00
                  0.301495D+00           1.0000000
            P   1   1.00
                  0.974740D-01           1.0000000
            D   1   1.00
                  0.210000D+01           1.0000000
            D   1   1.00
                  0.480000D+00           1.0000000
            F   1   1.00
                  0.660000D+00           1.0000000
            ****
            -Br     0
            S    10   1.00
                  0.233625D+07           0.532336D-04
                  0.349961D+06           0.413715D-03
                  0.796444D+05           0.217123D-02
                  0.225555D+05           0.910109D-02
                  0.735546D+04           0.323789D-01
                  0.265352D+04           0.988755D-01
                  0.103517D+04           0.248138D+00
                  0.422205D+03           0.474328D+00
                  0.180035D+03           0.500000D+00
                  0.793308D+02           0.187769D+00
            S    4   1.00
                  0.620834D+03          -0.226511D-01
                  0.190829D+03          -0.109497D+00
                  0.312505D+02           0.500000D+00
                  0.135270D+02           0.492812D+00
            S    2   1.00
                  0.216097D+02          -0.165418D+00
                  0.372566D+01           0.500000D+00
            S    1   1.00
                  0.169770D+01           1.0000000
            S    1   1.00
                  0.489332D+00           1.0000000
            S    1   1.00
                  0.175712D+00           1.0000000
            P    8   1.00
                  0.960829D+04           0.478974D-03
                  0.227618D+04           0.417853D-02
                  0.736723D+03           0.229315D-01
                  0.281579D+03           0.892653D-01
                  0.118395D+03           0.255288D+00
                  0.527481D+02           0.479074D+00
                  0.245098D+02           0.500000D+00
                  0.112009D+02           0.200944D+00
            P    4   1.00
                  0.587849D+02          -0.189674D-01
                  0.918962D+01           0.264104D+00
                  0.413895D+01           0.500000D+00
                  0.184225D+01           0.319316D+00
            P    1   1.00
                  0.713862D+00           1.0000000
            P    1   1.00
                  0.274232D+00           1.0000000
            P    1   1.00
                  0.944411D-01           1.0000000
            D    7   1.00
                  0.398470D+03           0.204066D-02
                  0.118967D+03           0.175171D-01
                  0.450197D+02           0.829708D-01
                  0.190320D+02           0.236284D+00
                  0.855686D+01           0.428468D+00
                  0.382950D+01           0.500000D+00
                  0.166291D+01           0.349360D+00
            D    1   1.00
                  0.672953D+00           1.0000000
            D    1   1.00
                  0.252000D+00           1.0000000
            F    1   1.00
                  0.530000D+00           1.0000000
            ****
            -Si     0
            S    8   1.00
                  0.996133D+05           0.235546D-03
                  0.149311D+05           0.182707D-02
                  0.339820D+04           0.951425D-02
                  0.962140D+03           0.388172D-01
                  0.313430D+03           0.127328D+00
                  0.112683D+03           0.313522D+00
                  0.433372D+02           0.500000D+00
                  0.170029D+02           0.340347D+00
            S    3   1.00
                  0.884208D+02          -0.404451D-01
                  0.266756D+02          -0.178059D+00
                  0.479640D+01           0.500000D+00
            S    2   1.00
                  0.239385D+01           0.500000D+00
                  0.108333D+01           0.338016D+00
            S    1   1.00
                  0.252420D+00           1.0000000
            S    1   1.00
                  0.891210D-01           1.0000000
            P    7   1.00
                  0.709901D+03           0.123028D-02
                  0.168426D+03           0.101366D-01
                  0.539946D+02           0.511840D-01
                  0.198646D+02           0.169967D+00
                  0.801369D+01           0.370717D+00
                  0.331870D+01           0.500000D+00
                  0.136112D+01           0.344128D+00
            P    2   1.00
                  0.622158D+01          -0.166609D-01
                  0.503049D+00           0.500000D+00
            P    1   1.00
                  0.179848D+00           1.0000000
            P    1   1.00
                  0.591912D-01           1.0000000
            D    1   1.00
                  0.168000D+01           1.0000000
            D    1   1.00
                  0.380000D+00           1.0000000
            F    1   1.00
                  0.540000D+00           1.0000000
            ****
            -P     0
            S    8   1.00
                  0.116416D+06           0.230715D-03
                  0.174500D+05           0.178960D-02
                  0.397149D+04           0.932116D-02
                  0.112447D+04           0.380591D-01
                  0.366347D+03           0.125148D+00
                  0.131757D+03           0.310022D+00
                  0.506988D+02           0.500000D+00
                  0.199436D+02           0.347528D+00
            S    3   1.00
                  0.101878D+03          -0.446755D-01
                  0.308249D+02          -0.196376D+00
                  0.573688D+01           0.500000D+00
            S    2   1.00
                  0.296868D+01           0.500000D+00
                  0.135315D+01           0.355098D+00
            S    1   1.00
                  0.332196D+00           1.0000000
            S    1   1.00
                  0.116229D+00           1.0000000
            P    7   1.00
                  0.873928D+03           0.112375D-02
                  0.207298D+03           0.933330D-02
                  0.664628D+02           0.477213D-01
                  0.245665D+02           0.160733D+00
                  0.996820D+01           0.359760D+00
                  0.416536D+01           0.500000D+00
                  0.173022D+01           0.346593D+00
            P    2   1.00
                  0.772530D+01          -0.175718D-01
                  0.657252D+00           0.500000D+00
            P    1   1.00
                  0.239903D+00           1.0000000
            P    1   1.00
                  0.800988D-01           1.0000000
            D    1   1.00
                  0.189000D+01           1.0000000
            D    1   1.00
                  0.430000D+00           1.0000000
            F    1   1.00
                  0.600000D+00           1.0000000
            ****
            
 Initial command:
 /usr/local/apps/g16_b01_avx/g16/l1.exe "/wrk/irikura/Gau-30286.inp" -scrdir="/wrk/irikura/"
 Entering Link 1 = /usr/local/apps/g16_b01_avx/g16/l1.exe PID=     30288.
  
 Copyright (c) 1988-2017, Gaussian, Inc.  All Rights Reserved.
  
 This is part of the Gaussian(R) 16 program.  It is based on
 the Gaussian(R) 09 system (copyright 2009, Gaussian, Inc.),
 the Gaussian(R) 03 system (copyright 2003, Gaussian, Inc.),
 the Gaussian(R) 98 system (copyright 1998, Gaussian, Inc.),
 the Gaussian(R) 94 system (copyright 1995, Gaussian, Inc.),
 the Gaussian 92(TM) system (copyright 1992, Gaussian, Inc.),
 the Gaussian 90(TM) system (copyright 1990, Gaussian, Inc.),
 the Gaussian 88(TM) system (copyright 1988, Gaussian, Inc.),
 the Gaussian 86(TM) system (copyright 1986, Carnegie Mellon
 University), and the Gaussian 82(TM) system (copyright 1983,
 Carnegie Mellon University). Gaussian is a federally registered
 trademark of Gaussian, Inc.
  
 This software contains proprietary and confidential information,
 including trade secrets, belonging to Gaussian, Inc.
  
 This software is provided under written license and may be
 used, copied, transmitted, or stored only in accord with that
 written license.
  
 The following legend is applicable only to US Government
 contracts under FAR:
  
                    RESTRICTED RIGHTS LEGEND
  
 Use, reproduction and disclosure by the US Government is
 subject to restrictions as set forth in subparagraphs (a)
 and (c) of the Commercial Computer Software - Restricted
 Rights clause in FAR 52.227-19.
  
 Gaussian, Inc.
 340 Quinnipiac St., Bldg. 40, Wallingford CT 06492
  
  
 ---------------------------------------------------------------
 Warning -- This program may not be used in any manner that
 competes with the business of Gaussian, Inc. or will provide
 assistance to any competitor of Gaussian, Inc.  The licensee
 of this program is prohibited from giving any competitor of
 Gaussian, Inc. access to this program.  By using this program,
 the user acknowledges that Gaussian, Inc. is engaged in the
 business of creating and licensing software in the field of
 computational chemistry and represents and warrants to the
 licensee that it is not a competitor of Gaussian, Inc. and that
 it will not use this program in any manner prohibited above.
 ---------------------------------------------------------------
  

 Cite this work as:
 Gaussian 16, Revision B.01,
 M. J. Frisch, G. W. Trucks, H. B. Schlegel, G. E. Scuseria, 
 M. A. Robb, J. R. Cheeseman, G. Scalmani, V. Barone, 
 G. A. Petersson, H. Nakatsuji, X. Li, M. Caricato, A. V. Marenich, 
 J. Bloino, B. G. Janesko, R. Gomperts, B. Mennucci, H. P. Hratchian, 
 J. V. Ortiz, A. F. Izmaylov, J. L. Sonnenberg, D. Williams-Young, 
 F. Ding, F. Lipparini, F. Egidi, J. Goings, B. Peng, A. Petrone, 
 T. Henderson, D. Ranasinghe, V. G. Zakrzewski, J. Gao, N. Rega, 
 G. Zheng, W. Liang, M. Hada, M. Ehara, K. Toyota, R. Fukuda, 
 J. Hasegawa, M. Ishida, T. Nakajima, Y. Honda, O. Kitao, H. Nakai, 
 T. Vreven, K. Throssell, J. A. Montgomery, Jr., J. E. Peralta, 
 F. Ogliaro, M. J. Bearpark, J. J. Heyd, E. N. Brothers, K. N. Kudin, 
 V. N. Staroverov, T. A. Keith, R. Kobayashi, J. Normand, 
 K. Raghavachari, A. P. Rendell, J. C. Burant, S. S. Iyengar, 
 J. Tomasi, M. Cossi, J. M. Millam, M. Klene, C. Adamo, R. Cammi, 
 J. W. Ochterski, R. L. Martin, K. Morokuma, O. Farkas, 
 J. B. Foresman, and D. J. Fox, Gaussian, Inc., Wallingford CT, 2016.
 
 ******************************************
 Gaussian 16:  ES64L-G16RevB.01 20-Dec-2017
                16-Jun-2022 
 ******************************************
 %mem=1000mw
 %nprocs=12
 Will use up to   12 processors via shared memory.
 --------------------
 # b3lyp/gen opt freq
 --------------------
 1/18=20,19=15,26=3,38=1/1,3;
 2/9=110,12=2,17=6,18=5,40=1/2;
 3/5=7,11=2,25=1,30=1,71=1,74=-5/1,2,3;
 4//1;
 5/5=2,38=5/2;
 6/7=2,8=2,9=2,10=2,28=1/1;
 7//1,2,3,16;
 1/18=20,19=15,26=3/3(2);
 2/9=110/2;
 99//99;
 2/9=110/2;
 3/5=7,6=1,11=2,25=1,30=1,71=1,74=-5,82=7/1,2,3;
 4/5=5,16=3,69=1/1;
 5/5=2,38=5/2;
 7//1,2,3,16;
 1/18=20,19=15,26=3/3(-5);
 2/9=110/2;
 6/7=2,8=2,9=2,10=2,19=2,28=1/1;
 99/9=1/99;
 --------------------------
 cyclobutene, B3LYP/pcseg-2
 --------------------------
 Symbolic Z-matrix:
 Charge =  0 Multiplicity = 1
 C                     0.        0.66883   0.81462 
 C                     0.       -0.66883   0.81462 
 C                     0.        0.78605  -0.6994 
 C                     0.       -0.78605  -0.6994 
 H                     0.        1.41809   1.59836 
 H                     0.       -1.41809   1.59836 
 H                     0.88847   1.2463   -1.14486 
 H                    -0.88847  -1.2463   -1.14486 
 H                    -0.88847   1.2463   -1.14486 
 H                     0.88847  -1.2463   -1.14486 
 

 GradGradGradGradGradGradGradGradGradGradGradGradGradGradGradGradGradGrad
 Berny optimization.
 Initialization pass.
                           ----------------------------
                           !    Initial Parameters    !
                           ! (Angstroms and Degrees)  !
 --------------------------                            --------------------------
 ! Name  Definition              Value          Derivative Info.                !
 --------------------------------------------------------------------------------
 ! R1    R(1,2)                  1.3377         estimate D2E/DX2                !
 ! R2    R(1,3)                  1.5186         estimate D2E/DX2                !
 ! R3    R(1,5)                  1.0843         estimate D2E/DX2                !
 ! R4    R(2,4)                  1.5186         estimate D2E/DX2                !
 ! R5    R(2,6)                  1.0843         estimate D2E/DX2                !
 ! R6    R(3,4)                  1.5721         estimate D2E/DX2                !
 ! R7    R(3,7)                  1.0953         estimate D2E/DX2                !
 ! R8    R(3,9)                  1.0953         estimate D2E/DX2                !
 ! R9    R(4,8)                  1.0953         estimate D2E/DX2                !
 ! R10   R(4,10)                 1.0953         estimate D2E/DX2                !
 ! A1    A(2,1,3)               94.4272         estimate D2E/DX2                !
 ! A2    A(2,1,5)              133.7117         estimate D2E/DX2                !
 ! A3    A(3,1,5)              131.8611         estimate D2E/DX2                !
 ! A4    A(1,2,4)               94.4272         estimate D2E/DX2                !
 ! A5    A(1,2,6)              133.7117         estimate D2E/DX2                !
 ! A6    A(4,2,6)              131.8611         estimate D2E/DX2                !
 ! A7    A(1,3,4)               85.5728         estimate D2E/DX2                !
 ! A8    A(1,3,7)              115.9718         estimate D2E/DX2                !
 ! A9    A(1,3,9)              115.9718         estimate D2E/DX2                !
 ! A10   A(4,3,7)              114.8479         estimate D2E/DX2                !
 ! A11   A(4,3,9)              114.8479         estimate D2E/DX2                !
 ! A12   A(7,3,9)              108.4228         estimate D2E/DX2                !
 ! A13   A(2,4,3)               85.5728         estimate D2E/DX2                !
 ! A14   A(2,4,8)              115.9718         estimate D2E/DX2                !
 ! A15   A(2,4,10)             115.9718         estimate D2E/DX2                !
 ! A16   A(3,4,8)              114.8479         estimate D2E/DX2                !
 ! A17   A(3,4,10)             114.8479         estimate D2E/DX2                !
 ! A18   A(8,4,10)             108.4228         estimate D2E/DX2                !
 ! D1    D(3,1,2,4)              0.0            estimate D2E/DX2                !
 ! D2    D(3,1,2,6)            180.0            estimate D2E/DX2                !
 ! D3    D(5,1,2,4)            180.0            estimate D2E/DX2                !
 ! D4    D(5,1,2,6)              0.0            estimate D2E/DX2                !
 ! D5    D(2,1,3,4)              0.0            estimate D2E/DX2                !
 ! D6    D(2,1,3,7)           -115.5374         estimate D2E/DX2                !
 ! D7    D(2,1,3,9)            115.5374         estimate D2E/DX2                !
 ! D8    D(5,1,3,4)            180.0            estimate D2E/DX2                !
 ! D9    D(5,1,3,7)             64.4626         estimate D2E/DX2                !
 ! D10   D(5,1,3,9)            -64.4626         estimate D2E/DX2                !
 ! D11   D(1,2,4,3)              0.0            estimate D2E/DX2                !
 ! D12   D(1,2,4,8)           -115.5374         estimate D2E/DX2                !
 ! D13   D(1,2,4,10)           115.5374         estimate D2E/DX2                !
 ! D14   D(6,2,4,3)            180.0            estimate D2E/DX2                !
 ! D15   D(6,2,4,8)             64.4626         estimate D2E/DX2                !
 ! D16   D(6,2,4,10)           -64.4626         estimate D2E/DX2                !
 ! D17   D(1,3,4,2)              0.0            estimate D2E/DX2                !
 ! D18   D(1,3,4,8)            116.628          estimate D2E/DX2                !
 ! D19   D(1,3,4,10)          -116.628          estimate D2E/DX2                !
 ! D20   D(7,3,4,2)            116.628          estimate D2E/DX2                !
 ! D21   D(7,3,4,8)           -126.744          estimate D2E/DX2                !
 ! D22   D(7,3,4,10)             0.0            estimate D2E/DX2                !
 ! D23   D(9,3,4,2)           -116.628          estimate D2E/DX2                !
 ! D24   D(9,3,4,8)              0.0            estimate D2E/DX2                !
 ! D25   D(9,3,4,10)           126.744          estimate D2E/DX2                !
 --------------------------------------------------------------------------------
 Trust Radius=3.00D-01 FncErr=1.00D-07 GrdErr=1.00D-06 EigMax=2.50D+02 EigMin=1.00D-04
 Number of steps in this run=     63 maximum allowed number of steps=    100.
 GradGradGradGradGradGradGradGradGradGradGradGradGradGradGradGradGradGrad

                          Input orientation:                          
 ---------------------------------------------------------------------
 Center     Atomic      Atomic             Coordinates (Angstroms)
 Number     Number       Type             X           Y           Z
 ---------------------------------------------------------------------
      1          6           0        0.000000    0.668826    0.814624
      2          6           0        0.000000   -0.668826    0.814624
      3          6           0        0.000000    0.786046   -0.699399
      4          6           0        0.000000   -0.786046   -0.699399
      5          1           0        0.000000    1.418085    1.598358
      6          1           0        0.000000   -1.418085    1.598358
      7          1           0        0.888473    1.246297   -1.144856
      8          1           0       -0.888473   -1.246297   -1.144856
      9          1           0       -0.888473    1.246297   -1.144856
     10          1           0        0.888473   -1.246297   -1.144856
 ---------------------------------------------------------------------
                    Distance matrix (angstroms):
                    1          2          3          4          5
     1  C    0.000000
     2  C    1.337652   0.000000
     3  C    1.518554   2.099742   0.000000
     4  C    2.099742   1.518554   1.572092   0.000000
     5  H    1.084264   2.229223   2.383099   3.184004   0.000000
     6  H    2.229223   1.084264   3.184004   2.383099   2.836170
     7  H    2.227649   2.880389   1.095284   2.262351   2.888619
     8  H    2.880389   2.227649   2.262351   1.095284   3.926008
     9  H    2.227649   2.880389   1.095284   2.262351   2.888619
    10  H    2.880389   2.227649   2.262351   1.095284   3.926008
                    6          7          8          9         10
     6  H    0.000000
     7  H    3.926008   0.000000
     8  H    2.888619   3.061137   0.000000
     9  H    3.926008   1.776946   2.492594   0.000000
    10  H    2.888619   2.492594   1.776946   3.061137   0.000000
 Stoichiometry    C4H6
 Framework group  C2V[SGV(C4H2),X(H4)]
 Deg. of freedom     8
 Full point group                 C2V     NOp   4
 Largest Abelian subgroup         C2V     NOp   4
 Largest concise Abelian subgroup C2V     NOp   4
                         Standard orientation:                         
 ---------------------------------------------------------------------
 Center     Atomic      Atomic             Coordinates (Angstroms)
 Number     Number       Type             X           Y           Z
 ---------------------------------------------------------------------
      1          6           0        0.000000    0.668826    0.814624
      2          6           0       -0.000000   -0.668826    0.814624
      3          6           0        0.000000    0.786046   -0.699399
      4          6           0       -0.000000   -0.786046   -0.699399
      5          1           0        0.000000    1.418085    1.598358
      6          1           0       -0.000000   -1.418085    1.598358
      7          1           0        0.888473    1.246297   -1.144856
      8          1           0       -0.888473   -1.246297   -1.144856
      9          1           0       -0.888473    1.246297   -1.144856
     10          1           0        0.888473   -1.246297   -1.144856
 ---------------------------------------------------------------------
 Rotational constants (GHZ):          12.9378664          12.2524391           6.8345505
 General basis read from cards:  (5D, 7F)
 There are    74 symmetry adapted cartesian basis functions of A1  symmetry.
 There are    41 symmetry adapted cartesian basis functions of A2  symmetry.
 There are    41 symmetry adapted cartesian basis functions of B1  symmetry.
 There are    74 symmetry adapted cartesian basis functions of B2  symmetry.
 There are    64 symmetry adapted basis functions of A1  symmetry.
 There are    38 symmetry adapted basis functions of A2  symmetry.
 There are    38 symmetry adapted basis functions of B1  symmetry.
 There are    64 symmetry adapted basis functions of B2  symmetry.
   204 basis functions,   312 primitive gaussians,   230 cartesian basis functions
    15 alpha electrons       15 beta electrons
       nuclear repulsion energy       113.1033453009 Hartrees.
 NAtoms=   10 NActive=   10 NUniq=    4 SFac= 4.00D+00 NAtFMM=   60 NAOKFM=F Big=F
 Integral buffers will be    131072 words long.
 Raffenetti 2 integral format.
 Two-electron integral symmetry is turned on.
 One-electron integrals computed using PRISM.
 NBasis=   204 RedAO= T EigKep=  7.78D-05  NBF=    64    38    38    64
 NBsUse=   204 1.00D-06 EigRej= -1.00D+00 NBFU=    64    38    38    64
 ExpMin= 7.42D-02 ExpMax= 7.32D+03 ExpMxC= 2.50D+02 IAcc=3 IRadAn=         5 AccDes= 0.00D+00
 Harris functional with IExCor=  402 and IRadAn=       5 diagonalized for initial guess.
 HarFok:  IExCor=  402 AccDes= 0.00D+00 IRadAn=         5 IDoV= 1 UseB2=F ITyADJ=14
 ICtDFT=  3500011 ScaDFX=  1.000000  1.000000  1.000000  1.000000
 FoFCou: FMM=F IPFlag=           0 FMFlag=      100000 FMFlg1=           0
         NFxFlg=           0 DoJE=T BraDBF=F KetDBF=T FulRan=T
         wScrn=  0.000000 ICntrl=       500 IOpCl=  0 I1Cent=   200000004 NGrid=           0
         NMat0=    1 NMatS0=      1 NMatT0=    0 NMatD0=    1 NMtDS0=    0 NMtDT0=    0
 Petite list used in FoFCou.
 Initial guess orbital symmetries:
       Occupied  (A1) (B2) (A1) (B2) (A1) (A1) (B2) (B2) (A1) (B1)
                 (A1) (A2) (A1) (B2) (B1)
       Virtual   (A2) (A1) (B2) (A1) (B1) (A1) (B2) (B2) (A2) (A1)
                 (A1) (B2) (B1) (A1) (B2) (B1) (A1) (A2) (B2) (B2)
                 (A1) (B1) (B2) (A1) (A2) (A1) (B2) (B2) (A2) (A1)
                 (B2) (B1) (B2) (B2) (B1) (A1) (A2) (A1) (A1) (B1)
                 (B2) (A2) (A1) (A1) (B2) (B1) (A2) (B1) (B2) (A2)
                 (A1) (B2) (A1) (B1) (B2) (B2) (A2) (B1) (A1) (A1)
                 (B1) (A2) (A1) (B2) (A1) (B2) (B2) (B1) (B1) (A2)
                 (A1) (B2) (A2) (A1) (A1) (A2) (B2) (B2) (A1) (B2)
                 (A2) (B2) (A1) (A1) (B2) (B1) (A1) (B2) (A2) (B2)
                 (A1) (B1) (A1) (B1) (A1) (B1) (B2) (A1) (A2) (B1)
                 (B2) (B1) (A2) (A1) (A2) (B2) (A1) (B1) (A2) (B2)
                 (A2) (A1) (B2) (B1) (A1) (B2) (B1) (B2) (B1) (A2)
                 (A1) (A1) (B1) (B2) (A1) (B1) (A2) (A2) (A1) (B1)
                 (B2) (B2) (A1) (A2) (B2) (A2) (B1) (A1) (B1) (B2)
                 (A1) (B2) (A2) (A1) (A2) (A1) (B2) (B2) (A2) (B1)
                 (B2) (B1) (A1) (A2) (A1) (B2) (A2) (B2) (A1) (A1)
                 (A2) (B2) (A1) (B1) (B1) (A1) (B2) (B2) (B2) (A2)
                 (B1) (A1) (A1) (A2) (B2) (B1) (B2) (A1) (A2) (B2)
                 (A1) (B1) (A2) (B2) (A2) (B2) (B2) (A1) (B2)
 The electronic state of the initial guess is 1-A1.
 Keep R1 ints in memory in symmetry-blocked form, NReq=273603449.
 Requested convergence on RMS density matrix=1.00D-08 within 128 cycles.
 Requested convergence on MAX density matrix=1.00D-06.
 Requested convergence on             energy=1.00D-06.
 No special actions if energy rises.
 Integral accuracy reduced to 1.0D-05 until final iterations.
 Initial convergence to 1.0D-05 achieved.  Increase integral accuracy.
 SCF Done:  E(RB3LYP) =  -156.035936729     A.U. after   11 cycles
            NFock= 11  Conv=0.17D-08     -V/T= 2.0047

 **********************************************************************

            Population analysis using the SCF Density.

 **********************************************************************

 Orbital symmetries:
       Occupied  (A1) (B2) (A1) (B2) (A1) (A1) (B2) (B2) (A1) (B1)
                 (A1) (A2) (A1) (B2) (B1)
       Virtual   (A2) (A1) (B2) (A1) (B1) (B2) (A2) (A1) (B2) (A1)
                 (A1) (B1) (B2) (A1) (B2) (B1) (A2) (B2) (A1) (B1)
                 (A1) (B2) (A1) (A2) (B2) (A1) (B2) (A2) (B2) (A1)
                 (B2) (B1) (B2) (B2) (B1) (A1) (A2) (A1) (B1) (A1)
                 (B2) (A2) (A1) (A1) (B2) (B1) (A2) (B1) (A2) (B2)
                 (A1) (B2) (B2) (B1) (A1) (B2) (A1) (B1) (A2) (A1)
                 (B1) (A2) (B2) (A1) (A1) (B2) (B2) (B1) (A2) (B1)
                 (A1) (B2) (A2) (A1) (A2) (A1) (B2) (B2) (A1) (B2)
                 (A2) (B2) (A1) (A1) (B2) (B1) (A1) (B2) (A2) (B2)
                 (A1) (B1) (A1) (B1) (A1) (B1) (B2) (A2) (A1) (B1)
                 (B2) (B1) (A2) (A1) (A2) (B2) (A1) (B1) (A2) (B2)
                 (A2) (B2) (A1) (B1) (A1) (B2) (B1) (B1) (B2) (A2)
                 (A1) (A1) (B1) (B2) (A1) (A2) (B1) (A1) (A2) (B1)
                 (B2) (A1) (B2) (A2) (B2) (A2) (B1) (A1) (B1) (B2)
                 (A1) (B2) (A2) (A1) (A2) (B2) (A1) (B2) (A2) (B1)
                 (B1) (B2) (A2) (A1) (A1) (A2) (B2) (B2) (A1) (A1)
                 (A2) (A1) (B1) (B2) (B1) (A1) (B2) (B2) (A2) (B2)
                 (B1) (A1) (A1) (A2) (B2) (B1) (B2) (A2) (A1) (B2)
                 (A1) (B1) (A2) (B2) (A2) (B2) (B2) (A1) (B2)
 The electronic state is 1-A1.
 Alpha  occ. eigenvalues --  -10.17502 -10.17484 -10.17201 -10.17113  -0.85691
 Alpha  occ. eigenvalues --   -0.65843  -0.64505  -0.51751  -0.50208  -0.46011
 Alpha  occ. eigenvalues --   -0.38585  -0.36390  -0.33224  -0.32197  -0.25577
 Alpha virt. eigenvalues --    0.00549   0.02237   0.04328   0.04438   0.05418
 Alpha virt. eigenvalues --    0.07465   0.10594   0.10704   0.13818   0.16004
 Alpha virt. eigenvalues --    0.16704   0.19324   0.19669   0.23093   0.23118
 Alpha virt. eigenvalues --    0.25581   0.27584   0.30252   0.31613   0.32851
 Alpha virt. eigenvalues --    0.33219   0.33676   0.33922   0.36560   0.36713
 Alpha virt. eigenvalues --    0.37582   0.38082   0.41515   0.43587   0.48968
 Alpha virt. eigenvalues --    0.54238   0.60344   0.62185   0.67402   0.76367
 Alpha virt. eigenvalues --    0.83726   0.85933   0.91548   0.93416   0.93541
 Alpha virt. eigenvalues --    0.95803   0.96957   0.97517   1.00721   1.01966
 Alpha virt. eigenvalues --    1.03014   1.05235   1.07884   1.08523   1.09803
 Alpha virt. eigenvalues --    1.12885   1.17206   1.19789   1.20010   1.22815
 Alpha virt. eigenvalues --    1.26637   1.27132   1.28073   1.28475   1.34135
 Alpha virt. eigenvalues --    1.35950   1.47427   1.48741   1.48943   1.59643
 Alpha virt. eigenvalues --    1.61411   1.62563   1.65957   1.69185   1.70112
 Alpha virt. eigenvalues --    1.72799   1.74537   1.74862   1.77695   1.89939
 Alpha virt. eigenvalues --    1.90856   1.91701   1.93142   1.98708   1.99994
 Alpha virt. eigenvalues --    2.11555   2.16761   2.17213   2.25439   2.27227
 Alpha virt. eigenvalues --    2.31923   2.39166   2.48632   2.71884   2.75268
 Alpha virt. eigenvalues --    2.93357   3.02271   3.07770   3.07858   3.11345
 Alpha virt. eigenvalues --    3.13588   3.17358   3.21823   3.22791   3.27485
 Alpha virt. eigenvalues --    3.40779   3.47874   3.53732   3.55561   3.62066
 Alpha virt. eigenvalues --    3.64634   3.66050   3.71427   3.74648   3.82659
 Alpha virt. eigenvalues --    3.83416   3.86581   3.87023   3.87531   3.91238
 Alpha virt. eigenvalues --    3.93866   3.96314   4.01730   4.02120   4.02459
 Alpha virt. eigenvalues --    4.03280   4.08569   4.14831   4.18302   4.24356
 Alpha virt. eigenvalues --    4.25557   4.26662   4.27274   4.29526   4.30889
 Alpha virt. eigenvalues --    4.31950   4.34225   4.34572   4.36224   4.40670
 Alpha virt. eigenvalues --    4.45345   4.46464   4.47728   4.50512   4.52240
 Alpha virt. eigenvalues --    4.53351   4.54098   4.55693   4.60403   4.62371
 Alpha virt. eigenvalues --    4.67111   4.67148   4.69486   4.69848   4.71713
 Alpha virt. eigenvalues --    4.84732   4.86883   4.92926   4.94425   5.00266
 Alpha virt. eigenvalues --    5.02496   5.03023   5.07917   5.18408   5.18817
 Alpha virt. eigenvalues --    5.23480   5.25566   5.26775   5.26801   5.31765
 Alpha virt. eigenvalues --    5.43252   5.45867   5.52541   5.56955   5.57091
 Alpha virt. eigenvalues --    5.61381   5.64703   5.68481   5.70989   5.72022
 Alpha virt. eigenvalues --    5.73175   5.73567   5.87579   5.88315   5.89890
 Alpha virt. eigenvalues --    5.93205   5.95755   6.13232   6.24004   6.26233
 Alpha virt. eigenvalues --    6.37216   6.58257   6.72156  11.18523
          Condensed to atoms (all electrons):
               1          2          3          4          5          6
     1  C    5.047869   0.520637   0.316840  -0.131502   0.431437  -0.044666
     2  C    0.520637   5.047869  -0.131502   0.316840  -0.044666   0.431437
     3  C    0.316840  -0.131502   4.742699   0.334398  -0.037972   0.019611
     4  C   -0.131502   0.316840   0.334398   4.742699   0.019611  -0.037972
     5  H    0.431437  -0.044666  -0.037972   0.019611   0.610071  -0.005460
     6  H   -0.044666   0.431437   0.019611  -0.037972  -0.005460   0.610071
     7  H   -0.045501   0.009909   0.428440  -0.032281  -0.000446  -0.000982
     8  H    0.009909  -0.045501  -0.032281   0.428440  -0.000982  -0.000446
     9  H   -0.045501   0.009909   0.428440  -0.032281  -0.000446  -0.000982
    10  H    0.009909  -0.045501  -0.032281   0.428440  -0.000982  -0.000446
               7          8          9         10
     1  C   -0.045501   0.009909  -0.045501   0.009909
     2  C    0.009909  -0.045501   0.009909  -0.045501
     3  C    0.428440  -0.032281   0.428440  -0.032281
     4  C   -0.032281   0.428440  -0.032281   0.428440
     5  H   -0.000446  -0.000982  -0.000446  -0.000982
     6  H   -0.000982  -0.000446  -0.000982  -0.000446
     7  H    0.634945  -0.000695  -0.032714   0.001332
     8  H   -0.000695   0.634945   0.001332  -0.032714
     9  H   -0.032714   0.001332   0.634945  -0.000695
    10  H    0.001332  -0.032714  -0.000695   0.634945
 Mulliken charges:
               1
     1  C   -0.069430
     2  C   -0.069430
     3  C   -0.036393
     4  C   -0.036393
     5  H    0.029836
     6  H    0.029836
     7  H    0.037994
     8  H    0.037994
     9  H    0.037994
    10  H    0.037994
 Sum of Mulliken charges =  -0.00000
 Mulliken charges with hydrogens summed into heavy atoms:
               1
     1  C   -0.039594
     2  C   -0.039594
     3  C    0.039594
     4  C    0.039594
 Electronic spatial extent (au):  <R**2>=            236.2438
 Charge=             -0.0000 electrons
 Dipole moment (field-independent basis, Debye):
    X=             -0.0000    Y=              0.0000    Z=             -0.1740  Tot=              0.1740
 Quadrupole moment (field-independent basis, Debye-Ang):
   XX=            -26.3608   YY=            -24.4579   ZZ=            -25.0460
   XY=              0.0000   XZ=              0.0000   YZ=             -0.0000
 Traceless Quadrupole moment (field-independent basis, Debye-Ang):
   XX=             -1.0726   YY=              0.8303   ZZ=              0.2422
   XY=              0.0000   XZ=              0.0000   YZ=             -0.0000
 Octapole moment (field-independent basis, Debye-Ang**2):
  XXX=              0.0000  YYY=              0.0000  ZZZ=              1.7950  XYY=             -0.0000
  XXY=              0.0000  XXZ=             -3.0074  XZZ=              0.0000  YZZ=             -0.0000
  YYZ=              1.9038  XYZ=              0.0000
 Hexadecapole moment (field-independent basis, Debye-Ang**3):
 XXXX=            -45.3770 YYYY=           -143.1119 ZZZZ=           -149.3035 XXXY=             -0.0000
 XXXZ=              0.0000 YYYX=             -0.0000 YYYZ=             -0.0000 ZZZX=             -0.0000
 ZZZY=             -0.0000 XXYY=            -30.6029 XXZZ=            -33.6220 YYZZ=            -43.8047
 XXYZ=              0.0000 YYXZ=             -0.0000 ZZXY=             -0.0000
 N-N= 1.131033453009D+02 E-N=-5.876653367739D+02  KE= 1.553082266644D+02
 Symmetry A1   KE= 7.718398834602D+01
 Symmetry A2   KE= 2.116143491904D+00
 Symmetry B1   KE= 4.036994934165D+00
 Symmetry B2   KE= 7.197109989228D+01
 Calling FoFJK, ICntrl=      2127 FMM=F ISym2X=1 I1Cent= 0 IOpClX= 0 NMat=1 NMatS=1 NMatT=0.
 ***** Axes restored to original set *****
 -------------------------------------------------------------------
 Center     Atomic                   Forces (Hartrees/Bohr)
 Number     Number              X              Y              Z
 -------------------------------------------------------------------
      1        6          -0.000000000   -0.001559222   -0.000919160
      2        6          -0.000000000    0.001559222   -0.000919160
      3        6          -0.000000000    0.000711615   -0.000469675
      4        6           0.000000000   -0.000711615   -0.000469675
      5        1           0.000000000   -0.001548056   -0.000994910
      6        1           0.000000000    0.001548056   -0.000994910
      7        1          -0.001852798   -0.001156802    0.001191873
      8        1           0.001852798    0.001156802    0.001191873
      9        1           0.001852798   -0.001156802    0.001191873
     10        1          -0.001852798    0.001156802    0.001191873
 -------------------------------------------------------------------
 Cartesian Forces:  Max     0.001852798 RMS     0.001148116

 GradGradGradGradGradGradGradGradGradGradGradGradGradGradGradGradGradGrad
 Berny optimization.
 FormGI is forming the generalized inverse of G from B-inverse, IUseBI=4.
 Internal  Forces:  Max     0.003074597 RMS     0.000988588
 Search for a local minimum.
 Step number   1 out of a maximum of   63
 All quantities printed in internal units (Hartrees-Bohrs-Radians)
 Mixed Optimization -- En-DIIS/RFO-DIIS
 Second derivative matrix not updated -- first step.
 ITU=  0
     Eigenvalues ---    0.00589   0.01128   0.01742   0.03854   0.04871
     Eigenvalues ---    0.04907   0.05575   0.07171   0.07277   0.07645
     Eigenvalues ---    0.07902   0.16000   0.16000   0.21628   0.25155
     Eigenvalues ---    0.27911   0.30491   0.34209   0.34209   0.34209
     Eigenvalues ---    0.34209   0.35484   0.35484   0.52921
 RFO step:  Lambda=-1.48393514D-04 EMin= 5.88606727D-03
 Linear search not attempted -- first point.
 Iteration  1 RMS(Cart)=  0.00375624 RMS(Int)=  0.00000401
 Iteration  2 RMS(Cart)=  0.00000331 RMS(Int)=  0.00000027
 Iteration  3 RMS(Cart)=  0.00000000 RMS(Int)=  0.00000027
 ClnCor:  largest displacement from symmetrization is 8.89D-12 for atom    10.
 Variable       Old X    -DE/DX   Delta X   Delta X   Delta X     New X
                                 (Linear)    (Quad)   (Total)
    R1        2.52780  -0.00307   0.00000  -0.00589  -0.00589   2.52191
    R2        2.86965  -0.00191   0.00000  -0.00633  -0.00633   2.86332
    R3        2.04896  -0.00179   0.00000  -0.00504  -0.00504   2.04392
    R4        2.86965  -0.00191   0.00000  -0.00633  -0.00633   2.86332
    R5        2.04896  -0.00179   0.00000  -0.00504  -0.00504   2.04392
    R6        2.97082  -0.00163   0.00000  -0.00506  -0.00506   2.96576
    R7        2.06979  -0.00247   0.00000  -0.00723  -0.00723   2.06256
    R8        2.06979  -0.00247   0.00000  -0.00723  -0.00723   2.06256
    R9        2.06979  -0.00247   0.00000  -0.00723  -0.00723   2.06256
   R10        2.06979  -0.00247   0.00000  -0.00723  -0.00723   2.06256
    A1        1.64807   0.00030   0.00000   0.00031   0.00032   1.64838
    A2        2.33371  -0.00059   0.00000  -0.00292  -0.00292   2.33079
    A3        2.30141   0.00029   0.00000   0.00260   0.00260   2.30401
    A4        1.64807   0.00030   0.00000   0.00031   0.00032   1.64838
    A5        2.33371  -0.00059   0.00000  -0.00292  -0.00292   2.33079
    A6        2.30141   0.00029   0.00000   0.00260   0.00260   2.30401
    A7        1.49353  -0.00030   0.00000  -0.00031  -0.00032   1.49321
    A8        2.02409   0.00002   0.00000  -0.00115  -0.00115   2.02294
    A9        2.02409   0.00002   0.00000  -0.00115  -0.00115   2.02294
   A10        2.00447   0.00004   0.00000  -0.00025  -0.00025   2.00422
   A11        2.00447   0.00004   0.00000  -0.00025  -0.00025   2.00422
   A12        1.89234   0.00011   0.00000   0.00237   0.00237   1.89470
   A13        1.49353  -0.00030   0.00000  -0.00031  -0.00032   1.49321
   A14        2.02409   0.00002   0.00000  -0.00115  -0.00115   2.02294
   A15        2.02409   0.00002   0.00000  -0.00115  -0.00115   2.02294
   A16        2.00447   0.00004   0.00000  -0.00025  -0.00025   2.00422
   A17        2.00447   0.00004   0.00000  -0.00025  -0.00025   2.00422
   A18        1.89234   0.00011   0.00000   0.00237   0.00237   1.89470
    D1       -0.00000  -0.00000   0.00000  -0.00000   0.00000   0.00000
    D2        3.14159  -0.00000   0.00000  -0.00000   0.00000   3.14159
    D3        3.14159   0.00000   0.00000  -0.00000   0.00000   3.14159
    D4       -0.00000  -0.00000   0.00000  -0.00000   0.00000   0.00000
    D5       -0.00000   0.00000   0.00000   0.00000   0.00000   0.00000
    D6       -2.01651   0.00011   0.00000   0.00061   0.00061  -2.01590
    D7        2.01651  -0.00011   0.00000  -0.00061  -0.00061   2.01590
    D8        3.14159  -0.00000   0.00000   0.00000   0.00000   3.14159
    D9        1.12508   0.00011   0.00000   0.00061   0.00061   1.12570
   D10       -1.12508  -0.00011   0.00000  -0.00061  -0.00061  -1.12570
   D11       -0.00000   0.00000   0.00000   0.00000   0.00000   0.00000
   D12       -2.01651   0.00011   0.00000   0.00061   0.00061  -2.01590
   D13        2.01651  -0.00011   0.00000  -0.00061  -0.00061   2.01590
   D14        3.14159   0.00000   0.00000   0.00000   0.00000   3.14159
   D15        1.12508   0.00011   0.00000   0.00061   0.00061   1.12570
   D16       -1.12508  -0.00011   0.00000  -0.00061  -0.00061  -1.12570
   D17       -0.00000  -0.00000   0.00000  -0.00000   0.00000   0.00000
   D18        2.03554  -0.00012   0.00000  -0.00147  -0.00147   2.03407
   D19       -2.03554   0.00012   0.00000   0.00147   0.00147  -2.03407
   D20        2.03554  -0.00012   0.00000  -0.00147  -0.00147   2.03407
   D21       -2.21210  -0.00024   0.00000  -0.00294  -0.00294  -2.21504
   D22        0.00000   0.00000   0.00000  -0.00000   0.00000   0.00000
   D23       -2.03554   0.00012   0.00000   0.00147   0.00147  -2.03407
   D24        0.00000  -0.00000   0.00000  -0.00000   0.00000   0.00000
   D25        2.21210   0.00024   0.00000   0.00294   0.00294   2.21504
         Item               Value     Threshold  Converged?
 Maximum Force            0.003075     0.000450     NO 
 RMS     Force            0.000989     0.000300     NO 
 Maximum Displacement     0.010742     0.001800     NO 
 RMS     Displacement     0.003757     0.001200     NO 
 Predicted change in Energy=-7.423268D-05
 GradGradGradGradGradGradGradGradGradGradGradGradGradGradGradGradGradGrad

                          Input orientation:                          
 ---------------------------------------------------------------------
 Center     Atomic      Atomic             Coordinates (Angstroms)
 Number     Number       Type             X           Y           Z
 ---------------------------------------------------------------------
      1          6           0        0.000000    0.667268    0.811428
      2          6           0       -0.000000   -0.667268    0.811428
      3          6           0        0.000000    0.784707   -0.699221
      4          6           0       -0.000000   -0.784707   -0.699221
      5          1           0        0.000000    1.412400    1.595412
      6          1           0       -0.000000   -1.412400    1.595412
      7          1           0        0.886126    1.243098   -1.141874
      8          1           0       -0.886126   -1.243098   -1.141874
      9          1           0       -0.886126    1.243098   -1.141874
     10          1           0        0.886126   -1.243098   -1.141874
 ---------------------------------------------------------------------
                    Distance matrix (angstroms):
                    1          2          3          4          5
     1  C    0.000000
     2  C    1.334537   0.000000
     3  C    1.515206   2.095302   0.000000
     4  C    2.095302   1.515206   1.569413   0.000000
     5  H    1.081597   2.222533   2.378936   3.176888   0.000000
     6  H    2.222533   1.081597   3.176888   2.378936   2.824801
     7  H    2.220852   2.872299   1.091459   2.256801   2.882119
     8  H    2.872299   2.220852   2.256801   1.091459   3.915306
     9  H    2.220852   2.872299   1.091459   2.256801   2.882119
    10  H    2.872299   2.220852   2.256801   1.091459   3.915306
                    6          7          8          9         10
     6  H    0.000000
     7  H    3.915306   0.000000
     8  H    2.882119   3.053202   0.000000
     9  H    3.915306   1.772251   2.486195   0.000000
    10  H    2.882119   2.486195   1.772251   3.053202   0.000000
 Stoichiometry    C4H6
 Framework group  C2V[SGV(C4H2),X(H4)]
 Deg. of freedom     8
 Full point group                 C2V     NOp   4
 Largest Abelian subgroup         C2V     NOp   4
 Largest concise Abelian subgroup C2V     NOp   4
                         Standard orientation:                         
 ---------------------------------------------------------------------
 Center     Atomic      Atomic             Coordinates (Angstroms)
 Number     Number       Type             X           Y           Z
 ---------------------------------------------------------------------
      1          6           0       -0.000000    0.667268    0.812434
      2          6           0       -0.000000   -0.667268    0.812434
      3          6           0       -0.000000    0.784707   -0.698214
      4          6           0       -0.000000   -0.784707   -0.698214
      5          1           0       -0.000000    1.412400    1.596418
      6          1           0       -0.000000   -1.412400    1.596418
      7          1           0        0.886126    1.243098   -1.140867
      8          1           0       -0.886126   -1.243098   -1.140867
      9          1           0       -0.886126    1.243098   -1.140867
     10          1           0        0.886126   -1.243098   -1.140867
 ---------------------------------------------------------------------
 Rotational constants (GHZ):          12.9983536          12.3093482           6.8660169
 Basis read from rwf:  (5D, 7F)
 There are    74 symmetry adapted cartesian basis functions of A1  symmetry.
 There are    41 symmetry adapted cartesian basis functions of A2  symmetry.
 There are    41 symmetry adapted cartesian basis functions of B1  symmetry.
 There are    74 symmetry adapted cartesian basis functions of B2  symmetry.
 There are    64 symmetry adapted basis functions of A1  symmetry.
 There are    38 symmetry adapted basis functions of A2  symmetry.
 There are    38 symmetry adapted basis functions of B1  symmetry.
 There are    64 symmetry adapted basis functions of B2  symmetry.
   204 basis functions,   312 primitive gaussians,   230 cartesian basis functions
    15 alpha electrons       15 beta electrons
       nuclear repulsion energy       113.3750676595 Hartrees.
 NAtoms=   10 NActive=   10 NUniq=    4 SFac= 4.00D+00 NAtFMM=   60 NAOKFM=F Big=F
 Integral buffers will be    131072 words long.
 Raffenetti 2 integral format.
 Two-electron integral symmetry is turned on.
 One-electron integrals computed using PRISM.
 NBasis=   204 RedAO= T EigKep=  7.68D-05  NBF=    64    38    38    64
 NBsUse=   204 1.00D-06 EigRej= -1.00D+00 NBFU=    64    38    38    64
 Initial guess from the checkpoint file:  "/wrk/irikura/Gau-30288.chk"
 B after Tr=     0.000000    0.000000    0.000000
         Rot=    1.000000    0.000000    0.000000    0.000000 Ang=   0.00 deg.
 Initial guess orbital symmetries:
       Occupied  (A1) (B2) (A1) (B2) (A1) (A1) (B2) (B2) (A1) (B1)
                 (A1) (A2) (A1) (B2) (B1)
       Virtual   (A2) (A1) (B2) (A1) (B1) (B2) (A2) (A1) (B2) (A1)
                 (A1) (B1) (B2) (A1) (B2) (B1) (A2) (B2) (A1) (B1)
                 (A1) (B2) (A1) (A2) (B2) (A1) (B2) (A2) (B2) (A1)
                 (B2) (B1) (B2) (B2) (B1) (A1) (A2) (A1) (B1) (A1)
                 (B2) (A2) (A1) (A1) (B2) (B1) (A2) (B1) (A2) (B2)
                 (A1) (B2) (B2) (B1) (A1) (B2) (A1) (B1) (A2) (A1)
                 (B1) (A2) (B2) (A1) (A1) (B2) (B2) (B1) (A2) (B1)
                 (A1) (B2) (A2) (A1) (A2) (A1) (B2) (B2) (A1) (B2)
                 (A2) (B2) (A1) (A1) (B2) (B1) (A1) (B2) (A2) (B2)
                 (A1) (B1) (A1) (B1) (A1) (B1) (B2) (A2) (A1) (B1)
                 (B2) (B1) (A2) (A1) (A2) (B2) (A1) (B1) (A2) (B2)
                 (A2) (B2) (A1) (B1) (A1) (B2) (B1) (B1) (B2) (A2)
                 (A1) (A1) (B1) (B2) (A1) (A2) (B1) (A1) (A2) (B1)
                 (B2) (A1) (B2) (A2) (B2) (A2) (B1) (A1) (B1) (B2)
                 (A1) (B2) (A2) (A1) (A2) (B2) (A1) (B2) (A2) (B1)
                 (B1) (B2) (A2) (A1) (A1) (A2) (B2) (B2) (A1) (A1)
                 (A2) (A1) (B1) (B2) (B1) (A1) (B2) (B2) (A2) (B2)
                 (B1) (A1) (A1) (A2) (B2) (B1) (B2) (A2) (A1) (B2)
                 (A1) (B1) (A2) (B2) (A2) (B2) (B2) (A1) (B2)
 Keep R1 ints in memory in symmetry-blocked form, NReq=273603449.
 Requested convergence on RMS density matrix=1.00D-08 within 128 cycles.
 Requested convergence on MAX density matrix=1.00D-06.
 Requested convergence on             energy=1.00D-06.
 No special actions if energy rises.
 SCF Done:  E(RB3LYP) =  -156.036010966     A.U. after    7 cycles
            NFock=  7  Conv=0.43D-08     -V/T= 2.0043
 Calling FoFJK, ICntrl=      2127 FMM=F ISym2X=1 I1Cent= 0 IOpClX= 0 NMat=1 NMatS=1 NMatT=0.
 ***** Axes restored to original set *****
 -------------------------------------------------------------------
 Center     Atomic                   Forces (Hartrees/Bohr)
 Number     Number              X              Y              Z
 -------------------------------------------------------------------
      1        6          -0.000000000    0.000329234   -0.000083611
      2        6          -0.000000000   -0.000329234   -0.000083611
      3        6          -0.000000000    0.000263567   -0.000139279
      4        6           0.000000000   -0.000263567   -0.000139279
      5        1           0.000000000   -0.000063870    0.000162766
      6        1           0.000000000    0.000063870    0.000162766
      7        1          -0.000001976   -0.000070822    0.000030062
      8        1           0.000001976    0.000070822    0.000030062
      9        1           0.000001976   -0.000070822    0.000030062
     10        1          -0.000001976    0.000070822    0.000030062
 -------------------------------------------------------------------
 Cartesian Forces:  Max     0.000329234 RMS     0.000128237

 GradGradGradGradGradGradGradGradGradGradGradGradGradGradGradGradGradGrad
 Berny optimization.
 Using GEDIIS/GDIIS optimizer.
 FormGI is forming the generalized inverse of G from B-inverse, IUseBI=4.
 Internal  Forces:  Max     0.000220947 RMS     0.000065262
 Search for a local minimum.
 Step number   2 out of a maximum of   63
 All quantities printed in internal units (Hartrees-Bohrs-Radians)
 Mixed Optimization -- En-DIIS/RFO-DIIS
 Swapping is turned off.
 Update second derivatives using D2CorX and points    1    2
 DE= -7.42D-05 DEPred=-7.42D-05 R= 1.00D+00
 TightC=F SS=  1.41D+00  RLast= 2.18D-02 DXNew= 5.0454D-01 6.5504D-02
 Trust test= 1.00D+00 RLast= 2.18D-02 DXMaxT set to 3.00D-01
 ITU=  1  0
     Eigenvalues ---    0.00589   0.01124   0.01736   0.03853   0.04864
     Eigenvalues ---    0.04909   0.05586   0.07182   0.07282   0.07591
     Eigenvalues ---    0.07897   0.15577   0.16000   0.21630   0.25310
     Eigenvalues ---    0.27906   0.30885   0.33664   0.34209   0.34209
     Eigenvalues ---    0.34209   0.35484   0.35885   0.54093
 En-DIIS/RFO-DIIS/Sim-DIIS IScMMF=       -3 using points:     2    1
 RFO step:  Lambda=-1.11617370D-06.
 DidBck=F Rises=F RFO-DIIS coefs:    1.02639   -0.02639
 Iteration  1 RMS(Cart)=  0.00042540 RMS(Int)=  0.00000023
 Iteration  2 RMS(Cart)=  0.00000022 RMS(Int)=  0.00000003
 ClnCor:  largest displacement from symmetrization is 2.27D-11 for atom     9.
 Variable       Old X    -DE/DX   Delta X   Delta X   Delta X     New X
                                 (Linear)    (Quad)   (Total)
    R1        2.52191   0.00022  -0.00016   0.00050   0.00035   2.52226
    R2        2.86332   0.00008  -0.00017   0.00037   0.00020   2.86353
    R3        2.04392   0.00007  -0.00013   0.00030   0.00017   2.04409
    R4        2.86332   0.00008  -0.00017   0.00037   0.00020   2.86353
    R5        2.04392   0.00007  -0.00013   0.00030   0.00017   2.04409
    R6        2.96576   0.00017  -0.00013   0.00072   0.00058   2.96635
    R7        2.06256  -0.00004  -0.00019   0.00001  -0.00018   2.06238
    R8        2.06256  -0.00004  -0.00019   0.00001  -0.00018   2.06238
    R9        2.06256  -0.00004  -0.00019   0.00001  -0.00018   2.06238
   R10        2.06256  -0.00004  -0.00019   0.00001  -0.00018   2.06238
    A1        1.64838  -0.00001   0.00001   0.00003   0.00004   1.64842
    A2        2.33079  -0.00016  -0.00008  -0.00097  -0.00105   2.32974
    A3        2.30401   0.00017   0.00007   0.00094   0.00101   2.30502
    A4        1.64838  -0.00001   0.00001   0.00003   0.00004   1.64842
    A5        2.33079  -0.00016  -0.00008  -0.00097  -0.00105   2.32974
    A6        2.30401   0.00017   0.00007   0.00094   0.00101   2.30502
    A7        1.49321   0.00001  -0.00001  -0.00003  -0.00004   1.49318
    A8        2.02294  -0.00000  -0.00003   0.00008   0.00005   2.02298
    A9        2.02294  -0.00000  -0.00003   0.00008   0.00005   2.02298
   A10        2.00422  -0.00003  -0.00001  -0.00038  -0.00038   2.00384
   A11        2.00422  -0.00003  -0.00001  -0.00038  -0.00038   2.00384
   A12        1.89470   0.00004   0.00006   0.00046   0.00052   1.89523
   A13        1.49321   0.00001  -0.00001  -0.00003  -0.00004   1.49318
   A14        2.02294  -0.00000  -0.00003   0.00008   0.00005   2.02298
   A15        2.02294  -0.00000  -0.00003   0.00008   0.00005   2.02298
   A16        2.00422  -0.00003  -0.00001  -0.00038  -0.00038   2.00384
   A17        2.00422  -0.00003  -0.00001  -0.00038  -0.00038   2.00384
   A18        1.89470   0.00004   0.00006   0.00046   0.00052   1.89523
    D1       -0.00000   0.00000   0.00000   0.00000   0.00000   0.00000
    D2        3.14159   0.00000   0.00000   0.00000   0.00000   3.14159
    D3        3.14159   0.00000   0.00000   0.00000   0.00000   3.14159
    D4        0.00000   0.00000   0.00000  -0.00000   0.00000   0.00000
    D5        0.00000  -0.00000   0.00000  -0.00000   0.00000   0.00000
    D6       -2.01590   0.00003   0.00002   0.00043   0.00044  -2.01545
    D7        2.01590  -0.00003  -0.00002  -0.00043  -0.00044   2.01545
    D8        3.14159  -0.00000   0.00000  -0.00000   0.00000   3.14159
    D9        1.12570   0.00003   0.00002   0.00043   0.00044   1.12614
   D10       -1.12570  -0.00003  -0.00002  -0.00043  -0.00044  -1.12614
   D11       -0.00000  -0.00000   0.00000  -0.00000   0.00000   0.00000
   D12       -2.01590   0.00003   0.00002   0.00043   0.00044  -2.01545
   D13        2.01590  -0.00003  -0.00002  -0.00043  -0.00044   2.01545
   D14        3.14159  -0.00000   0.00000  -0.00000   0.00000   3.14159
   D15        1.12570   0.00003   0.00002   0.00043   0.00044   1.12614
   D16       -1.12570  -0.00003  -0.00002  -0.00043  -0.00044  -1.12614
   D17        0.00000   0.00000   0.00000   0.00000   0.00000   0.00000
   D18        2.03407  -0.00000  -0.00004   0.00002  -0.00002   2.03405
   D19       -2.03407   0.00000   0.00004  -0.00002   0.00002  -2.03405
   D20        2.03407  -0.00000  -0.00004   0.00002  -0.00002   2.03405
   D21       -2.21504  -0.00001  -0.00008   0.00004  -0.00004  -2.21508
   D22        0.00000  -0.00000   0.00000   0.00000   0.00000   0.00000
   D23       -2.03407   0.00000   0.00004  -0.00002   0.00002  -2.03405
   D24        0.00000   0.00000   0.00000   0.00000  -0.00000   0.00000
   D25        2.21504   0.00001   0.00008  -0.00004   0.00004   2.21508
         Item               Value     Threshold  Converged?
 Maximum Force            0.000221     0.000450     YES
 RMS     Force            0.000065     0.000300     YES
 Maximum Displacement     0.001411     0.001800     YES
 RMS     Displacement     0.000425     0.001200     YES
 Predicted change in Energy=-5.581035D-07
 Optimization completed.
    -- Stationary point found.
                           ----------------------------
                           !   Optimized Parameters   !
                           ! (Angstroms and Degrees)  !
 --------------------------                            --------------------------
 ! Name  Definition              Value          Derivative Info.                !
 --------------------------------------------------------------------------------
 ! R1    R(1,2)                  1.3345         -DE/DX =    0.0002              !
 ! R2    R(1,3)                  1.5152         -DE/DX =    0.0001              !
 ! R3    R(1,5)                  1.0816         -DE/DX =    0.0001              !
 ! R4    R(2,4)                  1.5152         -DE/DX =    0.0001              !
 ! R5    R(2,6)                  1.0816         -DE/DX =    0.0001              !
 ! R6    R(3,4)                  1.5694         -DE/DX =    0.0002              !
 ! R7    R(3,7)                  1.0915         -DE/DX =    0.0                 !
 ! R8    R(3,9)                  1.0915         -DE/DX =    0.0                 !
 ! R9    R(4,8)                  1.0915         -DE/DX =    0.0                 !
 ! R10   R(4,10)                 1.0915         -DE/DX =    0.0                 !
 ! A1    A(2,1,3)               94.4452         -DE/DX =    0.0                 !
 ! A2    A(2,1,5)              133.5445         -DE/DX =   -0.0002              !
 ! A3    A(3,1,5)              132.0102         -DE/DX =    0.0002              !
 ! A4    A(1,2,4)               94.4452         -DE/DX =    0.0                 !
 ! A5    A(1,2,6)              133.5445         -DE/DX =   -0.0002              !
 ! A6    A(4,2,6)              132.0102         -DE/DX =    0.0002              !
 ! A7    A(1,3,4)               85.5548         -DE/DX =    0.0                 !
 ! A8    A(1,3,7)              115.9058         -DE/DX =    0.0                 !
 ! A9    A(1,3,9)              115.9058         -DE/DX =    0.0                 !
 ! A10   A(4,3,7)              114.8333         -DE/DX =    0.0                 !
 ! A11   A(4,3,9)              114.8333         -DE/DX =    0.0                 !
 ! A12   A(7,3,9)              108.5586         -DE/DX =    0.0                 !
 ! A13   A(2,4,3)               85.5548         -DE/DX =    0.0                 !
 ! A14   A(2,4,8)              115.9058         -DE/DX =    0.0                 !
 ! A15   A(2,4,10)             115.9058         -DE/DX =    0.0                 !
 ! A16   A(3,4,8)              114.8333         -DE/DX =    0.0                 !
 ! A17   A(3,4,10)             114.8333         -DE/DX =    0.0                 !
 ! A18   A(8,4,10)             108.5586         -DE/DX =    0.0                 !
 ! D1    D(3,1,2,4)              0.0            -DE/DX =    0.0                 !
 ! D2    D(3,1,2,6)            180.0            -DE/DX =    0.0                 !
 ! D3    D(5,1,2,4)            180.0            -DE/DX =    0.0                 !
 ! D4    D(5,1,2,6)              0.0            -DE/DX =    0.0                 !
 ! D5    D(2,1,3,4)              0.0            -DE/DX =    0.0                 !
 ! D6    D(2,1,3,7)           -115.5023         -DE/DX =    0.0                 !
 ! D7    D(2,1,3,9)            115.5023         -DE/DX =    0.0                 !
 ! D8    D(5,1,3,4)            180.0            -DE/DX =    0.0                 !
 ! D9    D(5,1,3,7)             64.4977         -DE/DX =    0.0                 !
 ! D10   D(5,1,3,9)            -64.4977         -DE/DX =    0.0                 !
 ! D11   D(1,2,4,3)              0.0            -DE/DX =    0.0                 !
 ! D12   D(1,2,4,8)           -115.5023         -DE/DX =    0.0                 !
 ! D13   D(1,2,4,10)           115.5023         -DE/DX =    0.0                 !
 ! D14   D(6,2,4,3)            180.0            -DE/DX =    0.0                 !
 ! D15   D(6,2,4,8)             64.4977         -DE/DX =    0.0                 !
 ! D16   D(6,2,4,10)           -64.4977         -DE/DX =    0.0                 !
 ! D17   D(1,3,4,2)              0.0            -DE/DX =    0.0                 !
 ! D18   D(1,3,4,8)            116.5439         -DE/DX =    0.0                 !
 ! D19   D(1,3,4,10)          -116.5439         -DE/DX =    0.0                 !
 ! D20   D(7,3,4,2)            116.5439         -DE/DX =    0.0                 !
 ! D21   D(7,3,4,8)           -126.9123         -DE/DX =    0.0                 !
 ! D22   D(7,3,4,10)             0.0            -DE/DX =    0.0                 !
 ! D23   D(9,3,4,2)           -116.5439         -DE/DX =    0.0                 !
 ! D24   D(9,3,4,8)              0.0            -DE/DX =    0.0                 !
 ! D25   D(9,3,4,10)           126.9123         -DE/DX =    0.0                 !
 --------------------------------------------------------------------------------
 GradGradGradGradGradGradGradGradGradGradGradGradGradGradGradGradGradGrad

                          Input orientation:                          
 ---------------------------------------------------------------------
 Center     Atomic      Atomic             Coordinates (Angstroms)
 Number     Number       Type             X           Y           Z
 ---------------------------------------------------------------------
      1          6           0        0.000000    0.667268    0.811428
      2          6           0       -0.000000   -0.667268    0.811428
      3          6           0       -0.000000    0.784707   -0.699221
      4          6           0       -0.000000   -0.784707   -0.699221
      5          1           0        0.000000    1.412400    1.595412
      6          1           0       -0.000000   -1.412400    1.595412
      7          1           0        0.886126    1.243098   -1.141874
      8          1           0       -0.886126   -1.243098   -1.141874
      9          1           0       -0.886126    1.243098   -1.141874
     10          1           0        0.886126   -1.243098   -1.141874
 ---------------------------------------------------------------------
                    Distance matrix (angstroms):
                    1          2          3          4          5
     1  C    0.000000
     2  C    1.334537   0.000000
     3  C    1.515206   2.095302   0.000000
     4  C    2.095302   1.515206   1.569413   0.000000
     5  H    1.081597   2.222533   2.378936   3.176888   0.000000
     6  H    2.222533   1.081597   3.176888   2.378936   2.824801
     7  H    2.220852   2.872299   1.091459   2.256801   2.882119
     8  H    2.872299   2.220852   2.256801   1.091459   3.915306
     9  H    2.220852   2.872299   1.091459   2.256801   2.882119
    10  H    2.872299   2.220852   2.256801   1.091459   3.915306
                    6          7          8          9         10
     6  H    0.000000
     7  H    3.915306   0.000000
     8  H    2.882119   3.053202   0.000000
     9  H    3.915306   1.772251   2.486195   0.000000
    10  H    2.882119   2.486195   1.772251   3.053202   0.000000
 Stoichiometry    C4H6
 Framework group  C2V[SGV(C4H2),X(H4)]
 Deg. of freedom     8
 Full point group                 C2V     NOp   4
 Largest Abelian subgroup         C2V     NOp   4
 Largest concise Abelian subgroup C2V     NOp   4
                         Standard orientation:                         
 ---------------------------------------------------------------------
 Center     Atomic      Atomic             Coordinates (Angstroms)
 Number     Number       Type             X           Y           Z
 ---------------------------------------------------------------------
      1          6           0        0.000000    0.667268    0.812434
      2          6           0       -0.000000   -0.667268    0.812434
      3          6           0        0.000000    0.784707   -0.698214
      4          6           0       -0.000000   -0.784707   -0.698214
      5          1           0        0.000000    1.412400    1.596418
      6          1           0       -0.000000   -1.412400    1.596418
      7          1           0        0.886126    1.243098   -1.140867
      8          1           0       -0.886126   -1.243098   -1.140867
      9          1           0       -0.886126    1.243098   -1.140867
     10          1           0        0.886126   -1.243098   -1.140867
 ---------------------------------------------------------------------
 Rotational constants (GHZ):          12.9983536          12.3093482           6.8660169

 **********************************************************************

            Population analysis using the SCF Density.

 **********************************************************************

 Orbital symmetries:
       Occupied  (A1) (B2) (A1) (B2) (A1) (A1) (B2) (B2) (A1) (B1)
                 (A1) (A2) (A1) (B2) (B1)
       Virtual   (A2) (A1) (B2) (A1) (B1) (B2) (A2) (A1) (B2) (A1)
                 (A1) (B1) (B2) (A1) (B2) (B1) (A2) (B2) (A1) (B1)
                 (A1) (B2) (A1) (A2) (B2) (A1) (B2) (A2) (B2) (A1)
                 (B2) (B1) (B2) (B2) (B1) (A1) (A2) (A1) (B1) (A1)
                 (B2) (A2) (A1) (A1) (B2) (B1) (A2) (B1) (A2) (B2)
                 (A1) (B2) (B2) (B1) (A1) (B2) (A1) (B1) (A2) (A1)
                 (B1) (A2) (B2) (A1) (A1) (B2) (B2) (B1) (A2) (B1)
                 (A1) (B2) (A2) (A1) (A2) (A1) (B2) (B2) (A1) (B2)
                 (A2) (B2) (A1) (A1) (B2) (B1) (A1) (B2) (A2) (B2)
                 (A1) (B1) (A1) (B1) (A1) (B1) (B2) (A2) (A1) (B1)
                 (B2) (B1) (A2) (A1) (A2) (B2) (A1) (B1) (A2) (B2)
                 (A2) (B2) (A1) (B1) (A1) (B2) (B1) (B1) (B2) (A2)
                 (A1) (A1) (B1) (B2) (A1) (A2) (B1) (A1) (A2) (B1)
                 (B2) (A1) (B2) (A2) (B2) (A2) (B1) (A1) (B1) (B2)
                 (A1) (B2) (A2) (A1) (A2) (A1) (B2) (B2) (A2) (B1)
                 (B1) (B2) (A2) (A1) (A1) (A2) (B2) (B2) (A1) (A1)
                 (A2) (A1) (B1) (B2) (B1) (A1) (B2) (B2) (A2) (B2)
                 (B1) (A1) (A1) (A2) (B2) (B1) (B2) (A2) (A1) (B2)
                 (A1) (B1) (A2) (B2) (A2) (B2) (B2) (A1) (B2)
 The electronic state is 1-A1.
 Alpha  occ. eigenvalues --  -10.17364 -10.17346 -10.17065 -10.16974  -0.85850
 Alpha  occ. eigenvalues --   -0.65915  -0.64587  -0.51767  -0.50299  -0.46145
 Alpha  occ. eigenvalues --   -0.38618  -0.36468  -0.33228  -0.32207  -0.25593
 Alpha virt. eigenvalues --    0.00641   0.02260   0.04357   0.04464   0.05440
 Alpha virt. eigenvalues --    0.07521   0.10615   0.10741   0.13882   0.16011
 Alpha virt. eigenvalues --    0.16733   0.19316   0.19674   0.23188   0.23212
 Alpha virt. eigenvalues --    0.25705   0.27625   0.30387   0.31740   0.32897
 Alpha virt. eigenvalues --    0.33303   0.33790   0.33973   0.36594   0.36815
 Alpha virt. eigenvalues --    0.37657   0.38214   0.41743   0.43788   0.49102
 Alpha virt. eigenvalues --    0.54327   0.60339   0.62238   0.67740   0.76513
 Alpha virt. eigenvalues --    0.83729   0.86085   0.91584   0.93368   0.93572
 Alpha virt. eigenvalues --    0.95960   0.97091   0.97547   1.00838   1.02078
 Alpha virt. eigenvalues --    1.03201   1.05338   1.07945   1.08432   1.10028
 Alpha virt. eigenvalues --    1.12700   1.17081   1.19964   1.20135   1.22878
 Alpha virt. eigenvalues --    1.26794   1.27420   1.28110   1.28842   1.34141
 Alpha virt. eigenvalues --    1.36261   1.47582   1.48923   1.49232   1.59860
 Alpha virt. eigenvalues --    1.61387   1.62706   1.66217   1.69375   1.70385
 Alpha virt. eigenvalues --    1.73261   1.74834   1.75415   1.77923   1.90345
 Alpha virt. eigenvalues --    1.91316   1.91916   1.93444   1.98889   2.00408
 Alpha virt. eigenvalues --    2.11869   2.17203   2.17728   2.25801   2.27316
 Alpha virt. eigenvalues --    2.32619   2.39762   2.49033   2.72511   2.75795
 Alpha virt. eigenvalues --    2.93634   3.02522   3.08174   3.08224   3.11865
 Alpha virt. eigenvalues --    3.13937   3.17794   3.22379   3.23056   3.27804
 Alpha virt. eigenvalues --    3.41161   3.48301   3.54013   3.56011   3.62435
 Alpha virt. eigenvalues --    3.65170   3.66163   3.71568   3.74805   3.83471
 Alpha virt. eigenvalues --    3.83949   3.87120   3.87576   3.87747   3.91577
 Alpha virt. eigenvalues --    3.94117   3.96433   4.01854   4.02270   4.03038
 Alpha virt. eigenvalues --    4.03484   4.08612   4.14908   4.18937   4.25168
 Alpha virt. eigenvalues --    4.26121   4.27030   4.27739   4.30083   4.31065
 Alpha virt. eigenvalues --    4.32461   4.34690   4.34888   4.36290   4.41027
 Alpha virt. eigenvalues --    4.45628   4.46937   4.48102   4.50906   4.52680
 Alpha virt. eigenvalues --    4.54065   4.54726   4.56236   4.60794   4.63041
 Alpha virt. eigenvalues --    4.67512   4.67683   4.69886   4.70287   4.72112
 Alpha virt. eigenvalues --    4.85503   4.87456   4.93648   4.94435   5.00996
 Alpha virt. eigenvalues --    5.03150   5.04053   5.08739   5.18285   5.19965
 Alpha virt. eigenvalues --    5.24504   5.26452   5.27737   5.28122   5.32669
 Alpha virt. eigenvalues --    5.44164   5.45173   5.53661   5.58059   5.58100
 Alpha virt. eigenvalues --    5.62725   5.65804   5.69610   5.72374   5.73054
 Alpha virt. eigenvalues --    5.74031   5.74912   5.88953   5.89507   5.90817
 Alpha virt. eigenvalues --    5.94605   5.97530   6.14258   6.25131   6.28250
 Alpha virt. eigenvalues --    6.38533   6.59889   6.74077  11.21456
          Condensed to atoms (all electrons):
               1          2          3          4          5          6
     1  C    5.050649   0.517739   0.315588  -0.130909   0.432574  -0.045226
     2  C    0.517739   5.050649  -0.130909   0.315588  -0.045226   0.432574
     3  C    0.315588  -0.130909   4.739366   0.334702  -0.037984   0.019758
     4  C   -0.130909   0.315588   0.334702   4.739366   0.019758  -0.037984
     5  H    0.432574  -0.045226  -0.037984   0.019758   0.610798  -0.005571
     6  H   -0.045226   0.432574   0.019758  -0.037984  -0.005571   0.610798
     7  H   -0.046136   0.010187   0.429488  -0.032563  -0.000501  -0.000982
     8  H    0.010187  -0.046136  -0.032563   0.429488  -0.000982  -0.000501
     9  H   -0.046136   0.010187   0.429488  -0.032563  -0.000501  -0.000982
    10  H    0.010187  -0.046136  -0.032563   0.429488  -0.000982  -0.000501
               7          8          9         10
     1  C   -0.046136   0.010187  -0.046136   0.010187
     2  C    0.010187  -0.046136   0.010187  -0.046136
     3  C    0.429488  -0.032563   0.429488  -0.032563
     4  C   -0.032563   0.429488  -0.032563   0.429488
     5  H   -0.000501  -0.000982  -0.000501  -0.000982
     6  H   -0.000982  -0.000501  -0.000982  -0.000501
     7  H    0.635245  -0.000748  -0.032528   0.001402
     8  H   -0.000748   0.635245   0.001402  -0.032528
     9  H   -0.032528   0.001402   0.635245  -0.000748
    10  H    0.001402  -0.032528  -0.000748   0.635245
 Mulliken charges:
               1
     1  C   -0.068516
     2  C   -0.068516
     3  C   -0.034373
     4  C   -0.034373
     5  H    0.028617
     6  H    0.028617
     7  H    0.037136
     8  H    0.037136
     9  H    0.037136
    10  H    0.037136
 Sum of Mulliken charges =   0.00000
 Mulliken charges with hydrogens summed into heavy atoms:
               1
     1  C   -0.039899
     2  C   -0.039899
     3  C    0.039899
     4  C    0.039899
 Electronic spatial extent (au):  <R**2>=            235.3348
 Charge=              0.0000 electrons
 Dipole moment (field-independent basis, Debye):
    X=             -0.0000    Y=             -0.0000    Z=             -0.1763  Tot=              0.1763
 Quadrupole moment (field-independent basis, Debye-Ang):
   XX=            -26.3187   YY=            -24.4545   ZZ=            -25.0332
   XY=             -0.0000   XZ=             -0.0000   YZ=             -0.0000
 Traceless Quadrupole moment (field-independent basis, Debye-Ang):
   XX=             -1.0499   YY=              0.8143   ZZ=              0.2356
   XY=             -0.0000   XZ=             -0.0000   YZ=             -0.0000
 Octapole moment (field-independent basis, Debye-Ang**2):
  XXX=              0.0000  YYY=             -0.0000  ZZZ=              1.7844  XYY=              0.0000
  XXY=              0.0000  XXZ=             -2.9924  XZZ=              0.0000  YZZ=              0.0000
  YYZ=              1.8644  XYZ=              0.0000
 Hexadecapole moment (field-independent basis, Debye-Ang**3):
 XXXX=            -45.1532 YYYY=           -142.4109 ZZZZ=           -148.5251 XXXY=             -0.0000
 XXXZ=             -0.0000 YYYX=             -0.0000 YYYZ=              0.0000 ZZZX=             -0.0000
 ZZZY=              0.0000 XXYY=            -30.4440 XXZZ=            -33.4670 YYZZ=            -43.6749
 XXYZ=              0.0000 YYXZ=             -0.0000 ZZXY=              0.0000
 N-N= 1.133750676595D+02 E-N=-5.882520811797D+02  KE= 1.553618337178D+02
 Symmetry A1   KE= 7.720974377552D+01
 Symmetry A2   KE= 2.122787748009D+00
 Symmetry B1   KE= 4.044068587250D+00
 Symmetry B2   KE= 7.198523360700D+01
 1\1\GINC-GAMBA\FOpt\RB3LYP\Gen\C4H6\IRIKURA\16-Jun-2022\0\\# b3lyp/gen
[...]
     Eigenvalues ---    0.08051   0.09505   0.09647   0.18364   0.19786
     Eigenvalues ---    0.26278   0.27477   0.32648   0.32791   0.33710
     Eigenvalues ---    0.33843   0.35698   0.36148   0.52451
 Angle between quadratic step and forces=  33.90 degrees.
 Linear search not attempted -- first point.
 Iteration  1 RMS(Cart)=  0.00069388 RMS(Int)=  0.00000063
 Iteration  2 RMS(Cart)=  0.00000061 RMS(Int)=  0.00000005
 ClnCor:  largest displacement from symmetrization is 7.55D-09 for atom    10.
 Variable       Old X    -DE/DX   Delta X   Delta X   Delta X     New X
                                 (Linear)    (Quad)   (Total)
    R1        2.52191   0.00022   0.00000   0.00040   0.00040   2.52231
    R2        2.86332   0.00008   0.00000   0.00024   0.00024   2.86356
    R3        2.04392   0.00007   0.00000   0.00022   0.00022   2.04414
    R4        2.86332   0.00008   0.00000   0.00024   0.00024   2.86356
    R5        2.04392   0.00007   0.00000   0.00022   0.00022   2.04414
    R6        2.96576   0.00017   0.00000   0.00092   0.00092   2.96668
    R7        2.06256  -0.00004   0.00000  -0.00018  -0.00018   2.06237
    R8        2.06256  -0.00004   0.00000  -0.00018  -0.00018   2.06237
    R9        2.06256  -0.00004   0.00000  -0.00018  -0.00018   2.06237
   R10        2.06256  -0.00004   0.00000  -0.00018  -0.00018   2.06237
    A1        1.64838  -0.00001   0.00000   0.00009   0.00009   1.64847
    A2        2.33079  -0.00016   0.00000  -0.00176  -0.00176   2.32903
    A3        2.30401   0.00017   0.00000   0.00168   0.00168   2.30569
    A4        1.64838  -0.00001   0.00000   0.00009   0.00009   1.64847
    A5        2.33079  -0.00016   0.00000  -0.00176  -0.00176   2.32903
    A6        2.30401   0.00017   0.00000   0.00168   0.00168   2.30569
    A7        1.49321   0.00001   0.00000  -0.00009  -0.00009   1.49313
    A8        2.02294  -0.00000   0.00000   0.00002   0.00002   2.02296
    A9        2.02294  -0.00000   0.00000   0.00002   0.00002   2.02296
   A10        2.00422  -0.00003   0.00000  -0.00056  -0.00056   2.00366
   A11        2.00422  -0.00003   0.00000  -0.00056  -0.00056   2.00366
   A12        1.89470   0.00004   0.00000   0.00085   0.00085   1.89556
   A13        1.49321   0.00001   0.00000  -0.00009  -0.00009   1.49313
   A14        2.02294  -0.00000   0.00000   0.00002   0.00002   2.02296
   A15        2.02294  -0.00000   0.00000   0.00002   0.00002   2.02296
   A16        2.00422  -0.00003   0.00000  -0.00056  -0.00056   2.00366
   A17        2.00422  -0.00003   0.00000  -0.00056  -0.00056   2.00366
   A18        1.89470   0.00004   0.00000   0.00085   0.00085   1.89556
    D1       -0.00000   0.00000   0.00000  -0.00000   0.00000   0.00000
    D2        3.14159  -0.00000   0.00000  -0.00000   0.00000   3.14159
    D3        3.14159   0.00000   0.00000  -0.00000   0.00000   3.14159
    D4        0.00000   0.00000   0.00000   0.00000   0.00000   0.00000
    D5        0.00000  -0.00000   0.00000   0.00000   0.00000   0.00000
    D6       -2.01590   0.00003   0.00000   0.00066   0.00066  -2.01523
    D7        2.01590  -0.00003   0.00000  -0.00066  -0.00066   2.01523
    D8        3.14159  -0.00000   0.00000   0.00000   0.00000   3.14159
    D9        1.12570   0.00003   0.00000   0.00066   0.00066   1.12636
   D10       -1.12570  -0.00003   0.00000  -0.00066  -0.00066  -1.12636
   D11        0.00000  -0.00000   0.00000   0.00000   0.00000   0.00000
   D12       -2.01590   0.00003   0.00000   0.00066   0.00066  -2.01523
   D13        2.01590  -0.00003   0.00000  -0.00066  -0.00066   2.01523
   D14        3.14159   0.00000   0.00000   0.00000   0.00000   3.14159
   D15        1.12570   0.00003   0.00000   0.00066   0.00066   1.12636
   D16       -1.12570  -0.00003   0.00000  -0.00066  -0.00066  -1.12636
   D17       -0.00000   0.00000   0.00000  -0.00000   0.00000   0.00000
   D18        2.03407  -0.00000   0.00000  -0.00010  -0.00010   2.03397
   D19       -2.03407   0.00000   0.00000   0.00010   0.00010  -2.03397
   D20        2.03407  -0.00000   0.00000  -0.00010  -0.00010   2.03397
   D21       -2.21504  -0.00001   0.00000  -0.00020  -0.00020  -2.21524
   D22        0.00000   0.00000   0.00000  -0.00000   0.00000   0.00000
   D23       -2.03407   0.00000   0.00000   0.00010   0.00010  -2.03397
   D24       -0.00000  -0.00000   0.00000  -0.00000   0.00000   0.00000
   D25        2.21504   0.00001   0.00000   0.00020   0.00020   2.21524
         Item               Value     Threshold  Converged?
 Maximum Force            0.000221     0.000450     YES
 RMS     Force            0.000065     0.000300     YES
 Maximum Displacement     0.002264     0.001800     NO 
 RMS     Displacement     0.000694     0.001200     YES
 Predicted change in Energy=-8.724547D-07
                           ----------------------------
                           ! Non-Optimized Parameters !
                           ! (Angstroms and Degrees)  !
 --------------------------                            --------------------------
 ! Name  Definition              Value          Derivative Info.                !
 --------------------------------------------------------------------------------
 ! R1    R(1,2)                  1.3347         -DE/DX =    0.0002              !
 ! R2    R(1,3)                  1.5153         -DE/DX =    0.0001              !
 ! R3    R(1,5)                  1.0817         -DE/DX =    0.0001              !
 ! R4    R(2,4)                  1.5153         -DE/DX =    0.0001              !
 ! R5    R(2,6)                  1.0817         -DE/DX =    0.0001              !
 ! R6    R(3,4)                  1.5699         -DE/DX =    0.0002              !
 ! R7    R(3,7)                  1.0914         -DE/DX =    0.0                 !
 ! R8    R(3,9)                  1.0914         -DE/DX =    0.0                 !
 ! R9    R(4,8)                  1.0914         -DE/DX =    0.0                 !
 ! R10   R(4,10)                 1.0914         -DE/DX =    0.0                 !
 ! A1    A(2,1,3)               94.4501         -DE/DX =    0.0                 !
 ! A2    A(2,1,5)              133.4435         -DE/DX =   -0.0002              !
 ! A3    A(3,1,5)              132.1064         -DE/DX =    0.0002              !
 ! A4    A(1,2,4)               94.4501         -DE/DX =    0.0                 !
 ! A5    A(1,2,6)              133.4435         -DE/DX =   -0.0002              !
 ! A6    A(4,2,6)              132.1064         -DE/DX =    0.0002              !
 ! A7    A(1,3,4)               85.5499         -DE/DX =    0.0                 !
 ! A8    A(1,3,7)              115.9068         -DE/DX =    0.0                 !
 ! A9    A(1,3,9)              115.9068         -DE/DX =    0.0                 !
 ! A10   A(4,3,7)              114.8015         -DE/DX =    0.0                 !
 ! A11   A(4,3,9)              114.8015         -DE/DX =    0.0                 !
 ! A12   A(7,3,9)              108.6075         -DE/DX =    0.0                 !
 ! A13   A(2,4,3)               85.5499         -DE/DX =    0.0                 !
 ! A14   A(2,4,8)              115.9068         -DE/DX =    0.0                 !
 ! A15   A(2,4,10)             115.9068         -DE/DX =    0.0                 !
 ! A16   A(3,4,8)              114.8015         -DE/DX =    0.0                 !
 ! A17   A(3,4,10)             114.8015         -DE/DX =    0.0                 !
 ! A18   A(8,4,10)             108.6075         -DE/DX =    0.0                 !
 ! D1    D(3,1,2,4)              0.0            -DE/DX =    0.0                 !
 ! D2    D(3,1,2,6)            180.0            -DE/DX =    0.0                 !
 ! D3    D(5,1,2,4)            180.0            -DE/DX =    0.0                 !
 ! D4    D(5,1,2,6)              0.0            -DE/DX =    0.0                 !
 ! D5    D(2,1,3,4)              0.0            -DE/DX =    0.0                 !
 ! D6    D(2,1,3,7)           -115.4643         -DE/DX =    0.0                 !
 ! D7    D(2,1,3,9)            115.4643         -DE/DX =    0.0                 !
 ! D8    D(5,1,3,4)            180.0            -DE/DX =    0.0                 !
 ! D9    D(5,1,3,7)             64.5357         -DE/DX =    0.0                 !
 ! D10   D(5,1,3,9)            -64.5357         -DE/DX =    0.0                 !
 ! D11   D(1,2,4,3)              0.0            -DE/DX =    0.0                 !
 ! D12   D(1,2,4,8)           -115.4643         -DE/DX =    0.0                 !
 ! D13   D(1,2,4,10)           115.4643         -DE/DX =    0.0                 !
 ! D14   D(6,2,4,3)            180.0            -DE/DX =    0.0                 !
 ! D15   D(6,2,4,8)             64.5357         -DE/DX =    0.0                 !
 ! D16   D(6,2,4,10)           -64.5357         -DE/DX =    0.0                 !
 ! D17   D(1,3,4,2)              0.0            -DE/DX =    0.0                 !
 ! D18   D(1,3,4,8)            116.5381         -DE/DX =    0.0                 !
 ! D19   D(1,3,4,10)          -116.5381         -DE/DX =    0.0                 !
 ! D20   D(7,3,4,2)            116.5381         -DE/DX =    0.0                 !
 ! D21   D(7,3,4,8)           -126.9238         -DE/DX =    0.0                 !
 ! D22   D(7,3,4,10)             0.0            -DE/DX =    0.0                 !
 ! D23   D(9,3,4,2)           -116.5381         -DE/DX =    0.0                 !
 ! D24   D(9,3,4,8)              0.0            -DE/DX =    0.0                 !
 ! D25   D(9,3,4,10)           126.9238         -DE/DX =    0.0                 !
 --------------------------------------------------------------------------------
 GradGradGradGradGradGradGradGradGradGradGradGradGradGradGradGradGradGrad


 ----------------------------------------------------------------------

 Electric dipole moment (input orientation):
 (Debye = 10**-18 statcoulomb cm , SI units = C m)
                  (au)            (Debye)         (10**-30 SI)
   Tot        0.693711D-01      0.176324D+00      0.588153D+00
   x          0.000000D+00      0.000000D+00      0.000000D+00
   y          0.000000D+00      0.000000D+00      0.000000D+00
   z         -0.693711D-01     -0.176324D+00     -0.588153D+00

 Dipole polarizability, Alpha (input orientation).
 (esu units = cm**3 , SI units = C**2 m**2 J**-1)
 Alpha(0;0):
               (au)            (10**-24 esu)      (10**-40 SI)
   iso        0.454767D+02      0.673895D+01      0.749810D+01
   aniso      0.156272D+02      0.231571D+01      0.257658D+01
   xx         0.355086D+02      0.526183D+01      0.585458D+01
   yx         0.000000D+00      0.000000D+00      0.000000D+00
   yy         0.530838D+02      0.786621D+01      0.875234D+01
   zx         0.000000D+00      0.000000D+00      0.000000D+00
   zy         0.000000D+00      0.000000D+00      0.000000D+00
   zz         0.478377D+02      0.708882D+01      0.788737D+01

 ----------------------------------------------------------------------

 Dipole orientation:
     6         -0.00000000         -1.26095465         -1.53337590
     6         -0.00000000          1.26095465         -1.53337590
     6          0.00000000         -1.48288038          1.32133543
     6          0.00000000          1.48288038          1.32133543
     1         -0.00000000         -2.66904988         -3.01489080
     1         -0.00000000          2.66904988         -3.01489080
     1          1.67453468         -2.34911412          2.15782865
     1         -1.67453468          2.34911412          2.15782865
     1         -1.67453468         -2.34911412          2.15782865
     1          1.67453468          2.34911412          2.15782865

 Electric dipole moment (dipole orientation):
 (Debye = 10**-18 statcoulomb cm , SI units = C m)
                  (au)            (Debye)         (10**-30 SI)
   Tot        0.693711D-01      0.176324D+00      0.588153D+00
   x          0.000000D+00      0.000000D+00      0.000000D+00
   y          0.000000D+00      0.000000D+00      0.000000D+00
   z          0.693711D-01      0.176324D+00      0.588153D+00

 Dipole polarizability, Alpha (dipole orientation).
 (esu units = cm**3 , SI units = C**2 m**2 J**-1)
 Alpha(0;0):
               (au)            (10**-24 esu)      (10**-40 SI)
   iso        0.454767D+02      0.673895D+01      0.749810D+01
   aniso      0.156272D+02      0.231571D+01      0.257658D+01
   xx         0.355086D+02      0.526183D+01      0.585458D+01
   yx         0.000000D+00      0.000000D+00      0.000000D+00
   yy         0.530838D+02      0.786621D+01      0.875234D+01
   zx         0.000000D+00      0.000000D+00      0.000000D+00
   zy         0.000000D+00      0.000000D+00      0.000000D+00
   zz         0.478377D+02      0.708882D+01      0.788737D+01

 ----------------------------------------------------------------------
 1\1\GINC-GAMBA\Freq\RB3LYP\Gen\C4H6\IRIKURA\16-Jun-2022\0\\#N Geom=All
 Check Guess=TCheck SCRF=Check GenChk RB3LYP/ChkBas Freq\\cyclobutene, 
 B3LYP/pcseg-2\\0,1\C,0.,0.667268466,0.8114275825\C,0.,-0.667268466,0.8
 114275825\C,0.,0.7847065061,-0.6992205953\C,0.,-0.7847065061,-0.699220
 5953\H,0.,1.4124003726,1.5954115067\H,0.,-1.4124003726,1.5954115067\H,
 0.8861255924,1.2430976582,-1.141873747\H,-0.8861255924,-1.2430976582,-
 1.141873747\H,-0.8861255924,1.2430976582,-1.141873747\H,0.8861255924,-
 1.2430976582,-1.141873747\\Version=ES64L-G16RevB.01\State=1-A1\HF=-156
 .036011\RMSD=8.709e-10\RMSF=1.282e-04\ZeroPoint=0.0862307\Thermal=0.09
 00521\Dipole=0.,0.,-0.0693711\DipoleDeriv=-0.2634832,0.,0.,0.,0.057986
 ,-0.0379459,0.,0.1230009,0.0661364,-0.2634832,0.,0.,0.,0.057986,0.0379
 459,0.,-0.1230009,0.0661364,0.2243412,0.,0.,0.,-0.0654913,-0.0745121,0
 .,-0.0386762,0.0544616,0.2243412,0.,0.,0.,-0.0654912,0.0745121,0.,0.03
 86762,0.0544616,0.1805905,0.,0.,0.,0.0025792,-0.0870429,0.,-0.1128652,
 -0.0782373,0.1805905,0.,0.,0.,0.0025792,0.0870429,0.,0.1128652,-0.0782
 373,-0.0707242,-0.0981953,0.09401,-0.0549233,0.002463,0.0554027,0.0549
 274,0.0874364,-0.0211804,-0.0707242,-0.0981953,-0.09401,-0.0549233,0.0
 02463,-0.0554027,-0.0549274,-0.0874364,-0.0211804,-0.0707242,0.0981953
 ,-0.09401,0.0549233,0.002463,0.0554027,-0.0549274,0.0874364,-0.0211804
 ,-0.0707242,0.0981953,0.09401,0.0549233,0.002463,-0.0554027,0.0549274,
 -0.0874364,-0.0211804\Polar=35.5085876,0.,53.0838339,0.,0.,47.8377149\
 Quadrupole=-0.7805554,0.6054052,0.1751502,0.,0.,0.\PG=C02V [SGV(C4H2),
 X(H4)]\NImag=0\\0.13762965,0.,0.83682786,0.,0.14997327,0.54617540,-0.0
 5759165,0.,0.,0.13762965,0.,-0.53492088,0.01164981,0.,0.83682786,0.,-0
 .01164981,-0.07249592,0.,-0.14997327,0.54617540,-0.07055483,0.,0.,0.01
 293363,0.,0.,0.57384821,0.,-0.04863404,-0.00654194,0.,-0.05303060,0.04
 705110,0.,0.43753971,0.,0.02067794,-0.19147099,0.,0.04581815,-0.048911
 53,0.,-0.12227074,0.45684843,0.01293363,0.,0.,-0.07055483,0.,0.,-0.090
 51972,0.,0.,0.57384821,0.,-0.05303060,-0.04705110,0.,-0.04863404,0.006
 54194,0.,-0.14237701,-0.00787518,0.,0.43753971,0.,-0.04581815,-0.04891
 153,0.,-0.02067794,-0.19147099,0.,0.00787518,-0.04403156,0.,0.12227074
 ,0.45684843,-0.03855829,0.,0.,0.00677522,0.,0.,-0.00024331,0.,0.,0.015
 35105,0.,0.,0.02251636,0.,-0.19375550,-0.13385689,0.,-0.00330924,-0.02
 209184,0.,0.00555667,0.00406147,0.,-0.00381426,-0.00122505,0.,0.194987
 86,0.,-0.13899995,-0.20803519,0.,0.00332866,0.00403999,0.,-0.01474368,
 -0.00093014,0.,-0.00233882,-0.00254518,0.,0.15527481,0.20754525,0.0067
 7522,0.,0.,-0.03855829,0.,0.,0.01535105,0.,0.,-0.00024331,0.,0.,-0.004
 09442,0.,0.,0.02251636,0.,-0.00330924,0.02209184,0.,-0.19375550,0.1338
 5689,0.,-0.00381426,0.00122505,0.,0.00555667,-0.00406147,0.,0.00022477
 ,-0.00040633,0.,0.19498786,0.,-0.00332866,0.00403999,0.,0.13899995,-0.
 20803519,0.,0.00233882,-0.00254518,0.,0.01474368,-0.00093014,0.,0.0004
 0633,0.00050685,0.,-0.15527481,0.20754525,0.00339632,0.00080072,0.0005
 0829,0.00128681,0.00086938,0.00072615,-0.22217886,-0.08750438,0.082334
 69,0.00177135,0.00197334,-0.00223043,-0.00015145,-0.00032453,0.0005465
 2,-0.00072186,0.00020179,-0.00031229,0.23767459,0.00271668,0.00010837,
 0.00197456,-0.00074010,-0.00169717,0.00010706,-0.08681725,-0.08907703,
 0.03993747,-0.02305182,-0.00854321,0.01075581,-0.00026210,0.00006516,0
 .00003045,0.00172924,-0.00001031,0.00108780,0.09511931,0.09427720,0.02
 486641,0.01469635,-0.01046760,-0.00015273,0.00012367,-0.00418327,0.085
 44183,0.04144190,-0.08519837,-0.00493165,-0.00170373,0.00071886,-0.000
 31376,-0.00024607,-0.00030382,-0.00244784,0.00103834,0.00001303,-0.092
 23553,-0.04921207,0.09218518,0.00128681,0.00086938,-0.00072615,0.00339
 632,0.00080072,-0.00050829,0.00177135,0.00197334,0.00223043,-0.2221788
 6,-0.08750438,-0.08233469,-0.00072186,0.00020179,0.00031229,-0.0001514
 5,-0.00032453,-0.00054652,0.00019596,0.00008520,-0.00016872,0.23767459
 ,-0.00074010,-0.00169717,-0.00010706,0.00271668,0.00010837,-0.00197456
 ,-0.02305182,-0.00854321,-0.01075581,-0.08681725,-0.08907703,-0.039937
 47,0.00172924,-0.00001031,-0.00108780,-0.00026210,0.00006516,-0.000030
 45,0.00008520,-0.00222569,-0.00146339,0.09511931,0.09427720,0.00015273
 ,-0.00012367,-0.00418327,-0.02486641,-0.01469635,-0.01046760,0.0049316
 5,0.00170373,0.00071886,-0.08544183,-0.04144190,-0.08519837,0.00244784
 ,-0.00103834,0.00001303,0.00031376,0.00024607,-0.00030382,0.00016872,0
 .00146339,0.00051818,0.09223553,0.04921207,0.09218518,0.00339632,-0.00
 080072,-0.00050829,0.00128681,-0.00086938,-0.00072615,-0.22217886,0.08
 750438,-0.08233469,0.00177135,-0.00197335,0.00223043,-0.00015145,0.000
 32453,-0.00054652,-0.00072186,-0.00020179,0.00031229,-0.02189175,0.010
 94946,-0.01027594,0.00061890,0.00027138,-0.00021794,0.23767459,-0.0027
 1668,0.00010837,0.00197456,0.00074010,-0.00169717,0.00010706,0.0868172
 5,-0.08907703,0.03993747,0.02305182,-0.00854321,0.01075581,0.00026210,
 0.00006516,0.00003045,-0.00172924,-0.00001031,0.00108780,-0.01094946,0
 .00617497,-0.00540973,-0.00027138,0.00092771,-0.00073473,-0.09511931,0
 .09427720,-0.02486641,0.01469635,-0.01046760,0.00015273,0.00012367,-0.
 00418327,-0.08544183,0.04144190,-0.08519837,0.00493165,-0.00170373,0.0
 0071885,0.00031376,-0.00024607,-0.00030382,0.00244784,0.00103834,0.000
 01303,0.01027594,-0.00540973,0.00611116,-0.00021794,0.00073473,0.00060
 664,0.09223553,-0.04921207,0.09218518,0.00128681,-0.00086938,0.0007261
 5,0.00339632,-0.00080072,0.00050829,0.00177135,-0.00197335,-0.00223043
 ,-0.22217886,0.08750438,0.08233469,-0.00072186,-0.00020179,-0.00031229
 ,-0.00015145,0.00032453,0.00054652,0.00061890,0.00027138,0.00021794,-0
 .02189175,0.01094946,0.01027594,0.00019596,-0.00008520,0.00016872,0.23
 767459,0.00074010,-0.00169717,-0.00010706,-0.00271668,0.00010837,-0.00
 197456,0.02305182,-0.00854321,-0.01075581,0.08681725,-0.08907703,-0.03
 993747,-0.00172924,-0.00001031,-0.00108780,0.00026210,0.00006516,-0.00
 003045,-0.00027138,0.00092771,0.00073473,-0.01094946,0.00617497,0.0054
 0973,-0.00008520,-0.00222569,-0.00146339,-0.09511931,0.09427720,-0.000
 15273,-0.00012367,-0.00418327,0.02486641,-0.01469635,-0.01046760,-0.00
 493165,0.00170373,0.00071885,0.08544183,-0.04144190,-0.08519837,-0.002
 44784,-0.00103834,0.00001303,-0.00031376,0.00024607,-0.00030382,0.0002
 1794,-0.00073473,0.00060664,-0.01027594,0.00540973,0.00611116,-0.00016
 872,0.00146339,0.00051818,-0.09223553,0.04921207,0.09218518\\0.,-0.000
 32924,0.00008358,0.,0.00032924,0.00008358,0.,-0.00026356,0.00013929,0.
 ,0.00026356,0.00013929,0.,0.00006389,-0.00016275,0.,-0.00006389,-0.000
 16275,0.00000197,0.00007082,-0.00003006,-0.00000197,-0.00007082,-0.000
 03006,-0.00000197,0.00007082,-0.00003006,0.00000197,-0.00007082,-0.000
 03006\\\@


 LOGIC IS A SYSTEMATIC METHOD OF COMING TO THE
 WRONG CONCLUSION WITH CONFIDENCE.
 Job cpu time:       0 days  0 hours  9 minutes  6.7 seconds.
 Elapsed time:       0 days  0 hours  0 minutes 45.6 seconds.
 File lengths (MBytes):  RWF=     25 Int=      0 D2E=      0 Chk=      5 Scr=      1
 Normal termination of Gaussian 16 at Thu Jun 16 10:04:20 2022.
