 Entering Gaussian System, Link 0=g16
 AtFile(1): pcseg2.gbs
            -H     0
            S   4   1.00
                  0.754732D+02           0.427821D-02
                  0.113575D+02           0.328672D-01
                  0.260081D+01           0.159578D+00
                  0.735503D+00           0.500000D+00
            S   1   1.00
                  0.231761D+00           1.0000000
            S   1   1.00
                  0.741675D-01           1.0000000
            P   1   1.00
                  0.160000D+01           1.0000000
            P   1   1.00
                  0.450000D+00           1.0000000
            D   1   1.00
                  0.125000D+01           1.0000000
            ****
            -C     0
            S   7   1.00
                  0.731999D+04           0.695369D-03
                  0.109818D+04           0.537138D-02
                  0.250014D+03           0.274734D-01
                  0.707586D+02           0.105078D+00
                  0.228595D+02           0.291262D+00
                  0.803936D+01           0.500000D+00
                  0.289309D+01           0.362224D+00
            S   2   1.00
                  0.521640D+01          -0.957844D-01
                  0.556124D+00           0.500000D+00
            S   1   1.00
                  0.228813D+00           1.0000000
            S   1   1.00
                  0.936338D-01           1.0000000
            P   4   1.00
                  0.339855D+02           0.818395D-02
                  0.772957D+01           0.586921D-01
                  0.224954D+01           0.222514D+00
                  0.767681D+00           0.500000D+00
            P   1   1.00
                  0.263283D+00           1.0000000
            P   1   1.00
                  0.848744D-01           1.0000000
            D   1   1.00
                  0.140000D+01           1.0000000
            D   1   1.00
                  0.450000D+00           1.0000000
            F   1   1.00
                  0.950000D+00           1.0000000
            ****
            -O     0
            S   7   1.00
                  0.135887D+05           0.665492D-03
                  0.203847D+04           0.514222D-02
                  0.464041D+03           0.263472D-01
                  0.131339D+03           0.101500D+00
                  0.425340D+02           0.285877D+00
                  0.150429D+02           0.500000D+00
                  0.546616D+01           0.368211D+00
            S   2   1.00
                  0.100915D+02          -0.100084D+00
                  0.110429D+01           0.500000D+00
            S   1   1.00
                  0.448082D+00           1.0000000
            S   1   1.00
                  0.175325D+00           1.0000000
            P   4   1.00
                  0.608220D+02           0.908253D-02
                  0.140332D+02           0.645878D-01
                  0.418244D+01           0.241502D+00
                  0.142490D+01           0.500000D+00
            P   1   1.00
                  0.478741D+00           1.0000000
            P   1   1.00
                  0.146257D+00           1.0000000
            D   1   1.00
                  0.220000D+01           1.0000000
            D   1   1.00
                  0.650000D+00           1.0000000
            F   1   1.00
                  0.110000D+01           1.0000000
            ****
            -N     0
            S   7   1.00
                  0.101643D+05           0.682757D-03
                  0.152481D+04           0.527488D-02
                  0.347119D+03           0.270037D-01
                  0.982389D+02           0.103673D+00
                  0.317799D+02           0.289575D+00
                  0.112240D+02           0.500000D+00
                  0.406611D+01           0.364621D+00
            S   2   1.00
                  0.747898D+01          -0.975681D-01
                  0.805040D+00           0.500000D+00
            S   1   1.00
                  0.324626D+00           1.0000000
            S   1   1.00
                  0.128132D+00           1.0000000
            P   4   1.00
                  0.482704D+02           0.829547D-02
                  0.110815D+02           0.596223D-01
                  0.326643D+01           0.227889D+00
                  0.111680D+01           0.500000D+00
            P   1   1.00
                  0.382049D+00           1.0000000
            P   1   1.00
                  0.121222D+00           1.0000000
            D   1   1.00
                  0.180000D+01           1.0000000
            D   1   1.00
                  0.550000D+00           1.0000000
            F   1   1.00
                  0.102000D+01           1.0000000
            ****
            -F     0
            S   7   1.00
                  0.174507D+05           0.655972D-03
                  0.261768D+04           0.506944D-02
                  0.595857D+03           0.259899D-01
                  0.168651D+03           0.100353D+00
                  0.546654D+02           0.284095D+00
                  0.193717D+02           0.500000D+00
                  0.706202D+01           0.370721D+00
            S   2   1.00
                  0.131197D+02          -0.101997D+00
                  0.145046D+01           0.500000D+00
            S   1   1.00
                  0.588255D+00           1.0000000
            S   1   1.00
                  0.227960D+00           1.0000000
            P   4   1.00
                  0.779407D+02           0.931135D-02
                  0.180425D+02           0.663964D-01
                  0.542342D+01           0.246386D+00
                  0.184876D+01           0.500000D+00
            P   1   1.00
                  0.617455D+00           1.0000000
            P   1   1.00
                  0.185496D+00           1.0000000
            D   1   1.00
                  0.280000D+01           1.0000000
            D   1   1.00
                  0.800000D+00           1.0000000
            F   1   1.00
                  0.120000D+01           1.0000000
            ****
            -Cl     0
            S   8   1.00
                  0.154272D+06           0.222473D-03
                  0.231232D+05           0.172590D-02
                  0.526257D+04           0.899286D-02
                  0.148995D+04           0.367724D-01
                  0.485417D+03           0.121446D+00
                  0.174634D+03           0.304148D+00
                  0.672393D+02           0.500000D+00
                  0.265780D+02           0.360252D+00
            S   3   1.00
                  0.131826D+03          -0.531330D-01
                  0.400703D+02          -0.233346D+00
                  0.789448D+01           0.500000D+00
            S   2   1.00
                  0.427711D+01           0.500000D+00
                  0.196233D+01           0.370517D+00
            S   1   1.00
                  0.520793D+00           1.0000000
            S   1   1.00
                  0.181633D+00           1.0000000
            P   7   1.00
                  0.124440D+04           0.988206D-03
                  0.295109D+03           0.829674D-02
                  0.947224D+02           0.430906D-01
                  0.352588D+02           0.148443D+00
                  0.144211D+02           0.344744D+00
                  0.610371D+01           0.500000D+00
                  0.258886D+01           0.348278D+00
            P   2   1.00
                  0.109447D+02          -0.196768D-01
                  0.104413D+01           0.500000D+00
            P   1   1.00
                  0.376184D+00           1.0000000
            P   1   1.00
                  0.120613D+00           1.0000000
            D   1   1.00
                  0.231000D+01           1.0000000
            D   1   1.00
                  0.520000D+00           1.0000000
            F   1   1.00
                  0.720000D+00           1.0000000
            ****
            -S     0
            S   8   1.00
                  0.134700D+06           0.226231D-03
                  0.201904D+05           0.175488D-02
                  0.459528D+04           0.914190D-02
                  0.130109D+04           0.373551D-01
                  0.423902D+03           0.123121D+00
                  0.152485D+03           0.306801D+00
                  0.586925D+02           0.500000D+00
                  0.231461D+02           0.354358D+00
            S   3   1.00
                  0.116327D+03          -0.491772D-01
                  0.352841D+02          -0.215962D+00
                  0.677831D+01           0.500000D+00
            S   2   1.00
                  0.360404D+01           0.500000D+00
                  0.164871D+01           0.366278D+00
            S   1   1.00
                  0.421821D+00           1.0000000
            S   1   1.00
                  0.147554D+00           1.0000000
            P   7   1.00
                  0.104863D+04           0.105273D-02
                  0.248717D+03           0.879338D-02
                  0.797887D+02           0.453358D-01
                  0.296023D+02           0.154476D+00
                  0.120627D+02           0.352366D+00
                  0.507628D+01           0.500000D+00
                  0.213375D+01           0.346429D+00
            P   2   1.00
                  0.928958D+01          -0.185932D-01
                  0.837819D+00           0.500000D+00
            P   1   1.00
                  0.301495D+00           1.0000000
            P   1   1.00
                  0.974740D-01           1.0000000
            D   1   1.00
                  0.210000D+01           1.0000000
            D   1   1.00
                  0.480000D+00           1.0000000
            F   1   1.00
                  0.660000D+00           1.0000000
            ****
            -Br     0
            S    10   1.00
                  0.233625D+07           0.532336D-04
                  0.349961D+06           0.413715D-03
                  0.796444D+05           0.217123D-02
                  0.225555D+05           0.910109D-02
                  0.735546D+04           0.323789D-01
                  0.265352D+04           0.988755D-01
                  0.103517D+04           0.248138D+00
                  0.422205D+03           0.474328D+00
                  0.180035D+03           0.500000D+00
                  0.793308D+02           0.187769D+00
            S    4   1.00
                  0.620834D+03          -0.226511D-01
                  0.190829D+03          -0.109497D+00
                  0.312505D+02           0.500000D+00
                  0.135270D+02           0.492812D+00
            S    2   1.00
                  0.216097D+02          -0.165418D+00
                  0.372566D+01           0.500000D+00
            S    1   1.00
                  0.169770D+01           1.0000000
            S    1   1.00
                  0.489332D+00           1.0000000
            S    1   1.00
                  0.175712D+00           1.0000000
            P    8   1.00
                  0.960829D+04           0.478974D-03
                  0.227618D+04           0.417853D-02
                  0.736723D+03           0.229315D-01
                  0.281579D+03           0.892653D-01
                  0.118395D+03           0.255288D+00
                  0.527481D+02           0.479074D+00
                  0.245098D+02           0.500000D+00
                  0.112009D+02           0.200944D+00
            P    4   1.00
                  0.587849D+02          -0.189674D-01
                  0.918962D+01           0.264104D+00
                  0.413895D+01           0.500000D+00
                  0.184225D+01           0.319316D+00
            P    1   1.00
                  0.713862D+00           1.0000000
            P    1   1.00
                  0.274232D+00           1.0000000
            P    1   1.00
                  0.944411D-01           1.0000000
            D    7   1.00
                  0.398470D+03           0.204066D-02
                  0.118967D+03           0.175171D-01
                  0.450197D+02           0.829708D-01
                  0.190320D+02           0.236284D+00
                  0.855686D+01           0.428468D+00
                  0.382950D+01           0.500000D+00
                  0.166291D+01           0.349360D+00
            D    1   1.00
                  0.672953D+00           1.0000000
            D    1   1.00
                  0.252000D+00           1.0000000
            F    1   1.00
                  0.530000D+00           1.0000000
            ****
            -Si     0
            S    8   1.00
                  0.996133D+05           0.235546D-03
                  0.149311D+05           0.182707D-02
                  0.339820D+04           0.951425D-02
                  0.962140D+03           0.388172D-01
                  0.313430D+03           0.127328D+00
                  0.112683D+03           0.313522D+00
                  0.433372D+02           0.500000D+00
                  0.170029D+02           0.340347D+00
            S    3   1.00
                  0.884208D+02          -0.404451D-01
                  0.266756D+02          -0.178059D+00
                  0.479640D+01           0.500000D+00
            S    2   1.00
                  0.239385D+01           0.500000D+00
                  0.108333D+01           0.338016D+00
            S    1   1.00
                  0.252420D+00           1.0000000
            S    1   1.00
                  0.891210D-01           1.0000000
            P    7   1.00
                  0.709901D+03           0.123028D-02
                  0.168426D+03           0.101366D-01
                  0.539946D+02           0.511840D-01
                  0.198646D+02           0.169967D+00
                  0.801369D+01           0.370717D+00
                  0.331870D+01           0.500000D+00
                  0.136112D+01           0.344128D+00
            P    2   1.00
                  0.622158D+01          -0.166609D-01
                  0.503049D+00           0.500000D+00
            P    1   1.00
                  0.179848D+00           1.0000000
            P    1   1.00
                  0.591912D-01           1.0000000
            D    1   1.00
                  0.168000D+01           1.0000000
            D    1   1.00
                  0.380000D+00           1.0000000
            F    1   1.00
                  0.540000D+00           1.0000000
            ****
            -P     0
            S    8   1.00
                  0.116416D+06           0.230715D-03
                  0.174500D+05           0.178960D-02
                  0.397149D+04           0.932116D-02
                  0.112447D+04           0.380591D-01
                  0.366347D+03           0.125148D+00
                  0.131757D+03           0.310022D+00
                  0.506988D+02           0.500000D+00
                  0.199436D+02           0.347528D+00
            S    3   1.00
                  0.101878D+03          -0.446755D-01
                  0.308249D+02          -0.196376D+00
                  0.573688D+01           0.500000D+00
            S    2   1.00
                  0.296868D+01           0.500000D+00
                  0.135315D+01           0.355098D+00
            S    1   1.00
                  0.332196D+00           1.0000000
            S    1   1.00
                  0.116229D+00           1.0000000
            P    7   1.00
                  0.873928D+03           0.112375D-02
                  0.207298D+03           0.933330D-02
                  0.664628D+02           0.477213D-01
                  0.245665D+02           0.160733D+00
                  0.996820D+01           0.359760D+00
                  0.416536D+01           0.500000D+00
                  0.173022D+01           0.346593D+00
            P    2   1.00
                  0.772530D+01          -0.175718D-01
                  0.657252D+00           0.500000D+00
            P    1   1.00
                  0.239903D+00           1.0000000
            P    1   1.00
                  0.800988D-01           1.0000000
            D    1   1.00
                  0.189000D+01           1.0000000
            D    1   1.00
                  0.430000D+00           1.0000000
            F    1   1.00
                  0.600000D+00           1.0000000
            ****
            
 Initial command:
 /usr/local/apps/g16_b01_avx/g16/l1.exe "/wrk/irikura/Gau-169961.inp" -scrdir="/wrk/irikura/"
 Entering Link 1 = /usr/local/apps/g16_b01_avx/g16/l1.exe PID=    169963.
  
 Copyright (c) 1988-2017, Gaussian, Inc.  All Rights Reserved.
  
 This is part of the Gaussian(R) 16 program.  It is based on
 the Gaussian(R) 09 system (copyright 2009, Gaussian, Inc.),
 the Gaussian(R) 03 system (copyright 2003, Gaussian, Inc.),
 the Gaussian(R) 98 system (copyright 1998, Gaussian, Inc.),
 the Gaussian(R) 94 system (copyright 1995, Gaussian, Inc.),
 the Gaussian 92(TM) system (copyright 1992, Gaussian, Inc.),
 the Gaussian 90(TM) system (copyright 1990, Gaussian, Inc.),
 the Gaussian 88(TM) system (copyright 1988, Gaussian, Inc.),
 the Gaussian 86(TM) system (copyright 1986, Carnegie Mellon
 University), and the Gaussian 82(TM) system (copyright 1983,
 Carnegie Mellon University). Gaussian is a federally registered
 trademark of Gaussian, Inc.
  
 This software contains proprietary and confidential information,
 including trade secrets, belonging to Gaussian, Inc.
  
 This software is provided under written license and may be
 used, copied, transmitted, or stored only in accord with that
 written license.
  
 The following legend is applicable only to US Government
 contracts under FAR:
  
                    RESTRICTED RIGHTS LEGEND
  
 Use, reproduction and disclosure by the US Government is
 subject to restrictions as set forth in subparagraphs (a)
 and (c) of the Commercial Computer Software - Restricted
 Rights clause in FAR 52.227-19.
  
 Gaussian, Inc.
 340 Quinnipiac St., Bldg. 40, Wallingford CT 06492
  
  
 ---------------------------------------------------------------
 Warning -- This program may not be used in any manner that
 competes with the business of Gaussian, Inc. or will provide
 assistance to any competitor of Gaussian, Inc.  The licensee
 of this program is prohibited from giving any competitor of
 Gaussian, Inc. access to this program.  By using this program,
 the user acknowledges that Gaussian, Inc. is engaged in the
 business of creating and licensing software in the field of
 computational chemistry and represents and warrants to the
 licensee that it is not a competitor of Gaussian, Inc. and that
 it will not use this program in any manner prohibited above.
 ---------------------------------------------------------------
  

 Cite this work as:
 Gaussian 16, Revision B.01,
 M. J. Frisch, G. W. Trucks, H. B. Schlegel, G. E. Scuseria, 
 M. A. Robb, J. R. Cheeseman, G. Scalmani, V. Barone, 
 G. A. Petersson, H. Nakatsuji, X. Li, M. Caricato, A. V. Marenich, 
 J. Bloino, B. G. Janesko, R. Gomperts, B. Mennucci, H. P. Hratchian, 
 J. V. Ortiz, A. F. Izmaylov, J. L. Sonnenberg, D. Williams-Young, 
 F. Ding, F. Lipparini, F. Egidi, J. Goings, B. Peng, A. Petrone, 
 T. Henderson, D. Ranasinghe, V. G. Zakrzewski, J. Gao, N. Rega, 
 G. Zheng, W. Liang, M. Hada, M. Ehara, K. Toyota, R. Fukuda, 
 J. Hasegawa, M. Ishida, T. Nakajima, Y. Honda, O. Kitao, H. Nakai, 
 T. Vreven, K. Throssell, J. A. Montgomery, Jr., J. E. Peralta, 
 F. Ogliaro, M. J. Bearpark, J. J. Heyd, E. N. Brothers, K. N. Kudin, 
 V. N. Staroverov, T. A. Keith, R. Kobayashi, J. Normand, 
 K. Raghavachari, A. P. Rendell, J. C. Burant, S. S. Iyengar, 
 J. Tomasi, M. Cossi, J. M. Millam, M. Klene, C. Adamo, R. Cammi, 
 J. W. Ochterski, R. L. Martin, K. Morokuma, O. Farkas, 
 J. B. Foresman, and D. J. Fox, Gaussian, Inc., Wallingford CT, 2016.
 
 ******************************************
 Gaussian 16:  ES64L-G16RevB.01 20-Dec-2017
                28-Sep-2023 
 ******************************************
 %chk=cyrene.chk
 %mem=1000mw
 %nprocs=4
 Will use up to    4 processors via shared memory.
 ---------------------------------------
 # b3lyp/gen opt freq CPHF(Grid=OneStep)
 ---------------------------------------
 1/18=20,19=15,26=3,38=1/1,3;
 2/9=110,12=2,17=6,18=5,40=1/2;
 3/5=7,11=2,25=1,30=1,71=1,74=-5/1,2,3;
 4//1;
 5/5=2,38=5/2;
 6/7=2,8=2,9=2,10=2,28=1/1;
 7//1,2,3,16;
 1/18=20,19=15,26=3/3(2);
 2/9=110/2;
 99//99;
 2/9=110/2;
 3/5=7,6=1,11=2,25=1,30=1,71=1,74=-5,82=7/1,2,3;
 4/5=5,16=3,69=1/1;
 5/5=2,38=5/2;
 7//1,2,3,16;
 1/18=20,19=15,26=3/3(-5);
 2/9=110/2;
 6/7=2,8=2,9=2,10=2,19=2,28=1/1;
 99/9=1/99;
 ---------------------
 Cyrene, B3LYP/pcseg-2
 ---------------------
 Symbolic Z-matrix:
 Charge =  0 Multiplicity = 1
 C                     1.36089  -0.09817  -0.04908 
 C                     0.85645   1.23982  -0.56627 
 C                    -0.44326   1.6924    0.1342 
 C                    -1.3354    0.50069   0.47327 
 C                    -1.68039  -0.38545  -0.73075 
 O                    -0.58695  -1.31513  -0.7914 
 C                     0.23484  -1.06697   0.34131 
 O                     2.5257   -0.39135   0.0481 
 O                    -0.58438  -0.41975   1.28915 
 H                     1.65302   1.97539  -0.47214 
 H                     0.67566   1.10062  -1.63638 
 H                    -0.19877   2.20001   1.06837 
 H                    -0.98665   2.40585  -0.48863 
 H                    -2.211     0.80227   1.04361 
 H                    -2.60756  -0.93802  -0.5757 
 H                    -1.74257   0.16802  -1.66819 
 H                     0.62407  -1.99829   0.74606 
 

 GradGradGradGradGradGradGradGradGradGradGradGradGradGradGradGradGradGrad
 Berny optimization.
 Initialization pass.
                           ----------------------------
                           !    Initial Parameters    !
                           ! (Angstroms and Degrees)  !
 --------------------------                            --------------------------
 ! Name  Definition              Value          Derivative Info.                !
 --------------------------------------------------------------------------------
 ! R1    R(1,2)                  1.5206         estimate D2E/DX2                !
 ! R2    R(1,7)                  1.5359         estimate D2E/DX2                !
 ! R3    R(1,8)                  1.2051         estimate D2E/DX2                !
 ! R4    R(2,3)                  1.5443         estimate D2E/DX2                !
 ! R5    R(2,10)                 1.0883         estimate D2E/DX2                !
 ! R6    R(2,11)                 1.0942         estimate D2E/DX2                !
 ! R7    R(3,4)                  1.5268         estimate D2E/DX2                !
 ! R8    R(3,12)                 1.0909         estimate D2E/DX2                !
 ! R9    R(3,13)                 1.0919         estimate D2E/DX2                !
 ! R10   R(4,5)                  1.5342         estimate D2E/DX2                !
 ! R11   R(4,9)                  1.4411         estimate D2E/DX2                !
 ! R12   R(4,14)                 1.0876         estimate D2E/DX2                !
 ! R13   R(5,6)                  1.4365         estimate D2E/DX2                !
 ! R14   R(5,15)                 1.0904         estimate D2E/DX2                !
 ! R15   R(5,16)                 1.0904         estimate D2E/DX2                !
 ! R16   R(6,7)                  1.4212         estimate D2E/DX2                !
 ! R17   R(7,9)                  1.4101         estimate D2E/DX2                !
 ! R18   R(7,17)                 1.0875         estimate D2E/DX2                !
 ! A1    A(2,1,7)              113.4701         estimate D2E/DX2                !
 ! A2    A(2,1,8)              124.2051         estimate D2E/DX2                !
 ! A3    A(7,1,8)              122.3243         estimate D2E/DX2                !
 ! A4    A(1,2,3)              112.5074         estimate D2E/DX2                !
 ! A5    A(1,2,10)             108.8138         estimate D2E/DX2                !
 ! A6    A(1,2,11)             105.9934         estimate D2E/DX2                !
 ! A7    A(3,2,10)             112.253          estimate D2E/DX2                !
 ! A8    A(3,2,11)             109.9891         estimate D2E/DX2                !
 ! A9    A(10,2,11)            106.9486         estimate D2E/DX2                !
 ! A10   A(2,3,4)              111.3321         estimate D2E/DX2                !
 ! A11   A(2,3,12)             109.6432         estimate D2E/DX2                !
 ! A12   A(2,3,13)             110.5858         estimate D2E/DX2                !
 ! A13   A(4,3,12)             107.6964         estimate D2E/DX2                !
 ! A14   A(4,3,13)             110.2368         estimate D2E/DX2                !
 ! A15   A(12,3,13)            107.2147         estimate D2E/DX2                !
 ! A16   A(3,4,5)              114.0749         estimate D2E/DX2                !
 ! A17   A(3,4,9)              108.647          estimate D2E/DX2                !
 ! A18   A(3,4,14)             111.7429         estimate D2E/DX2                !
 ! A19   A(5,4,9)              101.1032         estimate D2E/DX2                !
 ! A20   A(5,4,14)             112.9946         estimate D2E/DX2                !
 ! A21   A(9,4,14)             107.4436         estimate D2E/DX2                !
 ! A22   A(4,5,6)              103.6364         estimate D2E/DX2                !
 ! A23   A(4,5,15)             111.8576         estimate D2E/DX2                !
 ! A24   A(4,5,16)             113.224          estimate D2E/DX2                !
 ! A25   A(6,5,15)             108.9816         estimate D2E/DX2                !
 ! A26   A(6,5,16)             109.6089         estimate D2E/DX2                !
 ! A27   A(15,5,16)            109.3278         estimate D2E/DX2                !
 ! A28   A(5,6,7)              107.0659         estimate D2E/DX2                !
 ! A29   A(1,7,6)              109.3589         estimate D2E/DX2                !
 ! A30   A(1,7,9)              107.8948         estimate D2E/DX2                !
 ! A31   A(1,7,17)             111.8626         estimate D2E/DX2                !
 ! A32   A(6,7,9)              106.2563         estimate D2E/DX2                !
 ! A33   A(6,7,17)             110.7345         estimate D2E/DX2                !
 ! A34   A(9,7,17)             110.5376         estimate D2E/DX2                !
 ! A35   A(4,9,7)              102.4366         estimate D2E/DX2                !
 ! D1    D(7,1,2,3)             34.311          estimate D2E/DX2                !
 ! D2    D(7,1,2,10)           159.3569         estimate D2E/DX2                !
 ! D3    D(7,1,2,11)           -85.9335         estimate D2E/DX2                !
 ! D4    D(8,1,2,3)           -145.9519         estimate D2E/DX2                !
 ! D5    D(8,1,2,10)           -20.906          estimate D2E/DX2                !
 ! D6    D(8,1,2,11)            93.8036         estimate D2E/DX2                !
 ! D7    D(2,1,7,6)             59.3428         estimate D2E/DX2                !
 ! D8    D(2,1,7,9)            -55.8232         estimate D2E/DX2                !
 ! D9    D(2,1,7,17)          -177.6115         estimate D2E/DX2                !
 ! D10   D(8,1,7,6)           -120.3999         estimate D2E/DX2                !
 ! D11   D(8,1,7,9)            124.4341         estimate D2E/DX2                !
 ! D12   D(8,1,7,17)             2.6458         estimate D2E/DX2                !
 ! D13   D(1,2,3,4)            -34.6678         estimate D2E/DX2                !
 ! D14   D(1,2,3,12)            84.403          estimate D2E/DX2                !
 ! D15   D(1,2,3,13)          -157.5799         estimate D2E/DX2                !
 ! D16   D(10,2,3,4)          -157.8102         estimate D2E/DX2                !
 ! D17   D(10,2,3,12)          -38.7395         estimate D2E/DX2                !
 ! D18   D(10,2,3,13)           79.2777         estimate D2E/DX2                !
 ! D19   D(11,2,3,4)            83.2427         estimate D2E/DX2                !
 ! D20   D(11,2,3,12)         -157.6866         estimate D2E/DX2                !
 ! D21   D(11,2,3,13)          -39.6694         estimate D2E/DX2                !
 ! D22   D(2,3,4,5)            -55.2815         estimate D2E/DX2                !
 ! D23   D(2,3,4,9)             56.6428         estimate D2E/DX2                !
 ! D24   D(2,3,4,14)           175.0144         estimate D2E/DX2                !
 ! D25   D(12,3,4,5)          -175.508          estimate D2E/DX2                !
 ! D26   D(12,3,4,9)           -63.5837         estimate D2E/DX2                !
 ! D27   D(12,3,4,14)           54.7879         estimate D2E/DX2                !
 ! D28   D(13,3,4,5)            67.8305         estimate D2E/DX2                !
 ! D29   D(13,3,4,9)           179.7548         estimate D2E/DX2                !
 ! D30   D(13,3,4,14)          -61.8736         estimate D2E/DX2                !
 ! D31   D(3,4,5,6)             87.0812         estimate D2E/DX2                !
 ! D32   D(3,4,5,15)          -155.6647         estimate D2E/DX2                !
 ! D33   D(3,4,5,16)           -31.5964         estimate D2E/DX2                !
 ! D34   D(9,4,5,6)            -29.3143         estimate D2E/DX2                !
 ! D35   D(9,4,5,15)            87.9399         estimate D2E/DX2                !
 ! D36   D(9,4,5,16)          -147.9919         estimate D2E/DX2                !
 ! D37   D(14,4,5,6)          -143.8421         estimate D2E/DX2                !
 ! D38   D(14,4,5,15)          -26.5879         estimate D2E/DX2                !
 ! D39   D(14,4,5,16)           97.4804         estimate D2E/DX2                !
 ! D40   D(3,4,9,7)            -77.5581         estimate D2E/DX2                !
 ! D41   D(5,4,9,7)             42.7712         estimate D2E/DX2                !
 ! D42   D(14,4,9,7)           161.388          estimate D2E/DX2                !
 ! D43   D(4,5,6,7)              4.9921         estimate D2E/DX2                !
 ! D44   D(15,5,6,7)          -114.2549         estimate D2E/DX2                !
 ! D45   D(16,5,6,7)           126.135          estimate D2E/DX2                !
 ! D46   D(5,6,7,1)            -94.0239         estimate D2E/DX2                !
 ! D47   D(5,6,7,9)             22.1884         estimate D2E/DX2                !
 ! D48   D(5,6,7,17)           142.2628         estimate D2E/DX2                !
 ! D49   D(1,7,9,4)             75.615          estimate D2E/DX2                !
 ! D50   D(6,7,9,4)            -41.5784         estimate D2E/DX2                !
 ! D51   D(17,7,9,4)          -161.7805         estimate D2E/DX2                !
 --------------------------------------------------------------------------------
 Trust Radius=3.00D-01 FncErr=1.00D-07 GrdErr=1.00D-06 EigMax=2.50D+02 EigMin=1.00D-04
 Number of steps in this run=    102 maximum allowed number of steps=    102.
 GradGradGradGradGradGradGradGradGradGradGradGradGradGradGradGradGradGrad

                          Input orientation:                          
 ---------------------------------------------------------------------
 Center     Atomic      Atomic             Coordinates (Angstroms)
 Number     Number       Type             X           Y           Z
 ---------------------------------------------------------------------
      1          6           0        1.360885   -0.098169   -0.049077
      2          6           0        0.856452    1.239818   -0.566271
      3          6           0       -0.443261    1.692399    0.134202
      4          6           0       -1.335397    0.500689    0.473271
      5          6           0       -1.680394   -0.385449   -0.730745
      6          8           0       -0.586945   -1.315129   -0.791395
      7          6           0        0.234841   -1.066967    0.341313
      8          8           0        2.525700   -0.391346    0.048096
      9          8           0       -0.584375   -0.419748    1.289153
     10          1           0        1.653015    1.975390   -0.472136
     11          1           0        0.675661    1.100624   -1.636376
     12          1           0       -0.198768    2.200007    1.068367
     13          1           0       -0.986649    2.405854   -0.488629
     14          1           0       -2.211000    0.802274    1.043607
     15          1           0       -2.607560   -0.938019   -0.575702
     16          1           0       -1.742571    0.168024   -1.668190
     17          1           0        0.624067   -1.998286    0.746064
 ---------------------------------------------------------------------
                    Distance matrix (angstroms):
                    1          2          3          4          5
     1  C    0.000000
     2  C    1.520576   0.000000
     3  C    2.548464   1.544262   0.000000
     4  C    2.810946   2.535973   1.526777   0.000000
     5  C    3.129949   3.017305   2.568284   1.534248   0.000000
     6  O    2.413725   2.943099   3.150016   2.335970   1.436528
     7  C    1.535887   2.555654   2.849003   2.222747   2.298239
     8  O    1.205068   2.413407   3.628242   3.985545   4.277599
     9  O    2.382920   2.876237   2.411429   1.441146   2.298352
    10  H    2.136344   1.088320   2.200478   3.463978   4.092927
    11  H    2.103843   1.094160   2.176495   2.975716   2.929091
    12  H    2.993796   2.169676   1.090920   2.129260   3.480891
    13  H    3.460383   2.182359   1.091882   2.162529   2.886395
    14  H    3.842280   3.491764   2.178128   1.087620   2.200126
    15  H    4.090384   4.091753   3.479548   2.188292   1.090417
    16  H    3.510531   3.019584   2.694539   2.205065   1.090413
    17  H    2.187600   3.501649   3.890337   3.187286   3.176909
                    6          7          8          9         10
     6  O    0.000000
     7  C    1.421247   0.000000
     8  O    3.353607   2.406341   0.000000
     9  O    2.265037   1.410109   3.348671   0.000000
    10  H    3.993352   3.453817   2.575589   3.720852   0.000000
    11  H    2.853775   2.967158   2.913085   3.529581   1.753822
    12  H    3.995695   3.374869   3.895997   2.657171   2.419236
    13  H    3.754616   3.773768   4.522057   3.362493   2.674584
    14  H    3.238546   3.157438   4.985188   2.049278   4.313269
    15  H    2.066790   2.989446   5.199840   2.799923   5.162478
    16  H    2.074604   3.077899   4.634293   3.229980   4.028290
    17  H    2.072929   1.087509   2.585657   2.060840   4.281687
                   11         12         13         14         15
    11  H    0.000000
    12  H    3.047770   0.000000
    13  H    2.405041   1.757090   0.000000
    14  H    3.950207   2.450173   2.533427   0.000000
    15  H    4.007572   4.283976   3.717045   2.409988   0.000000
    16  H    2.592026   3.741795   2.640202   2.824100   1.779064
    17  H    3.909210   4.290291   4.849260   3.996157   3.648924
                   16         17
    16  H    0.000000
    17  H    4.015283   0.000000
 Stoichiometry    C6H8O3
 Framework group  C1[X(C6H8O3)]
 Deg. of freedom    45
 Full point group                 C1      NOp   1
 Largest Abelian subgroup         C1      NOp   1
 Largest concise Abelian subgroup C1      NOp   1
                         Standard orientation:                         
 ---------------------------------------------------------------------
 Center     Atomic      Atomic             Coordinates (Angstroms)
 Number     Number       Type             X           Y           Z
 ---------------------------------------------------------------------
      1          6           0        1.360885   -0.098169   -0.049077
      2          6           0        0.856452    1.239818   -0.566271
      3          6           0       -0.443261    1.692399    0.134202
      4          6           0       -1.335397    0.500689    0.473271
      5          6           0       -1.680394   -0.385449   -0.730745
      6          8           0       -0.586945   -1.315129   -0.791395
      7          6           0        0.234841   -1.066967    0.341313
      8          8           0        2.525700   -0.391346    0.048096
      9          8           0       -0.584375   -0.419748    1.289153
     10          1           0        1.653015    1.975390   -0.472136
     11          1           0        0.675661    1.100624   -1.636376
     12          1           0       -0.198768    2.200007    1.068367
     13          1           0       -0.986649    2.405854   -0.488629
     14          1           0       -2.211000    0.802274    1.043607
     15          1           0       -2.607560   -0.938019   -0.575702
     16          1           0       -1.742571    0.168024   -1.668190
     17          1           0        0.624067   -1.998286    0.746064
 ---------------------------------------------------------------------
 Rotational constants (GHZ):           2.7197603           1.7929513           1.4555201
 General basis read from cards:  (5D, 7F)
 There are   435 symmetry adapted cartesian basis functions of A   symmetry.
 There are   382 symmetry adapted basis functions of A   symmetry.
   382 basis functions,   603 primitive gaussians,   435 cartesian basis functions
    34 alpha electrons       34 beta electrons
       nuclear repulsion energy       488.3267382971 Hartrees.
 NAtoms=   17 NActive=   17 NUniq=   17 SFac= 1.00D+00 NAtFMM=   60 NAOKFM=F Big=F
 Integral buffers will be    131072 words long.
 Raffenetti 2 integral format.
 Two-electron integral symmetry is turned on.
 One-electron integrals computed using PRISM.
 NBasis=   382 RedAO= T EigKep=  1.24D-04  NBF=   382
 NBsUse=   382 1.00D-06 EigRej= -1.00D+00 NBFU=   382
 ExpMin= 7.42D-02 ExpMax= 1.36D+04 ExpMxC= 4.64D+02 IAcc=3 IRadAn=         5 AccDes= 0.00D+00
 Harris functional with IExCor=  402 and IRadAn=       5 diagonalized for initial guess.
 HarFok:  IExCor=  402 AccDes= 0.00D+00 IRadAn=         5 IDoV= 1 UseB2=F ITyADJ=14
 ICtDFT=  3500011 ScaDFX=  1.000000  1.000000  1.000000  1.000000
 FoFCou: FMM=F IPFlag=           0 FMFlag=      100000 FMFlg1=           0
         NFxFlg=           0 DoJE=T BraDBF=F KetDBF=T FulRan=T
         wScrn=  0.000000 ICntrl=       500 IOpCl=  0 I1Cent=   200000004 NGrid=           0
         NMat0=    1 NMatS0=      1 NMatT0=    0 NMatD0=    1 NMtDS0=    0 NMtDT0=    0
 Petite list used in FoFCou.
 Requested convergence on RMS density matrix=1.00D-08 within 128 cycles.
 Requested convergence on MAX density matrix=1.00D-06.
 Requested convergence on             energy=1.00D-06.
 No special actions if energy rises.
 Integral accuracy reduced to 1.0D-05 until final iterations.
 Initial convergence to 1.0D-05 achieved.  Increase integral accuracy.
 SCF Done:  E(RB3LYP) =  -459.281528718     A.U. after   13 cycles
            NFock= 13  Conv=0.89D-08     -V/T= 2.0034

 **********************************************************************

            Population analysis using the SCF Density.

 **********************************************************************

 Orbital symmetries:
       Occupied  (A) (A) (A) (A) (A) (A) (A) (A) (A) (A) (A) (A)
                 (A) (A) (A) (A) (A) (A) (A) (A) (A) (A) (A) (A)
                 (A) (A) (A) (A) (A) (A) (A) (A) (A) (A)
       Virtual   (A) (A) (A) (A) (A) (A) (A) (A) (A) (A) (A) (A)
                 (A) (A) (A) (A) (A) (A) (A) (A) (A) (A) (A) (A)
                 (A) (A) (A) (A) (A) (A) (A) (A) (A) (A) (A) (A)
                 (A) (A) (A) (A) (A) (A) (A) (A) (A) (A) (A) (A)
                 (A) (A) (A) (A) (A) (A) (A) (A) (A) (A) (A) (A)
                 (A) (A) (A) (A) (A) (A) (A) (A) (A) (A) (A) (A)
                 (A) (A) (A) (A) (A) (A) (A) (A) (A) (A) (A) (A)
                 (A) (A) (A) (A) (A) (A) (A) (A) (A) (A) (A) (A)
                 (A) (A) (A) (A) (A) (A) (A) (A) (A) (A) (A) (A)
                 (A) (A) (A) (A) (A) (A) (A) (A) (A) (A) (A) (A)
                 (A) (A) (A) (A) (A) (A) (A) (A) (A) (A) (A) (A)
                 (A) (A) (A) (A) (A) (A) (A) (A) (A) (A) (A) (A)
                 (A) (A) (A) (A) (A) (A) (A) (A) (A) (A) (A) (A)
                 (A) (A) (A) (A) (A) (A) (A) (A) (A) (A) (A) (A)
                 (A) (A) (A) (A) (A) (A) (A) (A) (A) (A) (A) (A)
                 (A) (A) (A) (A) (A) (A) (A) (A) (A) (A) (A) (A)
                 (A) (A) (A) (A) (A) (A) (A) (A) (A) (A) (A) (A)
                 (A) (A) (A) (A) (A) (A) (A) (A) (A) (A) (A) (A)
                 (A) (A) (A) (A) (A) (A) (A) (A) (A) (A) (A) (A)
                 (A) (A) (A) (A) (A) (A) (A) (A) (A) (A) (A) (A)
                 (A) (A) (A) (A) (A) (A) (A) (A) (A) (A) (A) (A)
                 (A) (A) (A) (A) (A) (A) (A) (A) (A) (A) (A) (A)
                 (A) (A) (A) (A) (A) (A) (A) (A) (A) (A) (A) (A)
                 (A) (A) (A) (A) (A) (A) (A) (A) (A) (A) (A) (A)
                 (A) (A) (A) (A) (A) (A) (A) (A) (A) (A) (A) (A)
                 (A) (A) (A) (A) (A) (A) (A) (A) (A) (A) (A) (A)
                 (A) (A) (A) (A) (A) (A) (A) (A) (A) (A) (A) (A)
                 (A) (A) (A) (A) (A) (A) (A) (A) (A) (A) (A) (A)
                 (A) (A) (A) (A) (A) (A) (A) (A) (A) (A) (A) (A)
 The electronic state is 1-A.
 Alpha  occ. eigenvalues --  -19.15752 -19.15132 -19.12751 -10.28622 -10.26884
 Alpha  occ. eigenvalues --  -10.25119 -10.24125 -10.19795 -10.19527  -1.11756
 Alpha  occ. eigenvalues --   -1.05815  -1.01761  -0.82535  -0.78924  -0.68686
 Alpha  occ. eigenvalues --   -0.66943  -0.62715  -0.57424  -0.54581  -0.50486
 Alpha  occ. eigenvalues --   -0.48452  -0.47194  -0.46751  -0.45032  -0.44121
 Alpha  occ. eigenvalues --   -0.41884  -0.41024  -0.38912  -0.37299  -0.36274
 Alpha  occ. eigenvalues --   -0.35018  -0.31994  -0.29851  -0.24737
 Alpha virt. eigenvalues --   -0.04026   0.00106   0.02561   0.03449   0.04024
 Alpha virt. eigenvalues --    0.05879   0.06456   0.06969   0.07222   0.08622
 Alpha virt. eigenvalues --    0.10540   0.11452   0.12312   0.14973   0.15704
 Alpha virt. eigenvalues --    0.16889   0.17163   0.18207   0.19288   0.20750
 Alpha virt. eigenvalues --    0.21766   0.23374   0.24467   0.25742   0.27116
 Alpha virt. eigenvalues --    0.27784   0.28322   0.28960   0.28993   0.29884
 Alpha virt. eigenvalues --    0.30955   0.31784   0.32418   0.32819   0.33191
 Alpha virt. eigenvalues --    0.34639   0.35003   0.35626   0.35867   0.36287
 Alpha virt. eigenvalues --    0.38174   0.39141   0.40248   0.41200   0.44404
 Alpha virt. eigenvalues --    0.45895   0.46096   0.48368   0.50975   0.51896
 Alpha virt. eigenvalues --    0.53308   0.56869   0.57599   0.57725   0.58458
 Alpha virt. eigenvalues --    0.60186   0.63017   0.65480   0.65698   0.66843
 Alpha virt. eigenvalues --    0.70754   0.73930   0.76790   0.77756   0.81467
 Alpha virt. eigenvalues --    0.82007   0.84087   0.87048   0.87489   0.90060
 Alpha virt. eigenvalues --    0.91098   0.94264   0.95939   0.97381   0.98938
 Alpha virt. eigenvalues --    1.00876   1.02063   1.03039   1.04337   1.05908
 Alpha virt. eigenvalues --    1.05972   1.06474   1.07073   1.09436   1.12558
 Alpha virt. eigenvalues --    1.13197   1.14138   1.16736   1.17940   1.20383
 Alpha virt. eigenvalues --    1.20532   1.22010   1.23197   1.24320   1.25449
 Alpha virt. eigenvalues --    1.26675   1.28984   1.31645   1.33307   1.34968
 Alpha virt. eigenvalues --    1.37480   1.38808   1.41335   1.41602   1.43615
 Alpha virt. eigenvalues --    1.44817   1.48292   1.51036   1.52415   1.56250
 Alpha virt. eigenvalues --    1.57136   1.59920   1.60806   1.63960   1.65565
 Alpha virt. eigenvalues --    1.67274   1.69469   1.71206   1.73283   1.74720
 Alpha virt. eigenvalues --    1.77659   1.79201   1.80705   1.82034   1.84538
 Alpha virt. eigenvalues --    1.86698   1.86898   1.89174   1.90831   1.92541
 Alpha virt. eigenvalues --    1.94627   1.96737   1.98202   1.98430   2.01092
 Alpha virt. eigenvalues --    2.05165   2.06325   2.07254   2.08476   2.09235
 Alpha virt. eigenvalues --    2.11575   2.14004   2.17648   2.19580   2.19948
 Alpha virt. eigenvalues --    2.22468   2.27204   2.29057   2.32985   2.37294
 Alpha virt. eigenvalues --    2.39450   2.39861   2.45819   2.47707   2.52875
 Alpha virt. eigenvalues --    2.54463   2.56043   2.56849   2.59956   2.61436
 Alpha virt. eigenvalues --    2.70150   2.72985   2.78800   2.80545   2.88444
 Alpha virt. eigenvalues --    2.96076   3.00169   3.02417   3.03572   3.05528
 Alpha virt. eigenvalues --    3.08033   3.12665   3.14114   3.16311   3.18374
 Alpha virt. eigenvalues --    3.21685   3.22122   3.24516   3.26369   3.27273
 Alpha virt. eigenvalues --    3.30629   3.34035   3.37244   3.40471   3.41084
 Alpha virt. eigenvalues --    3.41627   3.44305   3.46956   3.48377   3.52101
 Alpha virt. eigenvalues --    3.54064   3.57211   3.58776   3.63027   3.64967
 Alpha virt. eigenvalues --    3.67982   3.70186   3.72280   3.73826   3.74641
 Alpha virt. eigenvalues --    3.74946   3.78370   3.80663   3.81228   3.83198
 Alpha virt. eigenvalues --    3.83986   3.85421   3.87080   3.90047   3.91281
 Alpha virt. eigenvalues --    3.92007   3.95104   3.96174   3.97950   3.99169
 Alpha virt. eigenvalues --    4.00336   4.02304   4.03114   4.04372   4.09660
 Alpha virt. eigenvalues --    4.10741   4.12250   4.13260   4.15502   4.19211
 Alpha virt. eigenvalues --    4.21002   4.21947   4.22473   4.24520   4.26342
 Alpha virt. eigenvalues --    4.28219   4.28618   4.30322   4.31977   4.33967
 Alpha virt. eigenvalues --    4.34701   4.37317   4.38613   4.40455   4.41857
 Alpha virt. eigenvalues --    4.44652   4.46742   4.48007   4.50527   4.52315
 Alpha virt. eigenvalues --    4.53149   4.53290   4.55238   4.55927   4.56635
 Alpha virt. eigenvalues --    4.59825   4.60762   4.63512   4.64989   4.67320
 Alpha virt. eigenvalues --    4.68569   4.69760   4.70419   4.72100   4.74685
 Alpha virt. eigenvalues --    4.76570   4.78467   4.78831   4.81269   4.84219
 Alpha virt. eigenvalues --    4.84510   4.88233   4.89137   4.90375   4.93390
 Alpha virt. eigenvalues --    4.94944   4.96362   4.97740   4.99151   5.02210
 Alpha virt. eigenvalues --    5.06754   5.07193   5.09202   5.10937   5.12849
 Alpha virt. eigenvalues --    5.16608   5.18626   5.20413   5.21921   5.23591
 Alpha virt. eigenvalues --    5.25143   5.27195   5.29466   5.30611   5.33572
 Alpha virt. eigenvalues --    5.35037   5.36932   5.38723   5.42040   5.43207
 Alpha virt. eigenvalues --    5.47207   5.48372   5.50708   5.54828   5.55920
 Alpha virt. eigenvalues --    5.61083   5.61843   5.63755   5.66289   5.70954
 Alpha virt. eigenvalues --    5.73685   5.76270   5.76838   5.77535   5.79188
 Alpha virt. eigenvalues --    5.80201   5.84159   5.84937   5.86715   5.88490
 Alpha virt. eigenvalues --    5.89640   5.92385   5.94939   5.97383   6.00821
 Alpha virt. eigenvalues --    6.02107   6.05429   6.05830   6.09184   6.10518
 Alpha virt. eigenvalues --    6.13688   6.14183   6.20223   6.26453   6.27689
 Alpha virt. eigenvalues --    6.38809   6.44317   6.48302   6.53601   6.58295
 Alpha virt. eigenvalues --    6.62160   6.71798   6.77121   6.80148   6.90892
 Alpha virt. eigenvalues --    6.95034   6.99354   7.04494   7.18881   7.23274
 Alpha virt. eigenvalues --    7.55516   8.46821   8.91063
          Condensed to atoms (all electrons):
               1          2          3          4          5          6
     1  C    4.952906   0.169037   0.047734  -0.043731   0.027249  -0.057466
     2  C    0.169037   4.999329   0.200507  -0.012385  -0.035635   0.078106
     3  C    0.047734   0.200507   4.806340   0.339501  -0.039272  -0.036214
     4  C   -0.043731  -0.012385   0.339501   4.792766   0.357087  -0.019082
     5  C    0.027249  -0.035635  -0.039272   0.357087   4.524883   0.229599
     6  O   -0.057466   0.078106  -0.036214  -0.019082   0.229599   8.250027
     7  C    0.254477  -0.028713  -0.000445  -0.052632  -0.067008   0.217488
     8  O    0.540659  -0.068109   0.002105   0.000173  -0.000687   0.003732
     9  O   -0.001912  -0.007424  -0.015384   0.174965  -0.019426  -0.048544
    10  H   -0.050544   0.446164  -0.032115   0.008582  -0.002728   0.002352
    11  H   -0.015800   0.403409  -0.030997  -0.001709   0.001541  -0.007577
    12  H    0.011639  -0.058558   0.444040  -0.036290   0.014710  -0.001772
    13  H    0.003479  -0.027102   0.405912  -0.033378  -0.003077   0.001858
    14  H   -0.002851   0.011741  -0.042221   0.425955  -0.029332   0.005137
    15  H   -0.004895   0.006125  -0.000268  -0.008705   0.413156  -0.046656
    16  H    0.009774  -0.019956   0.017696  -0.045175   0.427689  -0.042640
    17  H   -0.091571   0.020698  -0.005009   0.004723   0.001206  -0.035645
               7          8          9         10         11         12
     1  C    0.254477   0.540659  -0.001912  -0.050544  -0.015800   0.011639
     2  C   -0.028713  -0.068109  -0.007424   0.446164   0.403409  -0.058558
     3  C   -0.000445   0.002105  -0.015384  -0.032115  -0.030997   0.444040
     4  C   -0.052632   0.000173   0.174965   0.008582  -0.001709  -0.036290
     5  C   -0.067008  -0.000687  -0.019426  -0.002728   0.001541   0.014710
     6  O    0.217488   0.003732  -0.048544   0.002352  -0.007577  -0.001772
     7  C    4.581008  -0.064861   0.194274   0.009703  -0.001181  -0.005799
     8  O   -0.064861   7.939509   0.002559   0.009025  -0.001558   0.000769
     9  O    0.194274   0.002559   8.246034  -0.002097  -0.000959  -0.001286
    10  H    0.009703   0.009025  -0.002097   0.564526  -0.007625  -0.006283
    11  H   -0.001181  -0.001558  -0.000959  -0.007625   0.600498   0.008131
    12  H   -0.005799   0.000769  -0.001286  -0.006283   0.008131   0.628038
    13  H   -0.001910  -0.000795   0.008922  -0.004443  -0.011338  -0.031034
    14  H    0.006615   0.000032  -0.025638  -0.000283  -0.000923  -0.009101
    15  H    0.003750   0.000077   0.000790   0.000167  -0.000210  -0.001175
    16  H   -0.004560  -0.000121   0.005642  -0.000595   0.003722   0.001949
    17  H    0.438090   0.019651  -0.024722  -0.000344  -0.001035  -0.000908
              13         14         15         16         17
     1  C    0.003479  -0.002851  -0.004895   0.009774  -0.091571
     2  C   -0.027102   0.011741   0.006125  -0.019956   0.020698
     3  C    0.405912  -0.042221  -0.000268   0.017696  -0.005009
     4  C   -0.033378   0.425955  -0.008705  -0.045175   0.004723
     5  C   -0.003077  -0.029332   0.413156   0.427689   0.001206
     6  O    0.001858   0.005137  -0.046656  -0.042640  -0.035645
     7  C   -0.001910   0.006615   0.003750  -0.004560   0.438090
     8  O   -0.000795   0.000032   0.000077  -0.000121   0.019651
     9  O    0.008922  -0.025638   0.000790   0.005642  -0.024722
    10  H   -0.004443  -0.000283   0.000167  -0.000595  -0.000344
    11  H   -0.011338  -0.000923  -0.000210   0.003722  -0.001035
    12  H   -0.031034  -0.009101  -0.001175   0.001949  -0.000908
    13  H    0.658269  -0.000819   0.000668  -0.005433   0.000700
    14  H   -0.000819   0.618885  -0.010511   0.008443  -0.000614
    15  H    0.000668  -0.010511   0.663481  -0.053237   0.001906
    16  H   -0.005433   0.008443  -0.053237   0.664908  -0.001985
    17  H    0.000700  -0.000614   0.001906  -0.001985   0.625467
 Mulliken charges:
               1
     1  C    0.251816
     2  C   -0.077232
     3  C   -0.061909
     4  C    0.149336
     5  C    0.200044
     6  O   -0.492701
     7  C    0.521704
     8  O   -0.382160
     9  O   -0.485792
    10  H    0.066538
    11  H    0.063611
    12  H    0.042930
    13  H    0.039521
    14  H    0.045484
    15  H    0.035538
    16  H    0.033881
    17  H    0.049391
 Sum of Mulliken charges =  -0.00000
 Mulliken charges with hydrogens summed into heavy atoms:
               1
     1  C    0.251816
     2  C    0.052916
     3  C    0.020542
     4  C    0.194820
     5  C    0.269463
     6  O   -0.492701
     7  C    0.571095
     8  O   -0.382160
     9  O   -0.485792
 Electronic spatial extent (au):  <R**2>=            938.1592
 Charge=             -0.0000 electrons
 Dipole moment (field-independent basis, Debye):
    X=             -3.4170    Y=              2.5759    Z=             -0.7418  Tot=              4.3430
 Quadrupole moment (field-independent basis, Debye-Ang):
   XX=            -57.9396   YY=            -51.2977   ZZ=            -54.5565
   XY=              0.0652   XZ=              0.5541   YZ=             -1.5716
 Traceless Quadrupole moment (field-independent basis, Debye-Ang):
   XX=             -3.3417   YY=              3.3002   ZZ=              0.0414
   XY=              0.0652   XZ=              0.5541   YZ=             -1.5716
 Octapole moment (field-independent basis, Debye-Ang**2):
  XXX=            -37.3782  YYY=             -3.7154  ZZZ=             -3.8979  XYY=              3.5580
  XXY=              3.8913  XXZ=             -0.7073  XZZ=              1.7992  YZZ=              2.4820
  YYZ=              5.6117  XYZ=             -1.0738
 Hexadecapole moment (field-independent basis, Debye-Ang**3):
 XXXX=           -663.6144 YYYY=           -390.1077 ZZZZ=           -209.6625 XXXY=             18.0081
 XXXZ=             -3.5499 YYYX=             -2.5782 YYYZ=             -7.4947 ZZZX=              2.9354
 ZZZY=              1.1001 XXYY=           -163.2617 XXZZ=           -129.6926 YYZZ=           -100.6805
 XXYZ=              4.0984 YYXZ=             -0.1303 ZZXY=             -4.2348
 N-N= 4.883267382971D+02 E-N=-2.051653084967D+03  KE= 4.577063515807D+02
 Calling FoFJK, ICntrl=      2127 FMM=F ISym2X=0 I1Cent= 0 IOpClX= 0 NMat=1 NMatS=1 NMatT=0.
 ***** Axes restored to original set *****
 -------------------------------------------------------------------
 Center     Atomic                   Forces (Hartrees/Bohr)
 Number     Number              X              Y              Z
 -------------------------------------------------------------------
      1        6          -0.000010975   -0.000026794    0.000012759
      2        6           0.000003584   -0.000027017    0.000013047
      3        6           0.000041005    0.000027648   -0.000020243
      4        6           0.000001084   -0.000004099    0.000008530
      5        6           0.000007244    0.000014387   -0.000011931
      6        8          -0.000021494    0.000005446   -0.000024440
      7        6           0.000006251    0.000021571    0.000039170
      8        8          -0.000006704    0.000013180   -0.000015189
      9        8          -0.000015378   -0.000015977    0.000003393
     10        1           0.000006928    0.000007620    0.000004405
     11        1          -0.000003248   -0.000011261    0.000000845
     12        1          -0.000006716    0.000008424    0.000001212
     13        1          -0.000011646   -0.000000618   -0.000000529
     14        1          -0.000005113   -0.000011672    0.000001286
     15        1           0.000001030   -0.000004600   -0.000001992
     16        1           0.000003067    0.000006272   -0.000009895
     17        1           0.000011084   -0.000002509   -0.000000429
 -------------------------------------------------------------------
 Cartesian Forces:  Max     0.000041005 RMS     0.000014229

 GradGradGradGradGradGradGradGradGradGradGradGradGradGradGradGradGradGrad
 Berny optimization.
 FormGI is forming the generalized inverse of G from B-inverse, IUseBI=4.
 Internal  Forces:  Max     0.000026992 RMS     0.000009000
 Search for a local minimum.
 Step number   1 out of a maximum of  102
 All quantities printed in internal units (Hartrees-Bohrs-Radians)
 Mixed Optimization -- En-DIIS/RFO-DIIS
 Second derivative matrix not updated -- first step.
 ITU=  0
     Eigenvalues ---    0.00391   0.00465   0.00860   0.01711   0.02907
     Eigenvalues ---    0.03469   0.03974   0.04729   0.05031   0.05513
     Eigenvalues ---    0.05669   0.05828   0.06041   0.06921   0.08074
     Eigenvalues ---    0.08468   0.08612   0.09070   0.09480   0.10205
     Eigenvalues ---    0.11072   0.11548   0.12019   0.17410   0.18151
     Eigenvalues ---    0.19727   0.25000   0.26860   0.27365   0.27840
     Eigenvalues ---    0.29073   0.29516   0.33537   0.34336   0.34596
     Eigenvalues ---    0.34707   0.34765   0.34765   0.35008   0.35089
     Eigenvalues ---    0.35102   0.36943   0.39510   0.40824   1.02317
 RFO step:  Lambda=-8.38214823D-08 EMin= 3.90915755D-03
 Linear search not attempted -- first point.
 Iteration  1 RMS(Cart)=  0.00025741 RMS(Int)=  0.00000011
 Iteration  2 RMS(Cart)=  0.00000008 RMS(Int)=  0.00000005
 Variable       Old X    -DE/DX   Delta X   Delta X   Delta X     New X
                                 (Linear)    (Quad)   (Total)
    R1        2.87347  -0.00001   0.00000  -0.00006  -0.00006   2.87341
    R2        2.90241  -0.00002   0.00000  -0.00006  -0.00006   2.90235
    R3        2.27725  -0.00001   0.00000  -0.00001  -0.00001   2.27724
    R4        2.91823  -0.00000   0.00000  -0.00003  -0.00003   2.91821
    R5        2.05663   0.00001   0.00000   0.00003   0.00003   2.05666
    R6        2.06766   0.00000   0.00000   0.00001   0.00001   2.06767
    R7        2.88519   0.00002   0.00000   0.00008   0.00008   2.88527
    R8        2.06154   0.00000   0.00000   0.00001   0.00001   2.06155
    R9        2.06336   0.00001   0.00000   0.00002   0.00002   2.06338
   R10        2.89931   0.00000   0.00000   0.00001   0.00001   2.89932
   R11        2.72337   0.00001   0.00000   0.00003   0.00003   2.72340
   R12        2.05530   0.00000   0.00000   0.00000   0.00000   2.05531
   R13        2.71465  -0.00001   0.00000  -0.00001  -0.00001   2.71463
   R14        2.06059   0.00000   0.00000   0.00001   0.00001   2.06060
   R15        2.06058   0.00001   0.00000   0.00003   0.00003   2.06061
   R16        2.68577   0.00003   0.00000   0.00007   0.00007   2.68584
   R17        2.66472  -0.00000   0.00000  -0.00001  -0.00001   2.66471
   R18        2.05509   0.00001   0.00000   0.00002   0.00002   2.05511
    A1        1.98043  -0.00000   0.00000  -0.00004  -0.00004   1.98039
    A2        2.16779  -0.00002   0.00000  -0.00007  -0.00007   2.16772
    A3        2.13496   0.00002   0.00000   0.00011   0.00011   2.13507
    A4        1.96362   0.00002   0.00000   0.00001   0.00001   1.96363
    A5        1.89916  -0.00000   0.00000   0.00007   0.00007   1.89923
    A6        1.84993  -0.00001   0.00000  -0.00010  -0.00010   1.84983
    A7        1.95918  -0.00001   0.00000   0.00003   0.00003   1.95922
    A8        1.91967  -0.00000   0.00000  -0.00007  -0.00007   1.91960
    A9        1.86660   0.00001   0.00000   0.00006   0.00006   1.86666
   A10        1.94311  -0.00002   0.00000  -0.00015  -0.00015   1.94296
   A11        1.91363   0.00001   0.00000   0.00015   0.00015   1.91379
   A12        1.93009   0.00001   0.00000   0.00005   0.00005   1.93014
   A13        1.87966   0.00001   0.00000   0.00010   0.00010   1.87976
   A14        1.92400  -0.00001   0.00000  -0.00014  -0.00014   1.92386
   A15        1.87125  -0.00001   0.00000  -0.00001  -0.00001   1.87124
   A16        1.99098  -0.00002   0.00000  -0.00017  -0.00017   1.99081
   A17        1.89625   0.00001   0.00000   0.00013   0.00013   1.89638
   A18        1.95028   0.00001   0.00000   0.00012   0.00012   1.95040
   A19        1.76458   0.00001   0.00000   0.00003   0.00003   1.76461
   A20        1.97213   0.00000   0.00000  -0.00003  -0.00003   1.97210
   A21        1.87524  -0.00001   0.00000  -0.00007  -0.00007   1.87517
   A22        1.80880   0.00000   0.00000  -0.00001  -0.00001   1.80878
   A23        1.95228   0.00000   0.00000   0.00001   0.00001   1.95230
   A24        1.97613   0.00000   0.00000   0.00002   0.00002   1.97615
   A25        1.90209  -0.00001   0.00000  -0.00007  -0.00007   1.90202
   A26        1.91304   0.00000   0.00000   0.00001   0.00001   1.91305
   A27        1.90813   0.00000   0.00000   0.00003   0.00003   1.90816
   A28        1.86865   0.00000   0.00000   0.00001   0.00001   1.86867
   A29        1.90867  -0.00003   0.00000  -0.00012  -0.00012   1.90855
   A30        1.88312   0.00002   0.00000   0.00006   0.00006   1.88318
   A31        1.95237  -0.00001   0.00000  -0.00006  -0.00006   1.95231
   A32        1.85452   0.00000   0.00000  -0.00002  -0.00002   1.85450
   A33        1.93268   0.00001   0.00000   0.00005   0.00005   1.93273
   A34        1.92925   0.00000   0.00000   0.00010   0.00010   1.92934
   A35        1.78786  -0.00001   0.00000  -0.00001  -0.00001   1.78785
    D1        0.59884   0.00000   0.00000   0.00037   0.00037   0.59921
    D2        2.78130   0.00000   0.00000   0.00047   0.00047   2.78177
    D3       -1.49982   0.00001   0.00000   0.00051   0.00051  -1.49931
    D4       -2.54734  -0.00000   0.00000  -0.00097  -0.00097  -2.54831
    D5       -0.36488  -0.00000   0.00000  -0.00087  -0.00087  -0.36575
    D6        1.63718  -0.00000   0.00000  -0.00082  -0.00082   1.63636
    D7        1.03573  -0.00000   0.00000  -0.00024  -0.00024   1.03549
    D8       -0.97430   0.00000   0.00000  -0.00017  -0.00017  -0.97447
    D9       -3.09991  -0.00001   0.00000  -0.00030  -0.00030  -3.10020
   D10       -2.10138   0.00001   0.00000   0.00107   0.00108  -2.10030
   D11        2.17178   0.00001   0.00000   0.00114   0.00114   2.17292
   D12        0.04618  -0.00000   0.00000   0.00101   0.00101   0.04719
   D13       -0.60507  -0.00000   0.00000  -0.00029  -0.00029  -0.60535
   D14        1.47311   0.00000   0.00000  -0.00016  -0.00016   1.47295
   D15       -2.75029   0.00001   0.00000  -0.00004  -0.00004  -2.75033
   D16       -2.75431  -0.00001   0.00000  -0.00041  -0.00041  -2.75472
   D17       -0.67613  -0.00000   0.00000  -0.00028  -0.00028  -0.67641
   D18        1.38366   0.00000   0.00000  -0.00017  -0.00017   1.38349
   D19        1.45286  -0.00001   0.00000  -0.00046  -0.00046   1.45240
   D20       -2.75215  -0.00000   0.00000  -0.00033  -0.00033  -2.75248
   D21       -0.69236   0.00000   0.00000  -0.00021  -0.00021  -0.69258
   D22       -0.96484  -0.00000   0.00000   0.00008   0.00008  -0.96477
   D23        0.98860  -0.00000   0.00000   0.00009   0.00009   0.98870
   D24        3.05458   0.00000   0.00000   0.00016   0.00016   3.05474
   D25       -3.06319  -0.00001   0.00000  -0.00009  -0.00009  -3.06328
   D26       -1.10974  -0.00000   0.00000  -0.00007  -0.00007  -1.10981
   D27        0.95623  -0.00000   0.00000  -0.00000  -0.00000   0.95623
   D28        1.18387  -0.00000   0.00000  -0.00006  -0.00006   1.18381
   D29        3.13731   0.00000   0.00000  -0.00004  -0.00004   3.13727
   D30       -1.07990   0.00000   0.00000   0.00003   0.00003  -1.07987
   D31        1.51985   0.00001   0.00000   0.00013   0.00013   1.51998
   D32       -2.71686   0.00000   0.00000   0.00005   0.00005  -2.71681
   D33       -0.55146   0.00000   0.00000   0.00012   0.00012  -0.55135
   D34       -0.51163   0.00000   0.00000   0.00004   0.00004  -0.51160
   D35        1.53484  -0.00001   0.00000  -0.00005  -0.00005   1.53479
   D36       -2.58295  -0.00000   0.00000   0.00002   0.00002  -2.58292
   D37       -2.51052   0.00001   0.00000   0.00012   0.00012  -2.51040
   D38       -0.46405  -0.00000   0.00000   0.00004   0.00004  -0.46401
   D39        1.70135   0.00000   0.00000   0.00010   0.00010   1.70146
   D40       -1.35364   0.00001   0.00000   0.00014   0.00014  -1.35351
   D41        0.74650  -0.00000   0.00000   0.00001   0.00001   0.74651
   D42        2.81675  -0.00000   0.00000  -0.00004  -0.00004   2.81671
   D43        0.08713  -0.00000   0.00000  -0.00006  -0.00006   0.08707
   D44       -1.99412   0.00000   0.00000  -0.00003  -0.00003  -1.99416
   D45        2.20147   0.00000   0.00000  -0.00004  -0.00004   2.20143
   D46       -1.64103  -0.00001   0.00000   0.00007   0.00007  -1.64096
   D47        0.38726  -0.00000   0.00000   0.00006   0.00006   0.38732
   D48        2.48295   0.00001   0.00000   0.00019   0.00019   2.48315
   D49        1.31973  -0.00001   0.00000  -0.00015  -0.00015   1.31958
   D50       -0.72568   0.00001   0.00000  -0.00002  -0.00002  -0.72570
   D51       -2.82360  -0.00001   0.00000  -0.00013  -0.00013  -2.82373
         Item               Value     Threshold  Converged?
 Maximum Force            0.000027     0.000450     YES
 RMS     Force            0.000009     0.000300     YES
 Maximum Displacement     0.001261     0.001800     YES
 RMS     Displacement     0.000257     0.001200     YES
 Predicted change in Energy=-4.191327D-08
 Optimization completed.
    -- Stationary point found.
                           ----------------------------
                           !   Optimized Parameters   !
                           ! (Angstroms and Degrees)  !
 --------------------------                            --------------------------
 ! Name  Definition              Value          Derivative Info.                !
 --------------------------------------------------------------------------------
 ! R1    R(1,2)                  1.5206         -DE/DX =    0.0                 !
 ! R2    R(1,7)                  1.5359         -DE/DX =    0.0                 !
 ! R3    R(1,8)                  1.2051         -DE/DX =    0.0                 !
 ! R4    R(2,3)                  1.5443         -DE/DX =    0.0                 !
 ! R5    R(2,10)                 1.0883         -DE/DX =    0.0                 !
 ! R6    R(2,11)                 1.0942         -DE/DX =    0.0                 !
 ! R7    R(3,4)                  1.5268         -DE/DX =    0.0                 !
 ! R8    R(3,12)                 1.0909         -DE/DX =    0.0                 !
 ! R9    R(3,13)                 1.0919         -DE/DX =    0.0                 !
 ! R10   R(4,5)                  1.5342         -DE/DX =    0.0                 !
 ! R11   R(4,9)                  1.4411         -DE/DX =    0.0                 !
 ! R12   R(4,14)                 1.0876         -DE/DX =    0.0                 !
 ! R13   R(5,6)                  1.4365         -DE/DX =    0.0                 !
 ! R14   R(5,15)                 1.0904         -DE/DX =    0.0                 !
 ! R15   R(5,16)                 1.0904         -DE/DX =    0.0                 !
 ! R16   R(6,7)                  1.4212         -DE/DX =    0.0                 !
 ! R17   R(7,9)                  1.4101         -DE/DX =    0.0                 !
 ! R18   R(7,17)                 1.0875         -DE/DX =    0.0                 !
 ! A1    A(2,1,7)              113.4701         -DE/DX =    0.0                 !
 ! A2    A(2,1,8)              124.2051         -DE/DX =    0.0                 !
 ! A3    A(7,1,8)              122.3243         -DE/DX =    0.0                 !
 ! A4    A(1,2,3)              112.5074         -DE/DX =    0.0                 !
 ! A5    A(1,2,10)             108.8138         -DE/DX =    0.0                 !
 ! A6    A(1,2,11)             105.9934         -DE/DX =    0.0                 !
 ! A7    A(3,2,10)             112.253          -DE/DX =    0.0                 !
 ! A8    A(3,2,11)             109.9891         -DE/DX =    0.0                 !
 ! A9    A(10,2,11)            106.9486         -DE/DX =    0.0                 !
 ! A10   A(2,3,4)              111.3321         -DE/DX =    0.0                 !
 ! A11   A(2,3,12)             109.6432         -DE/DX =    0.0                 !
 ! A12   A(2,3,13)             110.5858         -DE/DX =    0.0                 !
 ! A13   A(4,3,12)             107.6964         -DE/DX =    0.0                 !
 ! A14   A(4,3,13)             110.2368         -DE/DX =    0.0                 !
 ! A15   A(12,3,13)            107.2147         -DE/DX =    0.0                 !
 ! A16   A(3,4,5)              114.0749         -DE/DX =    0.0                 !
 ! A17   A(3,4,9)              108.647          -DE/DX =    0.0                 !
 ! A18   A(3,4,14)             111.7429         -DE/DX =    0.0                 !
 ! A19   A(5,4,9)              101.1032         -DE/DX =    0.0                 !
 ! A20   A(5,4,14)             112.9946         -DE/DX =    0.0                 !
 ! A21   A(9,4,14)             107.4436         -DE/DX =    0.0                 !
 ! A22   A(4,5,6)              103.6364         -DE/DX =    0.0                 !
 ! A23   A(4,5,15)             111.8576         -DE/DX =    0.0                 !
 ! A24   A(4,5,16)             113.224          -DE/DX =    0.0                 !
 ! A25   A(6,5,15)             108.9816         -DE/DX =    0.0                 !
 ! A26   A(6,5,16)             109.6089         -DE/DX =    0.0                 !
 ! A27   A(15,5,16)            109.3278         -DE/DX =    0.0                 !
 ! A28   A(5,6,7)              107.0659         -DE/DX =    0.0                 !
 ! A29   A(1,7,6)              109.3589         -DE/DX =    0.0                 !
 ! A30   A(1,7,9)              107.8948         -DE/DX =    0.0                 !
 ! A31   A(1,7,17)             111.8626         -DE/DX =    0.0                 !
 ! A32   A(6,7,9)              106.2563         -DE/DX =    0.0                 !
 ! A33   A(6,7,17)             110.7345         -DE/DX =    0.0                 !
 ! A34   A(9,7,17)             110.5376         -DE/DX =    0.0                 !
 ! A35   A(4,9,7)              102.4366         -DE/DX =    0.0                 !
 ! D1    D(7,1,2,3)             34.311          -DE/DX =    0.0                 !
 ! D2    D(7,1,2,10)           159.3569         -DE/DX =    0.0                 !
 ! D3    D(7,1,2,11)           -85.9335         -DE/DX =    0.0                 !
 ! D4    D(8,1,2,3)           -145.9519         -DE/DX =    0.0                 !
 ! D5    D(8,1,2,10)           -20.906          -DE/DX =    0.0                 !
 ! D6    D(8,1,2,11)            93.8036         -DE/DX =    0.0                 !
 ! D7    D(2,1,7,6)             59.3428         -DE/DX =    0.0                 !
 ! D8    D(2,1,7,9)            -55.8232         -DE/DX =    0.0                 !
 ! D9    D(2,1,7,17)          -177.6115         -DE/DX =    0.0                 !
 ! D10   D(8,1,7,6)           -120.3999         -DE/DX =    0.0                 !
 ! D11   D(8,1,7,9)            124.4341         -DE/DX =    0.0                 !
 ! D12   D(8,1,7,17)             2.6458         -DE/DX =    0.0                 !
 ! D13   D(1,2,3,4)            -34.6678         -DE/DX =    0.0                 !
 ! D14   D(1,2,3,12)            84.403          -DE/DX =    0.0                 !
 ! D15   D(1,2,3,13)          -157.5799         -DE/DX =    0.0                 !
 ! D16   D(10,2,3,4)          -157.8102         -DE/DX =    0.0                 !
 ! D17   D(10,2,3,12)          -38.7395         -DE/DX =    0.0                 !
 ! D18   D(10,2,3,13)           79.2777         -DE/DX =    0.0                 !
 ! D19   D(11,2,3,4)            83.2427         -DE/DX =    0.0                 !
 ! D20   D(11,2,3,12)         -157.6866         -DE/DX =    0.0                 !
 ! D21   D(11,2,3,13)          -39.6694         -DE/DX =    0.0                 !
 ! D22   D(2,3,4,5)            -55.2815         -DE/DX =    0.0                 !
 ! D23   D(2,3,4,9)             56.6428         -DE/DX =    0.0                 !
 ! D24   D(2,3,4,14)           175.0144         -DE/DX =    0.0                 !
 ! D25   D(12,3,4,5)          -175.508          -DE/DX =    0.0                 !
 ! D26   D(12,3,4,9)           -63.5837         -DE/DX =    0.0                 !
 ! D27   D(12,3,4,14)           54.7879         -DE/DX =    0.0                 !
 ! D28   D(13,3,4,5)            67.8305         -DE/DX =    0.0                 !
 ! D29   D(13,3,4,9)           179.7548         -DE/DX =    0.0                 !
 ! D30   D(13,3,4,14)          -61.8736         -DE/DX =    0.0                 !
 ! D31   D(3,4,5,6)             87.0812         -DE/DX =    0.0                 !
 ! D32   D(3,4,5,15)          -155.6647         -DE/DX =    0.0                 !
 ! D33   D(3,4,5,16)           -31.5964         -DE/DX =    0.0                 !
 ! D34   D(9,4,5,6)            -29.3143         -DE/DX =    0.0                 !
 ! D35   D(9,4,5,15)            87.9399         -DE/DX =    0.0                 !
 ! D36   D(9,4,5,16)          -147.9919         -DE/DX =    0.0                 !
 ! D37   D(14,4,5,6)          -143.8421         -DE/DX =    0.0                 !
 ! D38   D(14,4,5,15)          -26.5879         -DE/DX =    0.0                 !
 ! D39   D(14,4,5,16)           97.4804         -DE/DX =    0.0                 !
 ! D40   D(3,4,9,7)            -77.5581         -DE/DX =    0.0                 !
 ! D41   D(5,4,9,7)             42.7712         -DE/DX =    0.0                 !
 ! D42   D(14,4,9,7)           161.388          -DE/DX =    0.0                 !
 ! D43   D(4,5,6,7)              4.9921         -DE/DX =    0.0                 !
 ! D44   D(15,5,6,7)          -114.2549         -DE/DX =    0.0                 !
 ! D45   D(16,5,6,7)           126.135          -DE/DX =    0.0                 !
 ! D46   D(5,6,7,1)            -94.0239         -DE/DX =    0.0                 !
 ! D47   D(5,6,7,9)             22.1884         -DE/DX =    0.0                 !
 ! D48   D(5,6,7,17)           142.2628         -DE/DX =    0.0                 !
 ! D49   D(1,7,9,4)             75.615          -DE/DX =    0.0                 !
 ! D50   D(6,7,9,4)            -41.5784         -DE/DX =    0.0                 !
 ! D51   D(17,7,9,4)          -161.7805         -DE/DX =    0.0                 !
 --------------------------------------------------------------------------------
 GradGradGradGradGradGradGradGradGradGradGradGradGradGradGradGradGradGrad

                          Input orientation:                          
 ---------------------------------------------------------------------
 Center     Atomic      Atomic             Coordinates (Angstroms)
 Number     Number       Type             X           Y           Z
 ---------------------------------------------------------------------
      1          6           0        1.360885   -0.098169   -0.049077
      2          6           0        0.856452    1.239818   -0.566271
      3          6           0       -0.443261    1.692399    0.134202
      4          6           0       -1.335397    0.500689    0.473271
      5          6           0       -1.680394   -0.385449   -0.730745
      6          8           0       -0.586945   -1.315129   -0.791395
      7          6           0        0.234841   -1.066967    0.341313
      8          8           0        2.525700   -0.391346    0.048096
      9          8           0       -0.584375   -0.419748    1.289153
     10          1           0        1.653015    1.975390   -0.472136
     11          1           0        0.675661    1.100624   -1.636376
     12          1           0       -0.198768    2.200007    1.068367
     13          1           0       -0.986649    2.405854   -0.488629
     14          1           0       -2.211000    0.802274    1.043607
     15          1           0       -2.607560   -0.938019   -0.575702
     16          1           0       -1.742571    0.168024   -1.668190
     17          1           0        0.624067   -1.998286    0.746064
 ---------------------------------------------------------------------
                    Distance matrix (angstroms):
                    1          2          3          4          5
     1  C    0.000000
     2  C    1.520576   0.000000
     3  C    2.548464   1.544262   0.000000
     4  C    2.810946   2.535973   1.526777   0.000000
     5  C    3.129949   3.017305   2.568284   1.534248   0.000000
     6  O    2.413725   2.943099   3.150016   2.335970   1.436528
     7  C    1.535887   2.555654   2.849003   2.222747   2.298239
     8  O    1.205068   2.413407   3.628242   3.985545   4.277599
     9  O    2.382920   2.876237   2.411429   1.441146   2.298352
    10  H    2.136344   1.088320   2.200478   3.463978   4.092927
    11  H    2.103843   1.094160   2.176495   2.975716   2.929091
    12  H    2.993796   2.169676   1.090920   2.129260   3.480891
    13  H    3.460383   2.182359   1.091882   2.162529   2.886395
    14  H    3.842280   3.491764   2.178128   1.087620   2.200126
    15  H    4.090384   4.091753   3.479548   2.188292   1.090417
    16  H    3.510531   3.019584   2.694539   2.205065   1.090413
    17  H    2.187600   3.501649   3.890337   3.187286   3.176909
                    6          7          8          9         10
     6  O    0.000000
     7  C    1.421247   0.000000
     8  O    3.353607   2.406341   0.000000
     9  O    2.265037   1.410109   3.348671   0.000000
    10  H    3.993352   3.453817   2.575589   3.720852   0.000000
    11  H    2.853775   2.967158   2.913085   3.529581   1.753822
    12  H    3.995695   3.374869   3.895997   2.657171   2.419236
    13  H    3.754616   3.773768   4.522057   3.362493   2.674584
    14  H    3.238546   3.157438   4.985188   2.049278   4.313269
    15  H    2.066790   2.989446   5.199840   2.799923   5.162478
    16  H    2.074604   3.077899   4.634293   3.229980   4.028290
    17  H    2.072929   1.087509   2.585657   2.060840   4.281687
                   11         12         13         14         15
    11  H    0.000000
    12  H    3.047770   0.000000
    13  H    2.405041   1.757090   0.000000
    14  H    3.950207   2.450173   2.533427   0.000000
    15  H    4.007572   4.283976   3.717045   2.409988   0.000000
    16  H    2.592026   3.741795   2.640202   2.824100   1.779064
    17  H    3.909210   4.290291   4.849260   3.996157   3.648924
                   16         17
    16  H    0.000000
    17  H    4.015283   0.000000
 Stoichiometry    C6H8O3
 Framework group  C1[X(C6H8O3)]
 Deg. of freedom    45
 Full point group                 C1      NOp   1
 Largest Abelian subgroup         C1      NOp   1
 Largest concise Abelian subgroup C1      NOp   1
                         Standard orientation:                         
 ---------------------------------------------------------------------
 Center     Atomic      Atomic             Coordinates (Angstroms)
 Number     Number       Type             X           Y           Z
 ---------------------------------------------------------------------
      1          6           0        1.360885   -0.098169   -0.049077
      2          6           0        0.856452    1.239818   -0.566271
      3          6           0       -0.443261    1.692399    0.134202
      4          6           0       -1.335397    0.500689    0.473271
      5          6           0       -1.680394   -0.385449   -0.730745
      6          8           0       -0.586945   -1.315129   -0.791395
      7          6           0        0.234841   -1.066967    0.341313
      8          8           0        2.525700   -0.391346    0.048096
      9          8           0       -0.584375   -0.419748    1.289153
     10          1           0        1.653015    1.975390   -0.472136
     11          1           0        0.675661    1.100624   -1.636376
     12          1           0       -0.198768    2.200007    1.068367
     13          1           0       -0.986649    2.405854   -0.488629
     14          1           0       -2.211000    0.802274    1.043607
     15          1           0       -2.607560   -0.938019   -0.575702
     16          1           0       -1.742571    0.168024   -1.668190
     17          1           0        0.624067   -1.998286    0.746064
 ---------------------------------------------------------------------
 Rotational constants (GHZ):           2.7197603           1.7929513           1.4555201
 1\1\GINC-GAMBA\FOpt\RB3LYP\Gen\C6H8O3\IRIKURA\28-Sep-2023\0\\# b3lyp/g
 en opt freq CPHF(Grid=OneStep)\\Cyrene, B3LYP/pcseg-2\\0,1\C,1.360885,
 -0.098169,-0.049077\C,0.856452,1.239818,-0.566271\C,-0.443261,1.692399
 ,0.134202\C,-1.335397,0.500689,0.473271\C,-1.680394,-0.385449,-0.73074
[...]
     8  O    0.437408  -0.036583   0.006248   0.001913  -0.002021   0.005151
     9  O   -0.020703   0.001693  -0.042732   0.099455  -0.010440  -0.036617
    10  H   -0.032746   0.440521  -0.026533   0.011276  -0.000818   0.001236
    11  H   -0.015253   0.411490  -0.037185  -0.004174  -0.000706  -0.004063
    12  H    0.000454  -0.038068   0.425749  -0.024056   0.008865  -0.000688
    13  H    0.008214  -0.022486   0.412768  -0.013507  -0.007858   0.000883
    14  H   -0.002890   0.006901  -0.014761   0.466983  -0.021518   0.002055
    15  H   -0.002840   0.000765   0.004507  -0.027925   0.448234  -0.035384
    16  H    0.004906  -0.007448   0.004962  -0.049001   0.455682  -0.047492
    17  H   -0.056709   0.007014  -0.004384   0.010764   0.000840  -0.032990
               7          8          9         10         11         12
     1  C    0.394766   0.437408  -0.020703  -0.032746  -0.015253   0.000454
     2  C   -0.126134  -0.036583   0.001693   0.440521   0.411490  -0.038068
     3  C    0.032700   0.006248  -0.042732  -0.026533  -0.037185   0.425749
     4  C   -0.051630   0.001913   0.099455   0.011276  -0.004174  -0.024056
     5  C   -0.004783  -0.002021  -0.010440  -0.000818  -0.000706   0.008865
     6  O    0.098277   0.005151  -0.036617   0.001236  -0.004063  -0.000688
     7  C    4.702922  -0.064864   0.099749   0.005252  -0.001439   0.001560
     8  O   -0.064864   8.301794   0.001628  -0.008210  -0.008922   0.000515
     9  O    0.099749   0.001628   8.646824  -0.003924   0.000706  -0.010385
    10  H    0.005252  -0.008210  -0.003924   0.511861  -0.012331  -0.004703
    11  H   -0.001439  -0.008922   0.000706  -0.012331   0.566571   0.006857
    12  H    0.001560   0.000515  -0.010385  -0.004703   0.006857   0.565029
    13  H   -0.003583  -0.000742   0.011491  -0.003583  -0.009568  -0.015735
    14  H    0.008391   0.000013  -0.036805  -0.000277  -0.000381  -0.007717
    15  H    0.002614   0.000168  -0.007833   0.000064   0.000016  -0.000327
    16  H    0.007540  -0.000615   0.006974  -0.000240   0.001726   0.000333
    17  H    0.458303   0.001058  -0.039794  -0.000039  -0.000191  -0.000143
              13         14         15         16         17
     1  C    0.008214  -0.002890  -0.002840   0.004906  -0.056709
     2  C   -0.022486   0.006901   0.000765  -0.007448   0.007014
     3  C    0.412768  -0.014761   0.004507   0.004962  -0.004384
     4  C   -0.013507   0.466983  -0.027925  -0.049001   0.010764
     5  C   -0.007858  -0.021518   0.448234   0.455682   0.000840
     6  O    0.000883   0.002055  -0.035384  -0.047492  -0.032990
     7  C   -0.003583   0.008391   0.002614   0.007540   0.458303
     8  O   -0.000742   0.000013   0.000168  -0.000615   0.001058
     9  O    0.011491  -0.036805  -0.007833   0.006974  -0.039794
    10  H   -0.003583  -0.000277   0.000064  -0.000240  -0.000039
    11  H   -0.009568  -0.000381   0.000016   0.001726  -0.000191
    12  H   -0.015735  -0.007717  -0.000327   0.000333  -0.000143
    13  H    0.560536  -0.004073   0.000518  -0.003246   0.000136
    14  H   -0.004073   0.492194  -0.004960   0.000773   0.000194
    15  H    0.000518  -0.004960   0.529170  -0.038262   0.001305
    16  H   -0.003246   0.000773  -0.038262   0.539328  -0.000817
    17  H    0.000136   0.000194   0.001305  -0.000817   0.421862
          Atomic-Atomic Spin Densities.
               1          2          3          4          5          6
     1  C    0.000000   0.000000   0.000000   0.000000   0.000000   0.000000
     2  C    0.000000   0.000000   0.000000   0.000000   0.000000   0.000000
     3  C    0.000000   0.000000   0.000000   0.000000   0.000000   0.000000
     4  C    0.000000   0.000000   0.000000   0.000000   0.000000   0.000000
     5  C    0.000000   0.000000   0.000000   0.000000   0.000000   0.000000
     6  O    0.000000   0.000000   0.000000   0.000000   0.000000   0.000000
     7  C    0.000000   0.000000   0.000000   0.000000   0.000000   0.000000
     8  O    0.000000   0.000000   0.000000   0.000000   0.000000   0.000000
     9  O    0.000000   0.000000   0.000000   0.000000   0.000000   0.000000
    10  H    0.000000   0.000000   0.000000   0.000000   0.000000   0.000000
    11  H    0.000000   0.000000   0.000000   0.000000   0.000000   0.000000
    12  H    0.000000   0.000000   0.000000   0.000000   0.000000   0.000000
    13  H    0.000000   0.000000   0.000000   0.000000   0.000000   0.000000
    14  H    0.000000   0.000000   0.000000   0.000000   0.000000   0.000000
    15  H    0.000000   0.000000   0.000000   0.000000   0.000000   0.000000
    16  H    0.000000   0.000000   0.000000   0.000000   0.000000   0.000000
    17  H    0.000000   0.000000   0.000000   0.000000   0.000000   0.000000
               7          8          9         10         11         12
     1  C    0.000000   0.000000   0.000000   0.000000   0.000000   0.000000
     2  C    0.000000   0.000000   0.000000   0.000000   0.000000   0.000000
     3  C    0.000000   0.000000   0.000000   0.000000   0.000000   0.000000
     4  C    0.000000   0.000000   0.000000   0.000000   0.000000   0.000000
     5  C    0.000000   0.000000   0.000000   0.000000   0.000000   0.000000
     6  O    0.000000   0.000000   0.000000   0.000000   0.000000   0.000000
     7  C    0.000000   0.000000   0.000000   0.000000   0.000000   0.000000
     8  O    0.000000   0.000000   0.000000   0.000000   0.000000   0.000000
     9  O    0.000000   0.000000   0.000000   0.000000   0.000000   0.000000
    10  H    0.000000   0.000000   0.000000   0.000000   0.000000   0.000000
    11  H    0.000000   0.000000   0.000000   0.000000   0.000000   0.000000
    12  H    0.000000   0.000000   0.000000   0.000000   0.000000   0.000000
    13  H    0.000000   0.000000   0.000000   0.000000   0.000000   0.000000
    14  H    0.000000   0.000000   0.000000   0.000000   0.000000   0.000000
    15  H    0.000000   0.000000   0.000000   0.000000   0.000000   0.000000
    16  H    0.000000   0.000000   0.000000   0.000000   0.000000   0.000000
    17  H    0.000000   0.000000   0.000000   0.000000   0.000000   0.000000
              13         14         15         16         17
     1  C    0.000000   0.000000   0.000000   0.000000   0.000000
     2  C    0.000000   0.000000   0.000000   0.000000   0.000000
     3  C    0.000000   0.000000   0.000000   0.000000   0.000000
     4  C    0.000000   0.000000   0.000000   0.000000   0.000000
     5  C    0.000000   0.000000   0.000000   0.000000   0.000000
     6  O    0.000000   0.000000   0.000000   0.000000   0.000000
     7  C    0.000000   0.000000   0.000000   0.000000   0.000000
     8  O    0.000000   0.000000   0.000000   0.000000   0.000000
     9  O    0.000000   0.000000   0.000000   0.000000   0.000000
    10  H    0.000000   0.000000   0.000000   0.000000   0.000000
    11  H    0.000000   0.000000   0.000000   0.000000   0.000000
    12  H    0.000000   0.000000   0.000000   0.000000   0.000000
    13  H    0.000000   0.000000   0.000000   0.000000   0.000000
    14  H    0.000000   0.000000   0.000000   0.000000   0.000000
    15  H    0.000000   0.000000   0.000000   0.000000   0.000000
    16  H    0.000000   0.000000   0.000000   0.000000   0.000000
    17  H    0.000000   0.000000   0.000000   0.000000   0.000000
 Mulliken charges and spin densities:
               1          2
     1  C    0.475435   0.000000
     2  C   -0.149448   0.000000
     3  C   -0.220175   0.000000
     4  C    0.338909   0.000000
     5  C   -0.020920   0.000000
     6  O   -0.587814   0.000000
     7  C    0.440360   0.000000
     8  O   -0.633940   0.000000
     9  O   -0.659287   0.000000
    10  H    0.123194   0.000000
    11  H    0.106849   0.000000
    12  H    0.092462   0.000000
    13  H    0.089835   0.000000
    14  H    0.115881   0.000000
    15  H    0.130172   0.000000
    16  H    0.124897   0.000000
    17  H    0.233590   0.000000
 Sum of Mulliken charges =  -0.00000   0.00000
 Mulliken charges and spin densities with hydrogens summed into heavy atoms:
               1          2
     1  C    0.475435   0.000000
     2  C    0.080595   0.000000
     3  C   -0.037878   0.000000
     4  C    0.454790   0.000000
     5  C    0.234148   0.000000
     6  O   -0.587814   0.000000
     7  C    0.673951   0.000000
     8  O   -0.633940   0.000000
     9  O   -0.659287   0.000000
 Electronic spatial extent (au):  <R**2>=            938.2164
 Charge=             -0.0000 electrons
 Dipole moment (field-independent basis, Debye):
    X=             -3.7134    Y=              2.7779    Z=             -0.8273  Tot=              4.7107
 Quadrupole moment (field-independent basis, Debye-Ang):
   XX=            -58.3677   YY=            -50.9435   ZZ=            -54.5595
   XY=              0.1027   XZ=              0.6663   YZ=             -1.7242
 Traceless Quadrupole moment (field-independent basis, Debye-Ang):
   XX=             -3.7441   YY=              3.6801   ZZ=              0.0641
   XY=              0.1027   XZ=              0.6663   YZ=             -1.7242
 Octapole moment (field-independent basis, Debye-Ang**2):
  XXX=            -41.0956  YYY=             -3.5416  ZZZ=             -4.4085  XYY=              3.5865
  XXY=              4.4236  XXZ=             -0.9387  XZZ=              1.6477  YZZ=              2.8045
  YYZ=              5.8444  XYZ=             -1.1871
 Hexadecapole moment (field-independent basis, Debye-Ang**3):
 XXXX=           -662.5594 YYYY=           -382.7438 ZZZZ=           -205.6177 XXXY=             19.6306
 XXXZ=             -3.4379 YYYX=             -2.7091 YYYZ=             -8.7039 ZZZX=              3.4134
 ZZZY=              1.1283 XXYY=           -160.4033 XXZZ=           -128.2649 YYZZ=            -98.9064
 XXYZ=              3.7597 YYXZ=              0.0540 ZZXY=             -4.3594
 N-N= 4.883267382971D+02 E-N=-2.049125790147D+03  KE= 4.561118987723D+02
                          Isotropic Fermi Contact Couplings
        Atom                 a.u.       MegaHertz       Gauss      10(-4) cm-1
     1  C(13)              0.00000       0.00000       0.00000       0.00000
     2  C(13)              0.00000       0.00000       0.00000       0.00000
     3  C(13)              0.00000       0.00000       0.00000       0.00000
     4  C(13)              0.00000       0.00000       0.00000       0.00000
     5  C(13)              0.00000       0.00000       0.00000       0.00000
     6  O(17)              0.00000      -0.00000      -0.00000      -0.00000
     7  C(13)              0.00000       0.00000       0.00000       0.00000
     8  O(17)              0.00000      -0.00000      -0.00000      -0.00000
     9  O(17)              0.00000      -0.00000      -0.00000      -0.00000
    10  H(1)               0.00000       0.00000       0.00000       0.00000
    11  H(1)               0.00000       0.00000       0.00000       0.00000
    12  H(1)               0.00000       0.00000       0.00000       0.00000
    13  H(1)               0.00000       0.00000       0.00000       0.00000
    14  H(1)               0.00000       0.00000       0.00000       0.00000
    15  H(1)               0.00000       0.00000       0.00000       0.00000
    16  H(1)               0.00000       0.00000       0.00000       0.00000
    17  H(1)               0.00000       0.00000       0.00000       0.00000
 --------------------------------------------------------
       Center         ----  Spin Dipole Couplings  ----
                      3XX-RR        3YY-RR        3ZZ-RR
 --------------------------------------------------------
     1   Atom        0.000000      0.000000      0.000000
     2   Atom        0.000000      0.000000      0.000000
     3   Atom        0.000000      0.000000      0.000000
     4   Atom        0.000000      0.000000      0.000000
     5   Atom        0.000000      0.000000      0.000000
     6   Atom        0.000000      0.000000      0.000000
     7   Atom        0.000000      0.000000      0.000000
     8   Atom        0.000000      0.000000      0.000000
     9   Atom        0.000000      0.000000      0.000000
    10   Atom        0.000000      0.000000      0.000000
    11   Atom        0.000000      0.000000      0.000000
    12   Atom        0.000000      0.000000      0.000000
    13   Atom        0.000000      0.000000      0.000000
    14   Atom        0.000000      0.000000      0.000000
    15   Atom        0.000000      0.000000      0.000000
    16   Atom        0.000000      0.000000      0.000000
    17   Atom        0.000000      0.000000      0.000000
 --------------------------------------------------------
                        XY            XZ            YZ
 --------------------------------------------------------
     1   Atom        0.000000      0.000000      0.000000
     2   Atom        0.000000      0.000000      0.000000
     3   Atom        0.000000      0.000000      0.000000
     4   Atom        0.000000      0.000000      0.000000
     5   Atom        0.000000      0.000000      0.000000
     6   Atom        0.000000      0.000000      0.000000
     7   Atom        0.000000      0.000000      0.000000
     8   Atom        0.000000      0.000000      0.000000
     9   Atom        0.000000      0.000000      0.000000
    10   Atom        0.000000      0.000000      0.000000
    11   Atom        0.000000      0.000000      0.000000
    12   Atom        0.000000      0.000000      0.000000
    13   Atom        0.000000      0.000000      0.000000
    14   Atom        0.000000      0.000000      0.000000
    15   Atom        0.000000      0.000000      0.000000
    16   Atom        0.000000      0.000000      0.000000
    17   Atom        0.000000      0.000000      0.000000
 --------------------------------------------------------


 ---------------------------------------------------------------------------------
              Anisotropic Spin Dipole Couplings in Principal Axis System
 ---------------------------------------------------------------------------------

       Atom             a.u.   MegaHertz   Gauss  10(-4) cm-1        Axes

              Baa     0.0000     0.000     0.000     0.000  1.0000  0.0000  0.0000
     1 C(13)  Bbb     0.0000     0.000     0.000     0.000 -0.0000  1.0000  0.0000
              Bcc     0.0000     0.000     0.000     0.000  0.0000  0.0000  1.0000
 
              Baa     0.0000     0.000     0.000     0.000  1.0000  0.0000  0.0000
     2 C(13)  Bbb     0.0000     0.000     0.000     0.000 -0.0000  1.0000  0.0000
              Bcc     0.0000     0.000     0.000     0.000  0.0000  0.0000  1.0000
 
              Baa     0.0000     0.000     0.000     0.000  1.0000  0.0000  0.0000
     3 C(13)  Bbb     0.0000     0.000     0.000     0.000 -0.0000  1.0000  0.0000
              Bcc     0.0000     0.000     0.000     0.000  0.0000  0.0000  1.0000
 
              Baa     0.0000     0.000     0.000     0.000  1.0000  0.0000  0.0000
     4 C(13)  Bbb     0.0000     0.000     0.000     0.000 -0.0000  1.0000  0.0000
              Bcc     0.0000     0.000     0.000     0.000  0.0000  0.0000  1.0000
 
              Baa     0.0000     0.000     0.000     0.000  1.0000  0.0000  0.0000
     5 C(13)  Bbb     0.0000     0.000     0.000     0.000 -0.0000  1.0000  0.0000
              Bcc     0.0000     0.000     0.000     0.000  0.0000  0.0000  1.0000
 
              Baa     0.0000    -0.000    -0.000    -0.000  1.0000  0.0000  0.0000
     6 O(17)  Bbb     0.0000    -0.000    -0.000    -0.000 -0.0000  1.0000  0.0000
              Bcc     0.0000    -0.000    -0.000    -0.000  0.0000  0.0000  1.0000
 
              Baa     0.0000     0.000     0.000     0.000  1.0000  0.0000  0.0000
     7 C(13)  Bbb     0.0000     0.000     0.000     0.000 -0.0000  1.0000  0.0000
              Bcc     0.0000     0.000     0.000     0.000  0.0000  0.0000  1.0000
 
              Baa     0.0000    -0.000    -0.000    -0.000  1.0000  0.0000  0.0000
     8 O(17)  Bbb     0.0000    -0.000    -0.000    -0.000 -0.0000  1.0000  0.0000
              Bcc     0.0000    -0.000    -0.000    -0.000  0.0000  0.0000  1.0000
 
              Baa     0.0000    -0.000    -0.000    -0.000  1.0000  0.0000  0.0000
     9 O(17)  Bbb     0.0000    -0.000    -0.000    -0.000 -0.0000  1.0000  0.0000
              Bcc     0.0000    -0.000    -0.000    -0.000  0.0000  0.0000  1.0000
 
              Baa     0.0000     0.000     0.000     0.000  1.0000  0.0000  0.0000
    10 H(1)   Bbb     0.0000     0.000     0.000     0.000 -0.0000  1.0000  0.0000
              Bcc     0.0000     0.000     0.000     0.000  0.0000  0.0000  1.0000
 
              Baa     0.0000     0.000     0.000     0.000  1.0000  0.0000  0.0000
    11 H(1)   Bbb     0.0000     0.000     0.000     0.000 -0.0000  1.0000  0.0000
              Bcc     0.0000     0.000     0.000     0.000  0.0000  0.0000  1.0000
 
              Baa     0.0000     0.000     0.000     0.000  1.0000  0.0000  0.0000
    12 H(1)   Bbb     0.0000     0.000     0.000     0.000 -0.0000  1.0000  0.0000
              Bcc     0.0000     0.000     0.000     0.000  0.0000  0.0000  1.0000
 
              Baa     0.0000     0.000     0.000     0.000  1.0000  0.0000  0.0000
    13 H(1)   Bbb     0.0000     0.000     0.000     0.000 -0.0000  1.0000  0.0000
              Bcc     0.0000     0.000     0.000     0.000  0.0000  0.0000  1.0000
 
              Baa     0.0000     0.000     0.000     0.000  1.0000  0.0000  0.0000
    14 H(1)   Bbb     0.0000     0.000     0.000     0.000 -0.0000  1.0000  0.0000
              Bcc     0.0000     0.000     0.000     0.000  0.0000  0.0000  1.0000
 
              Baa     0.0000     0.000     0.000     0.000  1.0000  0.0000  0.0000
    15 H(1)   Bbb     0.0000     0.000     0.000     0.000 -0.0000  1.0000  0.0000
              Bcc     0.0000     0.000     0.000     0.000  0.0000  0.0000  1.0000
 
              Baa     0.0000     0.000     0.000     0.000  1.0000  0.0000  0.0000
    16 H(1)   Bbb     0.0000     0.000     0.000     0.000 -0.0000  1.0000  0.0000
              Bcc     0.0000     0.000     0.000     0.000  0.0000  0.0000  1.0000
 
              Baa     0.0000     0.000     0.000     0.000  1.0000  0.0000  0.0000
    17 H(1)   Bbb     0.0000     0.000     0.000     0.000 -0.0000  1.0000  0.0000
              Bcc     0.0000     0.000     0.000     0.000  0.0000  0.0000  1.0000
 

 ---------------------------------------------------------------------------------

 1\1\GINC-GAMBA\SP\ROHF\Gen\C6H8O3\IRIKURA\28-Sep-2023\0\\# rohf/gen ge
 om=check guess=check\\Cyrene, ROHF/cc-pVTZ-F12\\0,1\C,0,1.360885,-0.09
 8169,-0.049077\C,0,0.856452,1.239818,-0.566271\C,0,-0.443261,1.692399,
 0.134202\C,0,-1.335397,0.500689,0.473271\C,0,-1.680394,-0.385449,-0.73
 0745\O,0,-0.586945,-1.315129,-0.791395\C,0,0.234841,-1.066967,0.341313
 \O,0,2.5257,-0.391346,0.048096\O,0,-0.584375,-0.419748,1.289153\H,0,1.
 653015,1.97539,-0.472136\H,0,0.675661,1.100624,-1.636376\H,0,-0.198768
 ,2.200007,1.068367\H,0,-0.986649,2.405854,-0.488629\H,0,-2.211,0.80227
 4,1.043607\H,0,-2.60756,-0.938019,-0.575702\H,0,-1.742571,0.168024,-1.
 66819\H,0,0.624067,-1.998286,0.746064\\Version=ES64L-G16RevB.01\State=
 1-A\HF=-456.6277623\RMSD=7.510e-09\Dipole=-1.4609532,1.0929138,-0.3254
 901\Quadrupole=-2.7836805,2.736056,0.0476245,0.0763385,0.4953972,-1.28
 19104\PG=C01 [X(C6H8O3)]\\@


    UPON JULIA'S CLOTHES

 WHENAS IN SILKS MY JULIA GOES,
 THEN, THEN, METHINKS, HOW SWEETLY FLOWS
 THAT LIQUEFACTION OF HER CLOTHES.

 NEXT, WHEN I CAST MINE EYES, AND SEE
 THAT BRAVE VIBRATION, EACH WAY FREE,
 O, HOW THAT GLITTERING TAKETH ME!
     -- ROBERT HERRICK, 1648
 Job cpu time:       0 days  1 hours 44 minutes 58.7 seconds.
 Elapsed time:       0 days  0 hours 26 minutes 15.7 seconds.
 File lengths (MBytes):  RWF=    268 Int=      0 D2E=      0 Chk=     33 Scr=      1
 Normal termination of Gaussian 16 at Thu Sep 28 17:05:01 2023.
