 Entering Gaussian System, Link 0=g16
 AtFile(1): pcseg2.gbs
            -H     0
            S    4   1.00
                  0.754732D+02           0.427821D-02
                  0.113575D+02           0.328672D-01
                  0.260081D+01           0.159578D+00
                  0.735503D+00           0.500000D+00
            S    1   1.00
                  0.231761D+00           1.0000000
            S    1   1.00
                  0.741675D-01           1.0000000
            P    1   1.00
                  0.160000D+01           1.0000000
            P    1   1.00
                  0.450000D+00           1.0000000
            D    1   1.00
                  0.125000D+01           1.0000000
            ****
            -He     0
            S    4   1.00
                  0.221782D+03           0.504144D-02
                  0.333758D+02           0.381184D-01
                  0.761157D+01           0.175609D+00
                  0.210893D+01           0.500000D+00
            S    1   1.00
                  0.628783D+00           1.0000000
            S    1   1.00
                  0.184690D+00           1.0000000
            P    1   1.00
                  0.240000D+01           1.0000000
            P    1   1.00
                  0.680000D+00           1.0000000
            D    1   1.00
                  0.180000D+01           1.0000000
            ****
            -Li     0
            S    7   1.00
                  0.155855D+04           0.820882D-03
                  0.233908D+03           0.633220D-02
                  0.532801D+02           0.321400D-01
                  0.150819D+02           0.119124D+00
                  0.483549D+01           0.308154D+00
                  0.165502D+01           0.500000D+00
                  0.580558D+00           0.376030D+00
            S    1   1.00
                  0.684458D-01           1.0000000
            S    2   1.00
                  0.770933D+00          -0.847279D-01
                  0.751972D-01           0.500000D+00
            S    1   1.00
                  0.257666D-01           1.0000000
            P    3   1.00
                  0.237235D+01           0.394733D-01
                  0.468805D+00           0.203928D+00
                  0.127393D+00           0.500000D+00
            P    1   1.00
                  0.348095D-01           1.0000000
            D    1   1.00
                  0.260000D+00           1.0000000
            ****
            -Be     0
            S    7   1.00
                  0.294475D+04           0.773431D-03
                  0.441879D+03           0.596942D-02
                  0.100624D+03           0.304024D-01
                  0.284712D+02           0.114358D+00
                  0.914444D+01           0.305833D+00
                  0.317664D+01           0.500000D+00
                  0.112275D+01           0.347539D+00
            S    2   1.00
                  0.192303D+01          -0.886331D-01
                  0.191413D+00           0.500000D+00
            S    1   1.00
                  0.833307D-01           1.0000000
            S    1   1.00
                  0.374215D-01           1.0000000
            P    3   1.00
                  0.372379D+01           0.406783D-01
                  0.752088D+00           0.210745D+00
                  0.204375D+00           0.500000D+00
            P    1   1.00
                  0.548729D-01           1.0000000
            D    1   1.00
                  0.390000D+00           1.0000000
            ****
            -B     0
            S    7   1.00
                  0.491006D+04           0.719963D-03
                  0.736668D+03           0.555998D-02
                  0.167722D+03           0.283969D-01
                  0.474653D+02           0.107966D+00
                  0.152998D+02           0.295582D+00
                  0.535059D+01           0.500000D+00
                  0.191018D+01           0.356938D+00
            S    2   1.00
                  0.336487D+01          -0.927184D-01
                  0.351154D+00           0.500000D+00
            S    1   1.00
                  0.147529D+00           1.0000000
            S    1   1.00
                  0.631265D-01           1.0000000
            P    4   1.00
                  0.219892D+02           0.807954D-02
                  0.493853D+01           0.573813D-01
                  0.141047D+01           0.215067D+00
                  0.480433D+00           0.500000D+00
            P    1   1.00
                  0.165050D+00           1.0000000
            P    1   1.00
                  0.542186D-01           1.0000000
            D    1   1.00
                  0.105000D+01           1.0000000
            D    1   1.00
                  0.350000D+00           1.0000000
            F    1   1.00
                  0.870000D+00           1.0000000
            ****
            -C     0
            S    7   1.00
                  0.731999D+04           0.695369D-03
                  0.109818D+04           0.537138D-02
                  0.250014D+03           0.274734D-01
                  0.707586D+02           0.105078D+00
                  0.228595D+02           0.291262D+00
                  0.803936D+01           0.500000D+00
                  0.289309D+01           0.362224D+00
            S    2   1.00
                  0.521640D+01          -0.957844D-01
                  0.556124D+00           0.500000D+00
            S    1   1.00
                  0.228813D+00           1.0000000
            S    1   1.00
                  0.936338D-01           1.0000000
            P    4   1.00
                  0.339855D+02           0.818395D-02
                  0.772957D+01           0.586921D-01
                  0.224954D+01           0.222514D+00
                  0.767681D+00           0.500000D+00
            P    1   1.00
                  0.263283D+00           1.0000000
            P    1   1.00
                  0.848744D-01           1.0000000
            D    1   1.00
                  0.140000D+01           1.0000000
            D    1   1.00
                  0.450000D+00           1.0000000
            F    1   1.00
                  0.950000D+00           1.0000000
            ****
            -N     0
            S    7   1.00
                  0.101643D+05           0.682757D-03
                  0.152481D+04           0.527488D-02
                  0.347119D+03           0.270037D-01
                  0.982389D+02           0.103673D+00
                  0.317799D+02           0.289575D+00
                  0.112240D+02           0.500000D+00
                  0.406611D+01           0.364621D+00
            S    2   1.00
                  0.747898D+01          -0.975681D-01
                  0.805040D+00           0.500000D+00
            S    1   1.00
                  0.324626D+00           1.0000000
            S    1   1.00
                  0.128132D+00           1.0000000
            P    4   1.00
                  0.482704D+02           0.829547D-02
                  0.110815D+02           0.596223D-01
                  0.326643D+01           0.227889D+00
                  0.111680D+01           0.500000D+00
            P    1   1.00
                  0.382049D+00           1.0000000
            P    1   1.00
                  0.121222D+00           1.0000000
            D    1   1.00
                  0.180000D+01           1.0000000
            D    1   1.00
                  0.550000D+00           1.0000000
            F    1   1.00
                  0.102000D+01           1.0000000
            ****
            -O     0
            S    7   1.00
                  0.135887D+05           0.665492D-03
                  0.203847D+04           0.514222D-02
                  0.464041D+03           0.263472D-01
                  0.131339D+03           0.101500D+00
                  0.425340D+02           0.285877D+00
                  0.150429D+02           0.500000D+00
                  0.546616D+01           0.368211D+00
            S    2   1.00
                  0.100915D+02          -0.100084D+00
                  0.110429D+01           0.500000D+00
            S    1   1.00
                  0.448082D+00           1.0000000
            S    1   1.00
                  0.175325D+00           1.0000000
            P    4   1.00
                  0.608220D+02           0.908253D-02
                  0.140332D+02           0.645878D-01
                  0.418244D+01           0.241502D+00
                  0.142490D+01           0.500000D+00
            P    1   1.00
                  0.478741D+00           1.0000000
            P    1   1.00
                  0.146257D+00           1.0000000
            D    1   1.00
                  0.220000D+01           1.0000000
            D    1   1.00
                  0.650000D+00           1.0000000
            F    1   1.00
                  0.110000D+01           1.0000000
            ****
            -F     0
            S    7   1.00
                  0.174507D+05           0.655972D-03
                  0.261768D+04           0.506944D-02
                  0.595857D+03           0.259899D-01
                  0.168651D+03           0.100353D+00
                  0.546654D+02           0.284095D+00
                  0.193717D+02           0.500000D+00
                  0.706202D+01           0.370721D+00
            S    2   1.00
                  0.131197D+02          -0.101997D+00
                  0.145046D+01           0.500000D+00
            S    1   1.00
                  0.588255D+00           1.0000000
            S    1   1.00
                  0.227960D+00           1.0000000
            P    4   1.00
                  0.779407D+02           0.931135D-02
                  0.180425D+02           0.663964D-01
                  0.542342D+01           0.246386D+00
                  0.184876D+01           0.500000D+00
            P    1   1.00
                  0.617455D+00           1.0000000
            P    1   1.00
                  0.185496D+00           1.0000000
            D    1   1.00
                  0.280000D+01           1.0000000
            D    1   1.00
                  0.800000D+00           1.0000000
            F    1   1.00
                  0.120000D+01           1.0000000
            ****
            -Ne     0
            S    7   1.00
                  0.217224D+05           0.651348D-03
                  0.325842D+04           0.503391D-02
                  0.741722D+03           0.258151D-01
                  0.209944D+03           0.998321D-01
                  0.680916D+02           0.283541D+00
                  0.241760D+02           0.500000D+00
                  0.884214D+01           0.371672D+00
            S    2   1.00
                  0.165667D+02          -0.102833D+00
                  0.183862D+01           0.500000D+00
            S    1   1.00
                  0.740431D+00           1.0000000
            S    1   1.00
                  0.283937D+00           1.0000000
            P    4   1.00
                  0.973358D+02           0.945185D-02
                  0.226052D+02           0.674728D-01
                  0.683524D+01           0.249630D+00
                  0.233071D+01           0.500000D+00
            P    1   1.00
                  0.775470D+00           1.0000000
            P    1   1.00
                  0.230572D+00           1.0000000
            D    1   1.00
                  0.300000D+01           1.0000000
            D    1   1.00
                  0.850000D+00           1.0000000
            F    1   1.00
                  0.130000D+01           1.0000000
            ****
            -Na     0
            S    8   1.00
                  0.570255D+05           0.257591D-03
                  0.854710D+04           0.199792D-02
                  0.194516D+04           0.103946D-01
                  0.550737D+03           0.422553D-01
                  0.179362D+03           0.137082D+00
                  0.643703D+02           0.329261D+00
                  0.247211D+02           0.500000D+00
                  0.962704D+01           0.312399D+00
            S    3   1.00
                  0.547955D+02          -0.274204D-01
                  0.162859D+02          -0.124741D+00
                  0.249115D+01           0.500000D+00
            S    2   1.00
                  0.102140D+01           0.500000D+00
                  0.414410D+00           0.217447D+00
            S    1   1.00
                  0.626192D-01           1.0000000
            S    1   1.00
                  0.223001D-01           1.0000000
            P    7   1.00
                  0.230133D+03           0.336899D-02
                  0.541082D+02           0.261720D-01
                  0.173774D+02           0.110467D+00
                  0.630965D+01           0.307494D+00
                  0.240664D+01           0.505540D+00
                  0.901852D+00           0.500000D+00
                  0.314401D+00           0.218440D+00
            P    1   1.00
                  0.121000D+00           1.0000000
            P    1   1.00
                  0.390000D-01           1.0000000
            D    1   1.00
                  0.240000D+00           1.0000000
            ****
            -Mg     0
            S    8   1.00
                  0.696037D+05           0.249938D-03
                  0.104340D+05           0.193826D-02
                  0.237475D+04           0.100873D-01
                  0.672334D+03           0.410647D-01
                  0.218958D+03           0.133776D+00
                  0.786250D+02           0.323983D+00
                  0.302141D+02           0.500000D+00
                  0.117909D+02           0.321048D+00
            S    3   1.00
                  0.650711D+02          -0.303312D-01
                  0.194626D+02          -0.136074D+00
                  0.312938D+01           0.500000D+00
            S    2   1.00
                  0.137154D+01           0.500000D+00
                  0.593539D+00           0.251494D+00
            S    1   1.00
                  0.115034D+00           1.0000000
            S    1   1.00
                  0.403001D-01           1.0000000
            P    7   1.00
                  0.308909D+03           0.287113D-02
                  0.728662D+02           0.225671D-01
                  0.234913D+02           0.986025D-01
                  0.856264D+01           0.285692D+00
                  0.330686D+01           0.494702D+00
                  0.126930D+01           0.500000D+00
                  0.461127D+00           0.204239D+00
            P    1   1.00
                  0.177000D+00           1.0000000
            P    1   1.00
                  0.570000D-01           1.0000000
            D    1   1.00
                  0.300000D+00           1.0000000
            ****
            -Al     0
            S    8   1.00
                  0.839008D+05           0.242171D-03
                  0.125769D+05           0.187813D-02
                  0.286262D+04           0.977638D-02
                  0.810575D+03           0.398378D-01
                  0.264080D+03           0.130219D+00
                  0.949196D+02           0.318122D+00
                  0.364975D+02           0.500000D+00
                  0.142821D+02           0.331616D+00
            S    3   1.00
                  0.760827D+02          -0.355982D-01
                  0.228710D+02          -0.157455D+00
                  0.392618D+01           0.500000D+00
            S    2   1.00
                  0.185485D+01           0.500000D+00
                  0.827583D+00           0.302771D+00
            S    1   1.00
                  0.180478D+00           1.0000000
            S    1   1.00
                  0.638999D-01           1.0000000
            P    7   1.00
                  0.576213D+03           0.132187D-02
                  0.136705D+03           0.108113D-01
                  0.437989D+02           0.539925D-01
                  0.160383D+02           0.176991D+00
                  0.643523D+01           0.377687D+00
                  0.264221D+01           0.500000D+00
                  0.106841D+01           0.352071D+00
            P    2   1.00
                  0.458274D+01          -0.162529D-01
                  0.390489D+00           0.500000D+00
            P    1   1.00
                  0.133161D+00           1.0000000
            P    1   1.00
                  0.418671D-01           1.0000000
            D    1   1.00
                  0.147000D+01           1.0000000
            D    1   1.00
                  0.330000D+00           1.0000000
            F    1   1.00
                  0.480000D+00           1.0000000
            ****
            -Si     0
            S    8   1.00
                  0.996133D+05           0.235546D-03
                  0.149311D+05           0.182707D-02
                  0.339820D+04           0.951425D-02
                  0.962140D+03           0.388172D-01
                  0.313430D+03           0.127328D+00
                  0.112683D+03           0.313522D+00
                  0.433372D+02           0.500000D+00
                  0.170029D+02           0.340347D+00
            S    3   1.00
                  0.884208D+02          -0.404451D-01
                  0.266756D+02          -0.178059D+00
                  0.479640D+01           0.500000D+00
            S    2   1.00
                  0.239385D+01           0.500000D+00
                  0.108333D+01           0.338016D+00
            S    1   1.00
                  0.252420D+00           1.0000000
            S    1   1.00
                  0.891210D-01           1.0000000
            P    7   1.00
                  0.709901D+03           0.123028D-02
                  0.168426D+03           0.101366D-01
                  0.539946D+02           0.511840D-01
                  0.198646D+02           0.169967D+00
                  0.801369D+01           0.370717D+00
                  0.331870D+01           0.500000D+00
                  0.136112D+01           0.344128D+00
            P    2   1.00
                  0.622158D+01          -0.166609D-01
                  0.503049D+00           0.500000D+00
            P    1   1.00
                  0.179848D+00           1.0000000
            P    1   1.00
                  0.591912D-01           1.0000000
            D    1   1.00
                  0.168000D+01           1.0000000
            D    1   1.00
                  0.380000D+00           1.0000000
            F    1   1.00
                  0.540000D+00           1.0000000
            ****
            -P     0
            S    8   1.00
                  0.116416D+06           0.230715D-03
                  0.174500D+05           0.178960D-02
                  0.397149D+04           0.932116D-02
                  0.112447D+04           0.380591D-01
                  0.366347D+03           0.125148D+00
                  0.131757D+03           0.310022D+00
                  0.506988D+02           0.500000D+00
                  0.199436D+02           0.347528D+00
            S    3   1.00
                  0.101878D+03          -0.446755D-01
                  0.308249D+02          -0.196376D+00
                  0.573688D+01           0.500000D+00
            S    2   1.00
                  0.296868D+01           0.500000D+00
                  0.135315D+01           0.355098D+00
            S    1   1.00
                  0.332196D+00           1.0000000
            S    1   1.00
                  0.116229D+00           1.0000000
            P    7   1.00
                  0.873928D+03           0.112375D-02
                  0.207298D+03           0.933330D-02
                  0.664628D+02           0.477213D-01
                  0.245665D+02           0.160733D+00
                  0.996820D+01           0.359760D+00
                  0.416536D+01           0.500000D+00
                  0.173022D+01           0.346593D+00
            P    2   1.00
                  0.772530D+01          -0.175718D-01
                  0.657252D+00           0.500000D+00
            P    1   1.00
                  0.239903D+00           1.0000000
            P    1   1.00
                  0.800988D-01           1.0000000
            D    1   1.00
                  0.189000D+01           1.0000000
            D    1   1.00
                  0.430000D+00           1.0000000
            F    1   1.00
                  0.600000D+00           1.0000000
            ****
            -S     0
            S    8   1.00
                  0.134700D+06           0.226231D-03
                  0.201904D+05           0.175488D-02
                  0.459528D+04           0.914190D-02
                  0.130109D+04           0.373551D-01
                  0.423902D+03           0.123121D+00
                  0.152485D+03           0.306801D+00
                  0.586925D+02           0.500000D+00
                  0.231461D+02           0.354358D+00
            S    3   1.00
                  0.116327D+03          -0.491772D-01
                  0.352841D+02          -0.215962D+00
                  0.677831D+01           0.500000D+00
            S    2   1.00
                  0.360404D+01           0.500000D+00
                  0.164871D+01           0.366278D+00
            S    1   1.00
                  0.421821D+00           1.0000000
            S    1   1.00
                  0.147554D+00           1.0000000
            P    7   1.00
                  0.104863D+04           0.105273D-02
                  0.248717D+03           0.879338D-02
                  0.797887D+02           0.453358D-01
                  0.296023D+02           0.154476D+00
                  0.120627D+02           0.352366D+00
                  0.507628D+01           0.500000D+00
                  0.213375D+01           0.346429D+00
            P    2   1.00
                  0.928958D+01          -0.185932D-01
                  0.837819D+00           0.500000D+00
            P    1   1.00
                  0.301495D+00           1.0000000
            P    1   1.00
                  0.974740D-01           1.0000000
            D    1   1.00
                  0.210000D+01           1.0000000
            D    1   1.00
                  0.480000D+00           1.0000000
            F    1   1.00
                  0.660000D+00           1.0000000
            ****
            -Cl     0
            S    8   1.00
                  0.154272D+06           0.222473D-03
                  0.231232D+05           0.172590D-02
                  0.526257D+04           0.899286D-02
                  0.148995D+04           0.367724D-01
                  0.485417D+03           0.121446D+00
                  0.174634D+03           0.304148D+00
                  0.672393D+02           0.500000D+00
                  0.265780D+02           0.360252D+00
            S    3   1.00
                  0.131826D+03          -0.531330D-01
                  0.400703D+02          -0.233346D+00
                  0.789448D+01           0.500000D+00
            S    2   1.00
                  0.427711D+01           0.500000D+00
                  0.196233D+01           0.370517D+00
            S    1   1.00
                  0.520793D+00           1.0000000
            S    1   1.00
                  0.181633D+00           1.0000000
            P    7   1.00
                  0.124440D+04           0.988206D-03
                  0.295109D+03           0.829674D-02
                  0.947224D+02           0.430906D-01
                  0.352588D+02           0.148443D+00
                  0.144211D+02           0.344744D+00
                  0.610371D+01           0.500000D+00
                  0.258886D+01           0.348278D+00
            P    2   1.00
                  0.109447D+02          -0.196768D-01
                  0.104413D+01           0.500000D+00
            P    1   1.00
                  0.376184D+00           1.0000000
            P    1   1.00
                  0.120613D+00           1.0000000
            D    1   1.00
                  0.231000D+01           1.0000000
            D    1   1.00
                  0.520000D+00           1.0000000
            F    1   1.00
                  0.720000D+00           1.0000000
            ****
            -Ar     0
            S    8   1.00
                  0.175137D+06           0.219259D-03
                  0.262511D+05           0.170097D-02
                  0.597452D+04           0.886404D-02
                  0.169157D+04           0.362630D-01
                  0.551142D+03           0.119964D+00
                  0.198307D+03           0.301800D+00
                  0.763750D+02           0.500000D+00
                  0.302538D+02           0.365614D+00
            S    3   1.00
                  0.148283D+03          -0.568620D-01
                  0.451591D+02          -0.249693D+00
                  0.910015D+01           0.500000D+00
            S    2   1.00
                  0.499086D+01           0.500000D+00
                  0.229346D+01           0.369638D+00
            S    1   1.00
                  0.628631D+00           1.0000000
            S    1   1.00
                  0.218001D+00           1.0000000
            P    7   1.00
                  0.145363D+04           0.938521D-03
                  0.344725D+03           0.790992D-02
                  0.110728D+03           0.413060D-01
                  0.413308D+02           0.143629D+00
                  0.169589D+02           0.338309D+00
                  0.721074D+01           0.500000D+00
                  0.307788D+01           0.349376D+00
            P    2   1.00
                  0.127445D+02          -0.204792D-01
                  0.126589D+01           0.500000D+00
            P    1   1.00
                  0.457325D+00           1.0000000
            P    1   1.00
                  0.146322D+00           1.0000000
            D    1   1.00
                  0.252000D+01           1.0000000
            D    1   1.00
                  0.570000D+00           1.0000000
            F    1   1.00
                  0.780000D+00           1.0000000
            ****
            -K     0
            S    10   1.00
                  0.644867D+06           0.581413D-04
                  0.966213D+05           0.451700D-03
                  0.219928D+05           0.236957D-02
                  0.622966D+04           0.992121D-02
                  0.203222D+04           0.351840D-01
                  0.733520D+03           0.106509D+00
                  0.286219D+03           0.262413D+00
                  0.116889D+03           0.488396D+00
                  0.494284D+02           0.500000D+00
                  0.213657D+02           0.174582D+00
            S    4   1.00
                  0.178609D+03          -0.202773D-01
                  0.538372D+02          -0.989686D-01
                  0.787012D+01           0.500000D+00
                  0.312173D+01           0.501996D+00
            S    2   1.00
                  0.476697D+01          -0.140008D+00
                  0.707985D+00           0.500000D+00
            S    1   1.00
                  0.278690D+00           1.0000000
            S    1   1.00
                  0.473858D-01           1.0000000
            S    1   1.00
                  0.187717D-01           1.0000000
            P    8   1.00
                  0.216505D+04           0.667716D-03
                  0.512883D+03           0.574192D-02
                  0.164970D+03           0.307875D-01
                  0.626593D+02           0.111673D+00
                  0.260790D+02           0.294532D+00
                  0.113621D+02           0.507640D+00
                  0.510959D+01           0.500000D+00
                  0.224049D+01           0.197319D+00
            P    4   1.00
                  0.135242D+02          -0.150961D-01
                  0.176313D+01           0.239761D+00
                  0.799503D+00           0.500000D+00
                  0.349973D+00           0.449647D+00
            P    1   1.00
                  0.143463D+00           1.0000000
            P    1   1.00
                  0.404000D-01           1.0000000
            D    3   1.00
                  0.103178D+02           0.547646D-01
                  0.268886D+01           0.236314D+00
                  0.829610D+00           0.500000D+00
            D    1   1.00
                  0.238395D+00           1.0000000
            D    1   1.00
                  0.622820D-01           1.0000000
            ****
            -Ca     0
            S    10   1.00
                  0.720395D+06           0.575164D-04
                  0.107938D+06           0.446824D-03
                  0.245703D+05           0.234380D-02
                  0.696031D+04           0.981319D-02
                  0.227077D+04           0.348089D-01
                  0.819657D+03           0.105484D+00
                  0.319823D+03           0.260558D+00
                  0.130583D+03           0.486476D+00
                  0.553052D+02           0.500000D+00
                  0.239765D+02           0.177349D+00
            S    4   1.00
                  0.197312D+03          -0.208439D-01
                  0.596728D+02          -0.100875D+00
                  0.890338D+01           0.500000D+00
                  0.358443D+01           0.508309D+00
            S    2   1.00
                  0.544530D+01          -0.144098D+00
                  0.846321D+00           0.500000D+00
            S    1   1.00
                  0.354132D+00           1.0000000
            S    1   1.00
                  0.779382D-01           1.0000000
            S    1   1.00
                  0.300109D-01           1.0000000
            P    8   1.00
                  0.250573D+04           0.624240D-03
                  0.593538D+03           0.538210D-02
                  0.191110D+03           0.289490D-01
                  0.727089D+02           0.106090D+00
                  0.303004D+02           0.283963D+00
                  0.132416D+02           0.497946D+00
                  0.598823D+01           0.500000D+00
                  0.264558D+01           0.202389D+00
            P    4   1.00
                  0.153883D+02          -0.164739D-01
                  0.208144D+01           0.247930D+00
                  0.978121D+00           0.500000D+00
                  0.448888D+00           0.442743D+00
            P    1   1.00
                  0.192527D+00           1.0000000
            P    1   1.00
                  0.541000D-01           1.0000000
            D    3   1.00
                  0.132089D+02           0.502008D-01
                  0.350108D+01           0.226143D+00
                  0.110007D+01           0.500000D+00
            D    1   1.00
                  0.327669D+00           1.0000000
            D    1   1.00
                  0.878047D-01           1.0000000
            ****
            -Sc     0
            S    10   1.00
                  0.799406D+06           0.570135D-04
                  0.119776D+06           0.442929D-03
                  0.272655D+05           0.232333D-02
                  0.772387D+04           0.972857D-02
                  0.251967D+04           0.345244D-01
                  0.909366D+03           0.104727D+00
                  0.354780D+03           0.259193D+00
                  0.144828D+03           0.485144D+00
                  0.613865D+02           0.500000D+00
                  0.266622D+02           0.178628D+00
            S    4   1.00
                  0.217851D+03          -0.210965D-01
                  0.660220D+02          -0.101874D+00
                  0.996657D+01           0.500000D+00
                  0.405209D+01           0.506081D+00
            S    2   1.00
                  0.621156D+01          -0.147507D+00
                  0.980079D+00           0.500000D+00
            S    1   1.00
                  0.410850D+00           1.0000000
            S    1   1.00
                  0.913215D-01           1.0000000
            S    1   1.00
                  0.340733D-01           1.0000000
            P    8   1.00
                  0.284819D+04           0.599355D-03
                  0.674674D+03           0.517641D-02
                  0.217413D+03           0.279064D-01
                  0.828002D+02           0.103074D+00
                  0.345384D+02           0.278674D+00
                  0.151256D+02           0.494120D+00
                  0.686359D+01           0.500000D+00
                  0.304644D+01           0.202762D+00
            P    4   1.00
                  0.174124D+02          -0.171062D-01
                  0.240994D+01           0.253298D+00
                  0.113463D+01           0.500000D+00
                  0.523074D+00           0.431211D+00
            P    1   1.00
                  0.225879D+00           1.0000000
            P    1   1.00
                  0.640000D-01           1.0000000
            D    6   1.00
                  0.765007D+02           0.296453D-02
                  0.226497D+02           0.215006D-01
                  0.830279D+01           0.888353D-01
                  0.322503D+01           0.242312D+00
                  0.133688D+01           0.415304D+00
                  0.541237D+00           0.500000D+00
            D    1   1.00
                  0.204900D+00           1.0000000
            D    1   1.00
                  0.696367D-01           1.0000000
            F    1   1.00
                  0.220600D+01           1.0000000
            F    1   1.00
                  0.490000D+00           1.0000000
            G    1   1.00
                  0.111800D+01           1.0000000
            ****
            -Ti     0
            S    10   1.00
                  0.881322D+06           0.566841D-04
                  0.132045D+06           0.440379D-03
                  0.300580D+05           0.231008D-02
                  0.851451D+04           0.967443D-02
                  0.277754D+04           0.343380D-01
                  0.100247D+04           0.104214D+00
                  0.391166D+03           0.258207D+00
                  0.159704D+03           0.484155D+00
                  0.677547D+02           0.500000D+00
                  0.294822D+02           0.179676D+00
            S    4   1.00
                  0.239523D+03          -0.213026D-01
                  0.727201D+02          -0.102735D+00
                  0.110898D+02           0.500000D+00
                  0.454569D+01           0.503860D+00
            S    2   1.00
                  0.702224D+01          -0.149836D+00
                  0.112078D+01           0.500000D+00
            S    1   1.00
                  0.470298D+00           1.0000000
            S    1   1.00
                  0.103568D+00           1.0000000
            S    1   1.00
                  0.379615D-01           1.0000000
            P    8   1.00
                  0.320389D+04           0.581565D-03
                  0.758987D+03           0.502920D-02
                  0.244740D+03           0.271691D-01
                  0.932732D+02           0.101003D+00
                  0.389438D+02           0.275151D+00
                  0.170882D+02           0.491986D+00
                  0.777728D+01           0.500000D+00
                  0.346621D+01           0.202514D+00
            P    4   1.00
                  0.195703D+02          -0.175817D-01
                  0.275468D+01           0.258395D+00
                  0.129439D+01           0.500000D+00
                  0.597849D+00           0.420555D+00
            P    1   1.00
                  0.259198D+00           1.0000000
            P    1   1.00
                  0.740000D-01           1.0000000
            D    6   1.00
                  0.870556D+02           0.317276D-02
                  0.257984D+02           0.232651D-01
                  0.952023D+01           0.955475D-01
                  0.373742D+01           0.259226D+00
                  0.155867D+01           0.434112D+00
                  0.635491D+00           0.500000D+00
            D    1   1.00
                  0.245564D+00           1.0000000
            D    1   1.00
                  0.858965D-01           1.0000000
            F    1   1.00
                  0.242600D+01           1.0000000
            F    1   1.00
                  0.539000D+00           1.0000000
            G    1   1.00
                  0.122900D+01           1.0000000
            ****
            -V     0
            S    10   1.00
                  0.967841D+06           0.563248D-04
                  0.145004D+06           0.437598D-03
                  0.330081D+05           0.229549D-02
                  0.935001D+04           0.961437D-02
                  0.304997D+04           0.341333D-01
                  0.110075D+04           0.103661D+00
                  0.429510D+03           0.257185D+00
                  0.175347D+03           0.483177D+00
                  0.744357D+02           0.500000D+00
                  0.324359D+02           0.180468D+00
            S    4   1.00
                  0.262409D+03          -0.214508D-01
                  0.797883D+02          -0.103421D+00
                  0.122687D+02           0.500000D+00
                  0.506274D+01           0.500969D+00
            S    2   1.00
                  0.788269D+01          -0.151938D+00
                  0.126725D+01           0.500000D+00
            S    1   1.00
                  0.529910D+00           1.0000000
            S    1   1.00
                  0.114975D+00           1.0000000
            S    1   1.00
                  0.412561D-01           1.0000000
            P    8   1.00
                  0.358102D+04           0.565757D-03
                  0.848292D+03           0.489889D-02
                  0.273688D+03           0.265140D-01
                  0.104363D+03           0.991575D-01
                  0.436075D+02           0.271987D+00
                  0.191676D+02           0.489957D+00
                  0.874351D+01           0.500000D+00
                  0.390871D+01           0.202051D+00
            P    4   1.00
                  0.218289D+02          -0.180360D-01
                  0.312794D+01           0.261197D+00
                  0.146827D+01           0.500000D+00
                  0.677511D+00           0.416808D+00
            P    1   1.00
                  0.293525D+00           1.0000000
            P    1   1.00
                  0.840000D-01           1.0000000
            D    6   1.00
                  0.101232D+03           0.312157D-02
                  0.300289D+02           0.233383D-01
                  0.111079D+02           0.973155D-01
                  0.439511D+01           0.263664D+00
                  0.184617D+01           0.439787D+00
                  0.757898D+00           0.500000D+00
            D    1   1.00
                  0.294371D+00           1.0000000
            D    1   1.00
                  0.102984D+00           1.0000000
            F    1   1.00
                  0.266900D+01           1.0000000
            F    1   1.00
                  0.593000D+00           1.0000000
            G    1   1.00
                  0.135200D+01           1.0000000
            ****
            -Cr     0
            S    10   1.00
                  0.105726D+07           0.560980D-04
                  0.158400D+06           0.435853D-03
                  0.360545D+05           0.228671D-02
                  0.102120D+05           0.957928D-02
                  0.333073D+04           0.340199D-01
                  0.120199D+04           0.103357D+00
                  0.469092D+03           0.256563D+00
                  0.191557D+03           0.482556D+00
                  0.813769D+02           0.500000D+00
                  0.355118D+02           0.180991D+00
            S    4   1.00
                  0.286443D+03          -0.215692D-01
                  0.872104D+02          -0.104016D+00
                  0.135063D+02           0.500000D+00
                  0.560535D+01           0.498145D+00
            S    2   1.00
                  0.878991D+01          -0.153695D+00
                  0.142072D+01           0.500000D+00
            S    1   1.00
                  0.591660D+00           1.0000000
            S    1   1.00
                  0.126372D+00           1.0000000
            S    1   1.00
                  0.444357D-01           1.0000000
            P    8   1.00
                  0.397317D+04           0.553435D-03
                  0.941238D+03           0.479650D-02
                  0.303848D+03           0.259971D-01
                  0.115929D+03           0.977018D-01
                  0.484844D+02           0.269444D+00
                  0.213499D+02           0.488296D+00
                  0.975953D+01           0.500000D+00
                  0.437471D+01           0.201543D+00
            P    4   1.00
                  0.241931D+02          -0.184906D-01
                  0.352725D+01           0.263185D+00
                  0.165617D+01           0.500000D+00
                  0.764191D+00           0.416508D+00
            P    1   1.00
                  0.330772D+00           1.0000000
            P    1   1.00
                  0.930000D-01           1.0000000
            D    6   1.00
                  0.114289D+03           0.317328D-02
                  0.339278D+02           0.239943D-01
                  0.125902D+02           0.100415D+00
                  0.501718D+01           0.270478D+00
                  0.211639D+01           0.446297D+00
                  0.871255D+00           0.500000D+00
            D    1   1.00
                  0.338209D+00           1.0000000
            D    1   1.00
                  0.117487D+00           1.0000000
            F    1   1.00
                  0.293600D+01           1.0000000
            F    1   1.00
                  0.652000D+00           1.0000000
            G    1   1.00
                  0.148800D+01           1.0000000
            ****
            -Mn     0
            S    10   1.00
                  0.115018D+07           0.559207D-04
                  0.172325D+06           0.434470D-03
                  0.392240D+05           0.227946D-02
                  0.111098D+05           0.954893D-02
                  0.362369D+04           0.339148D-01
                  0.130769D+04           0.103091D+00
                  0.510307D+03           0.256150D+00
                  0.208359D+03           0.482375D+00
                  0.885419D+02           0.500000D+00
                  0.386850D+02           0.180982D+00
            S    4   1.00
                  0.311658D+03          -0.216548D-01
                  0.949940D+02          -0.104503D+00
                  0.148006D+02           0.500000D+00
                  0.617225D+01           0.495149D+00
            S    2   1.00
                  0.974433D+01          -0.155007D+00
                  0.158024D+01           0.500000D+00
            S    1   1.00
                  0.654789D+00           1.0000000
            S    1   1.00
                  0.136937D+00           1.0000000
            S    1   1.00
                  0.473109D-01           1.0000000
            P    8   1.00
                  0.439140D+04           0.541101D-03
                  0.104032D+04           0.469413D-02
                  0.335950D+03           0.254887D-01
                  0.128203D+03           0.962905D-01
                  0.536454D+02           0.267003D+00
                  0.236580D+02           0.486571D+00
                  0.108336D+02           0.500000D+00
                  0.486679D+01           0.201168D+00
            P    4   1.00
                  0.266735D+02          -0.189516D-01
                  0.395275D+01           0.264587D+00
                  0.185875D+01           0.500000D+00
                  0.858583D+00           0.419292D+00
            P    1   1.00
                  0.371174D+00           1.0000000
            P    1   1.00
                  0.104000D+00           1.0000000
            D    6   1.00
                  0.128837D+03           0.317729D-02
                  0.382797D+02           0.242919D-01
                  0.142498D+02           0.102147D+00
                  0.571587D+01           0.274670D+00
                  0.242249D+01           0.450782D+00
                  0.100149D+01           0.500000D+00
            D    1   1.00
                  0.390690D+00           1.0000000
            D    1   1.00
                  0.136262D+00           1.0000000
            F    1   1.00
                  0.323000D+01           1.0000000
            F    1   1.00
                  0.718000D+00           1.0000000
            G    1   1.00
                  0.163600D+01           1.0000000
            ****
            -Fe     0
            S    10   1.00
                  0.124866D+07           0.556470D-04
                  0.187039D+06           0.432457D-03
                  0.425683D+05           0.226917D-02
                  0.120562D+05           0.950693D-02
                  0.393233D+04           0.337679D-01
                  0.141914D+04           0.102683D+00
                  0.553832D+03           0.255373D+00
                  0.226129D+03           0.481641D+00
                  0.961317D+02           0.500000D+00
                  0.420443D+02           0.181434D+00
            S    4   1.00
                  0.337941D+03          -0.217335D-01
                  0.103114D+03          -0.104953D+00
                  0.161551D+02           0.500000D+00
                  0.676652D+01           0.492509D+00
            S    2   1.00
                  0.107404D+02          -0.156319D+00
                  0.174932D+01           0.500000D+00
            S    1   1.00
                  0.723737D+00           1.0000000
            S    1   1.00
                  0.147147D+00           1.0000000
            S    1   1.00
                  0.503270D-01           1.0000000
            P    8   1.00
                  0.483551D+04           0.528807D-03
                  0.114553D+04           0.459172D-02
                  0.370070D+03           0.249702D-01
                  0.141266D+03           0.947891D-01
                  0.591370D+02           0.264344D+00
                  0.261088D+02           0.484617D+00
                  0.119731D+02           0.500000D+00
                  0.538806D+01           0.201124D+00
            P    4   1.00
                  0.293038D+02          -0.192403D-01
                  0.439039D+01           0.266421D+00
                  0.206040D+01           0.500000D+00
                  0.952685D+00           0.415150D+00
            P    1   1.00
                  0.412454D+00           1.0000000
            P    1   1.00
                  0.115000D+00           1.0000000
            D    6   1.00
                  0.138418D+03           0.345330D-02
                  0.411431D+02           0.263915D-01
                  0.153511D+02           0.109884D+00
                  0.618032D+01           0.290275D+00
                  0.261339D+01           0.463287D+00
                  0.107371D+01           0.500000D+00
            D    1   1.00
                  0.413063D+00           1.0000000
            D    1   1.00
                  0.140918D+00           1.0000000
            F    1   1.00
                  0.355300D+01           1.0000000
            F    1   1.00
                  0.789000D+00           1.0000000
            G    1   1.00
                  0.180000D+01           1.0000000
            ****
            -Co     0
            S    10   1.00
                  0.135034D+07           0.554029D-04
                  0.202328D+06           0.430403D-03
                  0.460566D+05           0.225792D-02
                  0.130467D+05           0.945738D-02
                  0.425628D+04           0.335887D-01
                  0.153630D+04           0.102168D+00
                  0.599631D+03           0.254357D+00
                  0.244815D+03           0.480628D+00
                  0.104104D+03           0.500000D+00
                  0.455673D+02           0.182026D+00
            S    4   1.00
                  0.365374D+03          -0.217931D-01
                  0.111588D+03          -0.105338D+00
                  0.175673D+02           0.500000D+00
                  0.738565D+01           0.489865D+00
            S    2   1.00
                  0.117836D+02          -0.157480D+00
                  0.192539D+01           0.500000D+00
            S    1   1.00
                  0.794368D+00           1.0000000
            S    1   1.00
                  0.156782D+00           1.0000000
            S    1   1.00
                  0.529934D-01           1.0000000
            P    8   1.00
                  0.527281D+04           0.524213D-03
                  0.124910D+04           0.455457D-02
                  0.403649D+03           0.247960D-01
                  0.154114D+03           0.944291D-01
                  0.645609D+02           0.264055D+00
                  0.285430D+02           0.485191D+00
                  0.131137D+02           0.500000D+00
                  0.591573D+01           0.200096D+00
            P    4   1.00
                  0.320557D+02          -0.194450D-01
                  0.484854D+01           0.267567D+00
                  0.226800D+01           0.500000D+00
                  0.104658D+01           0.411051D+00
            P    1   1.00
                  0.452824D+00           1.0000000
            P    1   1.00
                  0.127000D+00           1.0000000
            D    6   1.00
                  0.153053D+03           0.349174D-02
                  0.455196D+02           0.269024D-01
                  0.170055D+02           0.112613D+00
                  0.687149D+01           0.295757D+00
                  0.291149D+01           0.467814D+00
                  0.119738D+01           0.500000D+00
            D    1   1.00
                  0.460362D+00           1.0000000
            D    1   1.00
                  0.156851D+00           1.0000000
            F    1   1.00
                  0.390800D+01           1.0000000
            F    1   1.00
                  0.868000D+00           1.0000000
            G    1   1.00
                  0.198000D+01           1.0000000
            ****
            -Ni     0
            S    10   1.00
                  0.146257D+07           0.548342D-04
                  0.219107D+06           0.426081D-03
                  0.498724D+05           0.223546D-02
                  0.141259D+05           0.936615D-02
                  0.460735D+04           0.332852D-01
                  0.166244D+04           0.101365D+00
                  0.648606D+03           0.252855D+00
                  0.264689D+03           0.479041D+00
                  0.112561D+03           0.500000D+00
                  0.492916D+02           0.183007D+00
            S    4   1.00
                  0.393899D+03          -0.218494D-01
                  0.120405D+03          -0.105702D+00
                  0.190399D+02           0.500000D+00
                  0.803151D+01           0.487556D+00
            S    2   1.00
                  0.128736D+02          -0.158461D+00
                  0.210873D+01           0.500000D+00
            S    1   1.00
                  0.867388D+00           1.0000000
            S    1   1.00
                  0.166834D+00           1.0000000
            S    1   1.00
                  0.557165D-01           1.0000000
            P    8   1.00
                  0.574804D+04           0.515949D-03
                  0.136168D+04           0.448607D-02
                  0.440134D+03           0.244558D-01
                  0.168074D+03           0.934792D-01
                  0.704369D+02           0.262488D+00
                  0.311704D+02           0.484289D+00
                  0.143366D+02           0.500000D+00
                  0.647618D+01           0.199575D+00
            P    4   1.00
                  0.349196D+02          -0.196357D-01
                  0.533044D+01           0.268238D+00
                  0.248674D+01           0.500000D+00
                  0.114423D+01           0.408392D+00
            P    1   1.00
                  0.494088D+00           1.0000000
            P    1   1.00
                  0.139000D+00           1.0000000
            D    6   1.00
                  0.167506D+03           0.355811D-02
                  0.498486D+02           0.275655D-01
                  0.186562D+02           0.115521D+00
                  0.756638D+01           0.301390D+00
                  0.321070D+01           0.472193D+00
                  0.132072D+01           0.500000D+00
            D    1   1.00
                  0.506898D+00           1.0000000
            D    1   1.00
                  0.171943D+00           1.0000000
            F    1   1.00
                  0.429900D+01           1.0000000
            F    1   1.00
                  0.955000D+00           1.0000000
            G    1   1.00
                  0.217800D+01           1.0000000
            ****
            -Cu     0
            S    10   1.00
                  0.157060D+07           0.547769D-04
                  0.235279D+06           0.425676D-03
                  0.535493D+05           0.223357D-02
                  0.151669D+05           0.935835D-02
                  0.494699D+04           0.332567D-01
                  0.178518D+04           0.101280D+00
                  0.696614D+03           0.252698D+00
                  0.284321D+03           0.479028D+00
                  0.120953D+03           0.500000D+00
                  0.530174D+02           0.182890D+00
            S    4   1.00
                  0.423595D+03          -0.218890D-01
                  0.129580D+03          -0.106016D+00
                  0.205697D+02           0.500000D+00
                  0.870273D+01           0.485265D+00
            S    2   1.00
                  0.140108D+02          -0.159251D+00
                  0.229919D+01           0.500000D+00
            S    1   1.00
                  0.942808D+00           1.0000000
            S    1   1.00
                  0.177390D+00           1.0000000
            S    1   1.00
                  0.585297D-01           1.0000000
            P    8   1.00
                  0.623502D+04           0.509979D-03
                  0.147707D+04           0.443656D-02
                  0.477562D+03           0.242106D-01
                  0.182396D+03           0.928335D-01
                  0.764757D+02           0.261491D+00
                  0.338786D+02           0.483870D+00
                  0.156002D+02           0.500000D+00
                  0.705689D+01           0.198917D+00
            P    4   1.00
                  0.379007D+02          -0.198123D-01
                  0.583427D+01           0.268826D+00
                  0.271517D+01           0.500000D+00
                  0.124587D+01           0.406308D+00
            P    1   1.00
                  0.536810D+00           1.0000000
            P    1   1.00
                  0.151000D+00           1.0000000
            D    6   1.00
                  0.182163D+03           0.363157D-02
                  0.542407D+02           0.282563D-01
                  0.203359D+02           0.118381D+00
                  0.827487D+01           0.306851D+00
                  0.351445D+01           0.476323D+00
                  0.144484D+01           0.500000D+00
            D    1   1.00
                  0.553001D+00           1.0000000
            D    1   1.00
                  0.186360D+00           1.0000000
            F    1   1.00
                  0.472900D+01           1.0000000
            F    1   1.00
                  0.105100D+01           1.0000000
            G    1   1.00
                  0.239600D+01           1.0000000
            ****
            -Zn     0
            S    10   1.00
                  0.167955D+07           0.548640D-04
                  0.251608D+06           0.426330D-03
                  0.572671D+05           0.223692D-02
                  0.162205D+05           0.937168D-02
                  0.529132D+04           0.332949D-01
                  0.190992D+04           0.101364D+00
                  0.745576D+03           0.252816D+00
                  0.304424D+03           0.479280D+00
                  0.129568D+03           0.500000D+00
                  0.568519D+02           0.182608D+00
            S    4   1.00
                  0.454432D+03          -0.219166D-01
                  0.139109D+03          -0.106281D+00
                  0.221566D+02           0.500000D+00
                  0.939858D+01           0.482945D+00
            S    2   1.00
                  0.151959D+02          -0.159820D+00
                  0.249568D+01           0.500000D+00
            S    1   1.00
                  0.101945D+01           1.0000000
            S    1   1.00
                  0.187503D+00           1.0000000
            S    1   1.00
                  0.611397D-01           1.0000000
            P    8   1.00
                  0.674485D+04           0.503986D-03
                  0.159782D+04           0.438698D-02
                  0.516693D+03           0.239676D-01
                  0.197359D+03           0.921783D-01
                  0.827869D+02           0.260399D+00
                  0.367118D+02           0.483241D+00
                  0.169220D+02           0.500000D+00
                  0.766344D+01           0.198387D+00
            P    4   1.00
                  0.410050D+02          -0.199873D-01
                  0.636232D+01           0.269132D+00
                  0.295533D+01           0.500000D+00
                  0.135262D+01           0.405461D+00
            P    1   1.00
                  0.581420D+00           1.0000000
            P    1   1.00
                  0.164000D+00           1.0000000
            D    6   1.00
                  0.197700D+03           0.368771D-02
                  0.588986D+02           0.288172D-01
                  0.221214D+02           0.120697D+00
                  0.903018D+01           0.311339D+00
                  0.383994D+01           0.479743D+00
                  0.157921D+01           0.500000D+00
            D    1   1.00
                  0.604323D+00           1.0000000
            D    1   1.00
                  0.203408D+00           1.0000000
            F    1   1.00
                  0.520100D+01           1.0000000
            F    1   1.00
                  0.115600D+01           1.0000000
            G    1   1.00
                  0.263500D+01           1.0000000
            ****
            -Ga     0
            S    10   1.00
                  0.180377D+07           0.544142D-04
                  0.270222D+06           0.422822D-03
                  0.615028D+05           0.221869D-02
                  0.174191D+05           0.929709D-02
                  0.568152D+04           0.330454D-01
                  0.205030D+04           0.100693D+00
                  0.800183D+03           0.251553D+00
                  0.326609D+03           0.477928D+00
                  0.139056D+03           0.500000D+00
                  0.610653D+02           0.183865D+00
            S    4   1.00
                  0.485652D+03          -0.220764D-01
                  0.148805D+03          -0.106977D+00
                  0.238485D+02           0.500000D+00
                  0.101616D+02           0.484896D+00
            S    2   1.00
                  0.163918D+02          -0.161716D+00
                  0.272042D+01           0.500000D+00
            S    1   1.00
                  0.113882D+01           1.0000000
            S    1   1.00
                  0.240293D+00           1.0000000
            S    1   1.00
                  0.825337D-01           1.0000000
            P    8   1.00
                  0.712868D+04           0.522814D-03
                  0.168885D+04           0.454957D-02
                  0.546151D+03           0.248554D-01
                  0.208567D+03           0.954974D-01
                  0.875498D+02           0.268536D+00
                  0.388278D+02           0.494667D+00
                  0.179241D+02           0.500000D+00
                  0.814015D+01           0.192455D+00
            P    4   1.00
                  0.448681D+02          -0.179633D-01
                  0.667977D+01           0.270281D+00
                  0.291189D+01           0.500000D+00
                  0.122447D+01           0.332005D+00
            P    1   1.00
                  0.429221D+00           1.0000000
            P    1   1.00
                  0.143750D+00           1.0000000
            P    1   1.00
                  0.438304D-01           1.0000000
            D    7   1.00
                  0.239609D+03           0.299033D-02
                  0.714194D+02           0.241649D-01
                  0.268244D+02           0.106267D+00
                  0.110349D+02           0.284225D+00
                  0.477843D+01           0.462233D+00
                  0.202079D+01           0.500000D+00
                  0.807299D+00           0.370507D+00
            D    1   1.00
                  0.290639D+00           1.0000000
            D    1   1.00
                  0.108000D+00           1.0000000
            F    1   1.00
                  0.360000D+00           1.0000000
            ****
            -Ge     0
            S    10   1.00
                  0.192479D+07           0.543249D-04
                  0.288379D+06           0.422068D-03
                  0.656421D+05           0.221441D-02
                  0.185937D+05           0.927777D-02
                  0.606534D+04           0.329741D-01
                  0.218913D+04           0.100485D+00
                  0.854481D+03           0.251168D+00
                  0.348782D+03           0.477622D+00
                  0.148576D+03           0.500000D+00
                  0.653223D+02           0.184433D+00
            S    4   1.00
                  0.517931D+03          -0.222239D-01
                  0.158832D+03          -0.107627D+00
                  0.256016D+02           0.500000D+00
                  0.109544D+02           0.486731D+00
            S    2   1.00
                  0.176323D+02          -0.162908D+00
                  0.295358D+01           0.500000D+00
            S    1   1.00
                  0.126565D+01           1.0000000
            S    1   1.00
                  0.296512D+00           1.0000000
            S    1   1.00
                  0.104203D+00           1.0000000
            P    8   1.00
                  0.770372D+04           0.512085D-03
                  0.182490D+04           0.446003D-02
                  0.590190D+03           0.244031D-01
                  0.225385D+03           0.941157D-01
                  0.946204D+02           0.265870D+00
                  0.419930D+02           0.491995D+00
                  0.194086D+02           0.500000D+00
                  0.882544D+01           0.193579D+00
            P    4   1.00
                  0.482340D+02          -0.181087D-01
                  0.724673D+01           0.269211D+00
                  0.316909D+01           0.500000D+00
                  0.134377D+01           0.324990D+00
            P    1   1.00
                  0.462196D+00           1.0000000
            P    1   1.00
                  0.168692D+00           1.0000000
            P    1   1.00
                  0.561531D-01           1.0000000
            D    7   1.00
                  0.279765D+03           0.259701D-02
                  0.834083D+02           0.214712D-01
                  0.313685D+02           0.972488D-01
                  0.130112D+02           0.265967D+00
                  0.571117D+01           0.449634D+00
                  0.246465D+01           0.500000D+00
                  0.101479D+01           0.365636D+00
            D    1   1.00
                  0.381497D+00           1.0000000
            D    1   1.00
                  0.141000D+00           1.0000000
            F    1   1.00
                  0.400000D+00           1.0000000
            ****
            -As     0
            S    10   1.00
                  0.205537D+07           0.540253D-04
                  0.307926D+06           0.419788D-03
                  0.700895D+05           0.220252D-02
                  0.198519D+05           0.923006D-02
                  0.647476D+04           0.328171D-01
                  0.233646D+04           0.100072D+00
                  0.911858D+03           0.250384D+00
                  0.372169D+03           0.476745D+00
                  0.158615D+03           0.500000D+00
                  0.697992D+02           0.185402D+00
            S    4   1.00
                  0.551210D+03          -0.223679D-01
                  0.169177D+03          -0.108256D+00
                  0.274187D+02           0.500000D+00
                  0.117781D+02           0.488621D+00
            S    2   1.00
                  0.189175D+02          -0.163524D+00
                  0.319589D+01           0.500000D+00
            S    1   1.00
                  0.139887D+01           1.0000000
            S    1   1.00
                  0.355929D+00           1.0000000
            S    1   1.00
                  0.126310D+00           1.0000000
            P    8   1.00
                  0.832398D+04           0.498804D-03
                  0.197182D+04           0.434758D-02
                  0.637888D+03           0.238145D-01
                  0.243661D+03           0.921917D-01
                  0.102323D+03           0.261788D+00
                  0.454593D+02           0.487224D+00
                  0.210416D+02           0.500000D+00
                  0.958039D+01           0.196006D+00
            P    4   1.00
                  0.516292D+02          -0.184035D-01
                  0.786734D+01           0.267341D+00
                  0.347359D+01           0.500000D+00
                  0.149747D+01           0.323502D+00
            P    1   1.00
                  0.530912D+00           1.0000000
            P    1   1.00
                  0.202185D+00           1.0000000
            P    1   1.00
                  0.700296D-01           1.0000000
            D    7   1.00
                  0.325688D+03           0.225051D-02
                  0.971148D+02           0.190010D-01
                  0.365964D+02           0.883065D-01
                  0.153229D+02           0.246702D+00
                  0.681442D+01           0.434687D+00
                  0.299648D+01           0.500000D+00
                  0.126665D+01           0.368205D+00
            D    1   1.00
                  0.492253D+00           1.0000000
            D    1   1.00
                  0.168000D+00           1.0000000
            F    1   1.00
                  0.440000D+00           1.0000000
            ****
            -Se     0
            S    10   1.00
                  0.218776D+07           0.538090D-04
                  0.327767D+06           0.418068D-03
                  0.746093D+05           0.219340D-02
                  0.211337D+05           0.919068D-02
                  0.689401D+04           0.326703D-01
                  0.248852D+04           0.996050D-01
                  0.971570D+03           0.249373D+00
                  0.396576D+03           0.475616D+00
                  0.169096D+03           0.500000D+00
                  0.744719D+02           0.186553D+00
            S    4   1.00
                  0.585490D+03          -0.225128D-01
                  0.179839D+03          -0.108887D+00
                  0.293027D+02           0.500000D+00
                  0.126365D+02           0.490730D+00
            S    2   1.00
                  0.202416D+02          -0.164470D+00
                  0.345425D+01           0.500000D+00
            S    1   1.00
                  0.154391D+01           1.0000000
            S    1   1.00
                  0.420486D+00           1.0000000
            S    1   1.00
                  0.150492D+00           1.0000000
            P    8   1.00
                  0.894031D+04           0.490134D-03
                  0.211813D+04           0.427269D-02
                  0.685440D+03           0.234241D-01
                  0.261906D+03           0.909124D-01
                  0.110066D+03           0.258938D+00
                  0.489739D+02           0.483639D+00
                  0.227145D+02           0.500000D+00
                  0.103630D+02           0.198184D+00
            P    4   1.00
                  0.551463D+02          -0.186851D-01
                  0.851433D+01           0.265642D+00
                  0.379585D+01           0.500000D+00
                  0.166298D+01           0.321211D+00
            P    1   1.00
                  0.616266D+00           1.0000000
            P    1   1.00
                  0.234323D+00           1.0000000
            P    1   1.00
                  0.801968D-01           1.0000000
            D    7   1.00
                  0.359017D+03           0.216572D-02
                  0.107122D+03           0.184240D-01
                  0.404500D+02           0.863477D-01
                  0.170105D+02           0.243244D+00
                  0.760194D+01           0.433404D+00
                  0.337047D+01           0.500000D+00
                  0.144400D+01           0.355242D+00
            D    1   1.00
                  0.573734D+00           1.0000000
            D    1   1.00
                  0.214000D+00           1.0000000
            F    1   1.00
                  0.480000D+00           1.0000000
            ****
            -Br     0
            S    10   1.00
                  0.233625D+07           0.532336D-04
                  0.349961D+06           0.413715D-03
                  0.796444D+05           0.217123D-02
                  0.225555D+05           0.910109D-02
                  0.735546D+04           0.323789D-01
                  0.265352D+04           0.988755D-01
                  0.103517D+04           0.248138D+00
                  0.422205D+03           0.474328D+00
                  0.180035D+03           0.500000D+00
                  0.793308D+02           0.187769D+00
            S    4   1.00
                  0.620834D+03          -0.226511D-01
                  0.190829D+03          -0.109497D+00
                  0.312505D+02           0.500000D+00
                  0.135270D+02           0.492812D+00
            S    2   1.00
                  0.216097D+02          -0.165418D+00
                  0.372566D+01           0.500000D+00
            S    1   1.00
                  0.169770D+01           1.0000000
            S    1   1.00
                  0.489332D+00           1.0000000
            S    1   1.00
                  0.175712D+00           1.0000000
            P    8   1.00
                  0.960829D+04           0.478974D-03
                  0.227618D+04           0.417853D-02
                  0.736723D+03           0.229315D-01
                  0.281579D+03           0.892653D-01
                  0.118395D+03           0.255288D+00
                  0.527481D+02           0.479074D+00
                  0.245098D+02           0.500000D+00
                  0.112009D+02           0.200944D+00
            P    4   1.00
                  0.587849D+02          -0.189674D-01
                  0.918962D+01           0.264104D+00
                  0.413895D+01           0.500000D+00
                  0.184225D+01           0.319316D+00
            P    1   1.00
                  0.713862D+00           1.0000000
            P    1   1.00
                  0.274232D+00           1.0000000
            P    1   1.00
                  0.944411D-01           1.0000000
            D    7   1.00
                  0.398470D+03           0.204066D-02
                  0.118967D+03           0.175171D-01
                  0.450197D+02           0.829708D-01
                  0.190320D+02           0.236284D+00
                  0.855686D+01           0.428468D+00
                  0.382950D+01           0.500000D+00
                  0.166291D+01           0.349360D+00
            D    1   1.00
                  0.672953D+00           1.0000000
            D    1   1.00
                  0.252000D+00           1.0000000
            F    1   1.00
                  0.530000D+00           1.0000000
            ****
            -Kr     0
            S    10   1.00
                  0.247043D+07           0.533022D-04
                  0.370086D+06           0.414210D-03
                  0.842215D+05           0.217399D-02
                  0.238528D+05           0.911103D-02
                  0.778023D+04           0.324007D-01
                  0.280777D+04           0.988948D-01
                  0.109590D+04           0.248077D+00
                  0.447201D+03           0.474231D+00
                  0.190853D+03           0.500000D+00
                  0.842031D+02           0.188353D+00
            S    4   1.00
                  0.657163D+03          -0.227918D-01
                  0.202133D+03          -0.110111D+00
                  0.332655D+02           0.500000D+00
                  0.144521D+02           0.495084D+00
            S    2   1.00
                  0.230223D+02          -0.166413D+00
                  0.401050D+01           0.500000D+00
            S    1   1.00
                  0.186066D+01           1.0000000
            S    1   1.00
                  0.562601D+00           1.0000000
            S    1   1.00
                  0.201932D+00           1.0000000
            P    8   1.00
                  0.103514D+05           0.463594D-03
                  0.245206D+04           0.404742D-02
                  0.793771D+03           0.222448D-01
                  0.303400D+03           0.869601D-01
                  0.127577D+03           0.250202D+00
                  0.568830D+02           0.472890D+00
                  0.264596D+02           0.500000D+00
                  0.121000D+02           0.204279D+00
            P    4   1.00
                  0.625655D+02          -0.192030D-01
                  0.988490D+01           0.262852D+00
                  0.449327D+01           0.500000D+00
                  0.202675D+01           0.316279D+00
            P    1   1.00
                  0.815863D+00           1.0000000
            P    1   1.00
                  0.316534D+00           1.0000000
            P    1   1.00
                  0.109885D+00           1.0000000
            D    7   1.00
                  0.456070D+03           0.179481D-02
                  0.136255D+03           0.156300D-01
                  0.517208D+02           0.753276D-01
                  0.220644D+02           0.218726D+00
                  0.100193D+02           0.412632D+00
                  0.454710D+01           0.500000D+00
                  0.201258D+01           0.361756D+00
            D    1   1.00
                  0.830961D+00           1.0000000
            D    1   1.00
                  0.308000D+00           1.0000000
            F    1   1.00
                  0.590000D+00           1.0000000
            ****
            
 Initial command:
 /opt/local/chem/gaussian/g16.b01/g16/l1.exe "/home/irikura/scratch/gau/Gau-481909.inp" -scrdir="/home/irikura/scratch/gau/"
 Entering Link 1 = /opt/local/chem/gaussian/g16.b01/g16/l1.exe PID=    481910.
  
 Copyright (c) 1988-2017, Gaussian, Inc.  All Rights Reserved.
  
 This is part of the Gaussian(R) 16 program.  It is based on
 the Gaussian(R) 09 system (copyright 2009, Gaussian, Inc.),
 the Gaussian(R) 03 system (copyright 2003, Gaussian, Inc.),
 the Gaussian(R) 98 system (copyright 1998, Gaussian, Inc.),
 the Gaussian(R) 94 system (copyright 1995, Gaussian, Inc.),
 the Gaussian 92(TM) system (copyright 1992, Gaussian, Inc.),
 the Gaussian 90(TM) system (copyright 1990, Gaussian, Inc.),
 the Gaussian 88(TM) system (copyright 1988, Gaussian, Inc.),
 the Gaussian 86(TM) system (copyright 1986, Carnegie Mellon
 University), and the Gaussian 82(TM) system (copyright 1983,
 Carnegie Mellon University). Gaussian is a federally registered
 trademark of Gaussian, Inc.
  
 This software contains proprietary and confidential information,
 including trade secrets, belonging to Gaussian, Inc.
  
 This software is provided under written license and may be
 used, copied, transmitted, or stored only in accord with that
 written license.
  
 The following legend is applicable only to US Government
 contracts under FAR:
  
                    RESTRICTED RIGHTS LEGEND
  
 Use, reproduction and disclosure by the US Government is
 subject to restrictions as set forth in subparagraphs (a)
 and (c) of the Commercial Computer Software - Restricted
 Rights clause in FAR 52.227-19.
  
 Gaussian, Inc.
 340 Quinnipiac St., Bldg. 40, Wallingford CT 06492
  
  
 ---------------------------------------------------------------
 Warning -- This program may not be used in any manner that
 competes with the business of Gaussian, Inc. or will provide
 assistance to any competitor of Gaussian, Inc.  The licensee
 of this program is prohibited from giving any competitor of
 Gaussian, Inc. access to this program.  By using this program,
 the user acknowledges that Gaussian, Inc. is engaged in the
 business of creating and licensing software in the field of
 computational chemistry and represents and warrants to the
 licensee that it is not a competitor of Gaussian, Inc. and that
 it will not use this program in any manner prohibited above.
 ---------------------------------------------------------------
  

 Cite this work as:
 Gaussian 16, Revision B.01,
 M. J. Frisch, G. W. Trucks, H. B. Schlegel, G. E. Scuseria, 
 M. A. Robb, J. R. Cheeseman, G. Scalmani, V. Barone, 
 G. A. Petersson, H. Nakatsuji, X. Li, M. Caricato, A. V. Marenich, 
 J. Bloino, B. G. Janesko, R. Gomperts, B. Mennucci, H. P. Hratchian, 
 J. V. Ortiz, A. F. Izmaylov, J. L. Sonnenberg, D. Williams-Young, 
 F. Ding, F. Lipparini, F. Egidi, J. Goings, B. Peng, A. Petrone, 
 T. Henderson, D. Ranasinghe, V. G. Zakrzewski, J. Gao, N. Rega, 
 G. Zheng, W. Liang, M. Hada, M. Ehara, K. Toyota, R. Fukuda, 
 J. Hasegawa, M. Ishida, T. Nakajima, Y. Honda, O. Kitao, H. Nakai, 
 T. Vreven, K. Throssell, J. A. Montgomery, Jr., J. E. Peralta, 
 F. Ogliaro, M. J. Bearpark, J. J. Heyd, E. N. Brothers, K. N. Kudin, 
 V. N. Staroverov, T. A. Keith, R. Kobayashi, J. Normand, 
 K. Raghavachari, A. P. Rendell, J. C. Burant, S. S. Iyengar, 
 J. Tomasi, M. Cossi, J. M. Millam, M. Klene, C. Adamo, R. Cammi, 
 J. W. Ochterski, R. L. Martin, K. Morokuma, O. Farkas, 
 J. B. Foresman, and D. J. Fox, Gaussian, Inc., Wallingford CT, 2016.
 
 ******************************************
 Gaussian 16:  ES64L-G16RevB.01 20-Dec-2017
                15-Aug-2022 
 ******************************************
 %mem=500mw
 %nprocs=6
 Will use up to    6 processors via shared memory.
 --------------------
 # b3lyp/gen opt freq
 --------------------
 1/18=20,19=15,26=3,38=1/1,3;
 2/9=110,12=2,17=6,18=5,40=1/2;
 3/5=7,11=2,25=1,30=1,71=1,74=-5/1,2,3;
 4//1;
 5/5=2,38=5/2;
 6/7=2,8=2,9=2,10=2,28=1/1;
 7//1,2,3,16;
 1/18=20,19=15,26=3/3(2);
 2/9=110/2;
 99//99;
 2/9=110/2;
 3/5=7,6=1,11=2,25=1,30=1,71=1,74=-5,82=7/1,2,3;
 4/5=5,16=3,69=1/1;
 5/5=2,38=5/2;
 7//1,2,3,16;
 1/18=20,19=15,26=3/3(-5);
 2/9=110/2;
[...]
   yx        -0.627637D+01     -0.930062D+00     -0.103483D+01
   yy         0.686913D+02      0.101790D+02      0.113257D+02
   zx        -0.353714D+01     -0.524151D+00     -0.583196D+00
   zy         0.264771D+01      0.392350D+00      0.436549D+00
   zz         0.841519D+02      0.124700D+02      0.138748D+02

 ----------------------------------------------------------------------
 1\1\GINC-PN125343\Freq\RB3LYP\Gen\C6H8O3\IRIKURA\15-Aug-2022\0\\#N Geo
 m=AllCheck Guess=TCheck SCRF=Check GenChk RB3LYP/ChkBas Freq\\Cyrene, 
 B3LYP/pcseg-2\\0,1\C,1.360529829,-0.0991549927,-0.0518346178\C,0.85577
 83912,1.239207189,-0.567747432\C,-0.4425910423,1.6920746877,0.13502781
 52\C,-1.3346429038,0.5006096,0.4751752786\C,-1.6819882614,-0.384987692
 2,-0.728562836\O,-0.5890144011,-1.3150859048,-0.7913333445\C,0.2347450
 972,-1.067631966,0.3400953149\O,2.5253867103,-0.3928312067,0.043311712
 3\O,-0.58264118,-0.4204009091,1.2895065194\H,1.6527922002,1.9744285229
 ,-0.4746854285\H,0.6731606272,1.1004431593,-1.6375975488\H,-0.19634785
 87,2.199273083,1.0689556131\H,-0.9867230738,2.4059556891,-0.4866649963
 \H,-2.2091793081,0.8023556911,1.0470612303\H,-2.6091181962,-0.93723771
 54,-0.5721695921\H,-1.7454945519,0.1688233647,-1.6657191214\H,0.624265
 9226,-1.9992415998,0.7438904335\\Version=ES64L-G16RevB.01\State=1-A\HF
 =-459.2815287\RMSD=5.189e-09\RMSF=1.427e-05\ZeroPoint=0.1383964\Therma
 l=0.1453835\Dipole=-1.3444122,1.0140812,-0.289303\DipoleDeriv=1.239341
 3,-0.2102661,0.0630943,-0.232849,0.6644305,-0.2086715,0.1002985,-0.249
 2535,0.1667347,-0.0377269,0.0945444,-0.0135515,0.1514438,-0.2094169,0.
 1389807,-0.0805573,0.1723872,0.0424817,0.0808345,-0.1230708,0.0569566,
 -0.0581207,0.035399,0.037506,0.0098997,0.0215486,0.0967987,0.3772504,-
 0.0541189,0.0242337,-0.0232111,0.5002599,-0.0775925,0.1109196,-0.15938
 28,0.301043,0.5996403,-0.122135,0.0469692,-0.2280803,0.2822009,-0.1490
 915,-0.0224535,-0.032524,0.2208912,-0.8970691,0.0451238,-0.2281022,0.1
 296328,-0.5104265,-0.0455999,-0.2140162,-0.1212544,-0.5788266,0.748498
 4,-0.0529505,0.1024036,-0.0570794,0.5349517,0.1629849,0.1454612,0.1981
 684,0.7497744,-1.1773369,0.2226532,-0.0594408,0.164515,-0.5249943,0.06
 37155,-0.0597907,0.0887689,-0.3281902,-0.695585,0.1708098,0.0412871,0.
 1034668,-0.6775882,-0.0173356,0.0230603,0.0242296,-0.6393624,-0.055240
 3,-0.0749685,0.0218762,-0.0522324,-0.0185182,0.0083612,0.0003057,-0.02
 4694,0.0773413,0.0557649,0.0244858,-0.0400887,0.0314889,0.0384519,-0.0
 451687,-0.0026997,-0.0309971,-0.0515742,0.0078302,-0.0420804,-0.023742
 1,-0.0130744,0.0040519,-0.0594472,-0.0028788,-0.0969416,-0.0738642,-0.
 0331855,0.0893277,-0.0397093,0.0725434,-0.0436906,0.0504365,-0.0544747
 ,0.0939744,0.0028094,-0.0782606,0.0408594,0.0608742,0.0147297,0.014881
 8,-0.0060392,0.0774157,-0.0298452,0.0155325,-0.1481876,-0.0505481,-0.0
 103285,-0.0846119,-0.0184498,-0.0002478,0.0422779,0.0106355,0.0455083,
 0.0262889,0.0069328,0.0217842,0.0437007,-0.0075481,0.0985166,-0.048136
 2,0.0877136,-0.0752094,-0.012857,0.0354014,-0.024516,0.0377383,-0.0639
 952,0.0486924,-0.0246316,0.0474663,0.0281117\Polar=84.7786002,-3.31044
 65,73.6762604,1.5589678,-2.0659408,62.5091611\Quadrupole=-2.4830414,2.
 45439,0.0286515,0.0483809,0.4156961,-1.1679109\PG=C01 [X(C6H8O3)]\NIma
 g=0\\0.92738108,-0.11705760,0.46752156,0.03118674,-0.08435860,0.275047
 92,-0.08204698,0.00155790,0.00277757,0.51014295,-0.00235230,-0.1573734
 8,0.02579417,0.08888573,0.49367309,0.00204171,0.02284605,-0.09264314,0
 .02149350,0.01579900,0.49404170,-0.01616814,0.01011970,-0.00101240,-0.
 13476986,0.01723095,0.03491260,0.46232764,0.02556468,-0.00397004,-0.01
 739364,0.01923709,-0.09247279,-0.01684245,-0.02946157,0.52685322,-0.00
 907224,-0.00360396,0.01040750,0.03382123,-0.00939162,-0.09355441,0.068
 16944,0.00045300,0.56902393,-0.00249957,-0.00181711,-0.00065926,-0.026
 68617,-0.02311712,0.00787567,-0.12045461,-0.04286903,0.01475159,0.5812
 7796,0.00112523,0.00993775,-0.00016489,0.00209483,0.00975476,0.0032247
 4,-0.05109829,-0.13197050,0.00414984,-0.04671322,0.47904710,-0.0007368
 7,-0.00467868,0.00050321,0.01241007,0.01345650,-0.00409090,0.02086702,
 0.00788824,-0.08282026,-0.11701256,0.06774903,0.46367635,-0.00284595,-
 0.00218734,0.00092130,0.00031973,0.00013912,-0.00205750,-0.00555415,-0
 .01354411,-0.01862708,-0.08314333,-0.02102707,-0.00458317,0.53641410,0
 .00141670,0.00297024,-0.00617392,0.00021840,0.00041999,0.00147317,-0.0
 0973546,-0.01699561,-0.02192956,-0.02963528,-0.10199733,-0.04592366,0.
 08311488,0.46440840,-0.00073452,0.00009781,0.00005998,-0.00040082,0.00
 037253,0.00095798,-0.00165023,-0.00118987,0.00780078,-0.01542356,-0.03
 550243,-0.11774511,0.03294194,-0.08992664,0.55586789,-0.01760137,0.001
 56541,-0.03756965,0.00111358,-0.00020569,0.00686714,-0.00052032,0.0002
 2683,0.00124623,-0.00929962,0.01717202,0.01150956,-0.12823394,0.054974
 87,0.00950190,0.31191621,-0.01671218,0.00222926,-0.01789025,0.00145538
 ,0.00089908,0.00290390,0.00049732,0.00114445,-0.00008573,0.02807714,-0
 .02818567,-0.01881342,0.04766222,-0.10920894,-0.02840527,-0.09994693,0
 .21978868,-0.00890829,-0.00478379,-0.00899720,0.00040400,0.00032408,0.
 00133575,0.00112528,-0.00041773,0.00048036,0.01072585,-0.00981237,-0.0
 1685792,-0.01245586,-0.00826434,-0.07406845,0.08874200,0.08731073,0.26
 825271,-0.08892385,-0.04470012,0.01655887,0.01158646,0.00800587,-0.000
 61781,0.00411836,-0.00321147,0.00067884,-0.03184780,0.03374591,0.00308
 022,-0.03735149,0.00772997,-0.02315774,-0.12060216,0.00775281,-0.03780
 906,0.51418671,-0.02611784,-0.15310028,0.03468662,-0.02351999,-0.01983
 066,0.01182053,-0.00058462,0.00006701,-0.00134676,0.04428458,-0.036434
 45,-0.00862271,0.01266974,0.00193715,0.02159791,-0.01258256,-0.0869841
 1,-0.03100478,-0.11522985,0.62947495,0.01291312,0.03673580,-0.07743612
 ,0.00765938,0.01377092,0.01262657,-0.00260493,0.00444479,-0.00332021,0
 .00375930,-0.01216667,0.01936704,-0.02923176,0.03017101,-0.00786058,-0
 .06283806,-0.01893341,-0.11100931,0.03511837,-0.11839058,0.37740639,-0
 .71120005,0.14426846,-0.04509567,-0.02781112,0.02696917,-0.01191313,0.
 00254551,0.00206166,-0.00385181,0.00198017,-0.00140528,0.00115715,0.00
 122123,-0.00245343,0.00016136,-0.00834268,-0.00422411,-0.00413942,-0.0
 4411439,0.01015500,-0.00256636,0.79493510,0.14759970,-0.13869002,0.024
 76006,0.04487678,-0.00424987,0.00827733,0.00185356,-0.00465661,0.00539
 046,0.00035727,-0.00392931,0.00219036,0.00104016,-0.00092325,-0.000314
 70,-0.00497457,-0.00074432,-0.00143065,-0.01197411,0.02332808,-0.00126
 317,-0.17699143,0.12290158,-0.04624049,0.02361280,-0.07340275,-0.02065
 121,0.00978958,0.01757324,0.00127151,0.00438688,-0.00372828,0.00031154
 ,0.00070872,0.00039519,-0.00044982,0.00173207,0.00024957,0.00739423,0.
 00262302,0.00142982,0.00585604,-0.00084674,0.02021589,0.05582762,-0.03
 469895,0.03430631,-0.01893333,0.02803812,0.02915488,0.00301021,-0.0019
 7507,-0.00385378,0.00757599,-0.00353757,0.00411609,-0.08994258,0.02701
 420,-0.03118998,-0.01679162,0.02033590,-0.03014732,0.02182689,0.002170
 39,0.00212293,-0.12321165,0.03393536,0.06630579,-0.00870068,-0.0092591
 6,-0.00247903,0.24791028,-0.00503470,0.00781432,0.00367726,0.00577497,
 0.00309154,-0.00298717,0.02148196,-0.03434215,0.03201644,0.02668581,-0
 .09959333,0.04573272,0.00945620,-0.00111221,0.00648960,0.00030415,-0.0
 0611947,-0.04375589,0.03370415,-0.08908773,-0.01813472,-0.00135572,0.0
 0055835,-0.00186024,-0.11943148,0.24070225,0.01650024,-0.01352059,-0.0
 1713211,-0.00220277,-0.00080766,0.00190269,-0.00939133,0.01782383,-0.0
 1126781,-0.00700610,0.02729994,-0.11630484,-0.01507985,0.00510555,-0.0
 4384142,-0.00621594,-0.01659908,-0.06314952,0.03702972,-0.00302952,-0.
 13163936,0.00669821,0.00365721,0.00119134,-0.02363218,-0.00988652,0.35
 630601,0.00818798,0.00722305,0.00211183,-0.19010538,-0.13311005,-0.019
 05612,-0.01726471,-0.01766599,-0.00172924,-0.00393751,0.00458295,0.001
 40073,0.00003016,0.00059878,0.00028803,0.00018976,-0.00025656,-0.00011
 209,-0.00100503,0.00199599,-0.00111432,0.00102204,-0.00027611,0.000003
 55,0.00121664,-0.00060076,-0.00002763,0.20436677,-0.02547524,-0.023555
 60,-0.00283933,-0.13083462,-0.17127499,-0.01932693,0.00875124,0.009586
 10,0.00098520,0.00266753,-0.00116418,-0.00060647,0.00045937,-0.0002372
 8,-0.00026076,0.00030650,0.00100973,0.00012618,0.00468052,-0.00409330,
 0.00170149,0.00136930,0.00532932,-0.00058058,-0.00110407,0.00105087,0.
 00031954,0.14252955,0.18454169,0.00964674,0.01363245,-0.00080381,-0.02
 020363,-0.02058346,-0.04670127,0.01220872,0.01158254,-0.00017684,0.003
 08369,-0.00239601,-0.00100169,0.00023838,0.00001523,-0.00042421,-0.000
 32794,-0.00073069,0.00078430,-0.00211882,0.00240962,-0.00100096,0.0010
 9949,-0.00298900,-0.00019912,-0.00066757,-0.00031217,0.00062783,0.0191
 3235,0.02007884,0.05093693,-0.00460169,-0.00170191,-0.01175566,-0.0507
 3932,-0.00876552,-0.04848217,0.00309334,0.00515878,0.02936647,0.001057
 84,-0.00004837,0.00043322,0.00026183,-0.00087429,0.00058294,-0.0004938
 2,-0.00014463,0.00015412,0.00015972,0.00048147,0.00036131,-0.00007845,
 0.00272748,0.00199285,-0.00072044,0.00003127,0.00004353,-0.00404101,-0
 .00161507,-0.02278636,0.05909923,0.00614101,0.00580134,0.03050588,-0.0
 0706268,-0.04730308,-0.02281028,-0.00064610,-0.00290985,-0.01185885,0.
 00010959,-0.00016895,0.00063853,-0.00027857,-0.00038220,0.00021915,-0.
 00213749,-0.00109307,-0.00098045,0.00007838,-0.00105365,-0.00198530,0.
 00117393,-0.00297923,-0.00268370,0.00077076,-0.00013159,-0.00058663,-0
 .00397097,-0.00195185,-0.02229094,0.00388168,0.05126969,-0.00426169,0.
 00020432,-0.01384533,-0.04506509,-0.03086158,-0.28822325,-0.00116176,-
 0.00303591,-0.01386906,-0.00039377,-0.00055994,-0.00011985,0.00055914,
 0.00002991,-0.00042904,-0.00049257,-0.00045499,0.00147773,-0.00055403,
 0.00075828,-0.00073889,0.00084934,0.00124098,0.00117939,-0.00039439,0.
 00022087,0.00062306,-0.00088282,-0.00063625,-0.00272390,0.04880100,0.0
 3313867,0.31457115,0.00074586,-0.00108708,0.00187954,0.00386731,0.0136
 0870,0.02535838,-0.06096581,-0.02705255,-0.05263730,-0.00657959,-0.010
 74989,-0.01915215,-0.00229648,-0.00245229,0.00203764,0.00080262,-0.000
 60576,-0.00011027,-0.00041023,0.00022240,0.00006340,-0.00062309,0.0000
 8547,-0.00076417,0.00088762,0.00171764,0.00060723,0.00157921,-0.000397
 25,-0.00030190,-0.00417922,0.00263408,0.00257184,0.07088427,-0.0003628
 1,-0.00014055,-0.00055018,-0.00196119,-0.00404720,-0.00760227,-0.02483
 648,-0.10307846,-0.10014756,-0.00841825,-0.01630199,-0.02340704,-0.003
 99833,-0.00250966,0.00278087,0.00065674,0.00023326,0.00063742,0.000361
 68,-0.00039060,-0.00122563,0.00028662,-0.00001412,0.00023748,0.0003395
 9,0.00325987,0.00011234,-0.00010538,0.00093846,0.00057832,0.00109584,0
 .00020053,-0.00037488,0.03160967,0.11064182,-0.00024726,0.00092647,-0.
 00076278,-0.00090936,-0.00620659,-0.01214907,-0.05358691,-0.10239760,-
 0.23931658,0.00179217,0.00505311,0.00572926,0.00010108,0.00168048,-0.0
 0035302,-0.00028621,0.00000861,0.00044717,0.00025036,-0.00012065,-0.00
 031636,0.00049640,-0.00041070,0.00034217,0.00092948,-0.00044029,0.0014
 6251,0.00007749,0.00038949,0.00073206,0.00267230,-0.00117516,0.0001381
 6,0.05379649,0.11147452,0.25828324,-0.00265097,-0.00372752,0.00415840,
 -0.01355789,0.02036360,-0.01278601,-0.11066583,0.08061637,-0.07535827,
 0.01072020,-0.00967572,0.01001088,0.00056252,0.00067861,-0.00010058,0.
 00015528,-0.00006627,-0.00017284,-0.00136505,-0.00032010,0.00066085,-0
 .00182962,0.00261458,-0.00145725,0.00074568,-0.00588500,0.00182265,-0.
 00019718,-0.00021700,-0.00029393,0.00187379,-0.00052973,-0.00012316,-0
 .00408582,0.00511038,-0.00478641,0.11954662,0.00066491,0.00171483,-0.0
 0146598,0.00502189,-0.00645146,0.00372017,0.07925102,-0.15583577,0.095
 23076,0.01530534,-0.01410239,0.01316103,0.00118998,0.00023932,0.000832
 14,-0.00097056,0.00023605,-0.00085766,-0.00070926,0.00174053,0.0014743
 0,0.00080429,-0.00099933,0.00047973,-0.00226967,-0.00688931,0.00305373
 ,0.00017641,0.00003520,-0.00018008,-0.00028101,0.00052229,0.00005018,-
 0.00748097,0.01095614,-0.00827039,-0.09013442,0.16798478,0.00279469,0.
 00073108,-0.00175659,0.00901169,-0.01362479,0.00823010,-0.07479361,0.0
 9783368,-0.13407283,-0.00491787,0.00179286,-0.00493741,0.00024389,-0.0
 0001242,-0.00008906,0.00001310,-0.00017515,0.00047429,0.00087261,-0.00
 031357,-0.00095941,0.00089468,-0.00148181,0.00089996,0.00068434,0.0030
 1508,0.00075221,-0.00030969,0.00037602,0.00013764,-0.00053150,-0.00008
 606,0.00153217,-0.01277065,0.01819059,-0.01563856,0.07849850,-0.106025
 87,0.14495981,0.00104534,-0.00002297,0.00000422,-0.00061800,-0.0033480
 7,-0.00019316,-0.01357994,0.00343885,0.01049180,-0.21788657,0.05539656
 ,0.11410527,0.00832769,-0.00278154,-0.00332046,0.00249075,-0.00266145,
 -0.00169080,-0.00170917,-0.00018753,-0.00448959,-0.00041370,-0.0000203
 2,-0.00004625,-0.01624513,0.01259933,0.00592494,-0.00067347,0.00033015
 ,0.00055358,-0.00009146,0.00004117,0.00012921,0.00032345,0.00034657,-0
 .00052062,0.00042436,-0.00041661,0.00036757,0.23819423,0.00001707,-0.0
 0188227,0.00021038,-0.00254874,-0.00438413,-0.00005793,-0.02247118,0.0
 0828872,0.01396628,0.05151535,-0.06529512,-0.03704597,0.01175903,-0.00
 257064,-0.00763141,0.00218085,-0.00246860,-0.00073220,0.00181415,-0.00
 237014,0.00116665,0.00022675,0.00080470,-0.00018807,0.02042523,-0.0114
 7040,-0.00905619,-0.00134785,0.00059474,0.00079134,0.00004139,-0.00000
 649,0.00014991,0.00055795,0.00102651,-0.00053574,0.00111102,0.00077287
 ,-0.00007962,-0.06361515,0.07948054,0.00020269,0.00102545,-0.00004559,
 0.00033928,0.00179016,0.00098648,0.00539943,-0.00297620,-0.00262906,0.
 12211791,-0.04439787,-0.13113196,0.01963934,-0.00433502,-0.00782529,0.
 00195108,-0.00397117,-0.00206705,-0.00418955,0.00144591,-0.00456007,-0
 .00025113,-0.00032024,-0.00006363,-0.02167446,0.01126324,0.01200576,0.
 00041850,-0.00029351,-0.00025057,-0.00019384,0.00000727,0.00005277,-0.
 00031155,0.00041650,0.00078679,-0.00008000,0.00005664,0.00001503,-0.12
 198181,0.04025017,0.13370485,0.00054133,0.00065776,-0.00147844,0.00020
 239,0.00003557,0.00026720,0.00067395,-0.00012745,-0.00092995,-0.002376
 86,-0.00286157,0.00160575,-0.22192819,-0.11849522,0.03129002,-0.033184
 95,0.00458405,-0.00084482,-0.00190834,0.00007898,0.00569589,-0.0007475
 0,-0.00020784,0.00046085,0.00179818,-0.00004410,-0.00084911,0.00002350
 ,-0.00007939,-0.00002760,0.00001480,-0.00001784,0.00003237,-0.00012523
 ,-0.00013406,0.00016263,0.00000845,-0.00007440,0.00004257,0.00089877,0
 .00002996,-0.00048479,0.25348784,-0.00015534,-0.00112265,0.00143571,0.
 00045083,0.00018211,-0.00044223,-0.00039693,-0.00077049,-0.00410129,-0
 .01462035,-0.01214182,0.00512517,-0.12265397,-0.12307635,0.02246308,0.
 03068448,0.00963433,-0.00070921,0.00241828,-0.00062553,-0.00381863,0.0
 0046946,0.00038633,-0.00047590,-0.00091336,0.00205735,0.00053709,-0.00
 006622,0.00005892,-0.00000785,0.00014626,0.00014718,-0.00002835,-0.000
 87044,-0.00098483,0.00003582,0.00007150,0.00023416,0.00005894,0.000250
 13,0.00026757,0.00008619,0.11834905,0.13220604,-0.00021676,0.00010803,
 0.00016690,0.00028792,0.00000730,-0.00032482,-0.00069426,-0.00128026,-
 0.00411264,-0.02162395,-0.01585022,0.00548940,0.03302005,0.02490922,-0
 .06176950,0.00144669,-0.00205603,0.00526905,-0.00077610,-0.00001933,-0
 .00163828,0.00012543,0.00001195,-0.00004605,0.00083842,0.00083753,0.00
 060139,-0.00003308,0.00009150,0.00014452,-0.00026193,-0.00003862,0.000
 19054,-0.00071675,-0.00118567,0.00025721,0.00013811,-0.00017855,0.0000
 4106,0.00042548,0.00042566,0.00127258,-0.03498427,-0.02233137,0.057806
 31,0.00020480,0.00087727,-0.00047614,0.00001777,0.00001923,-0.00021641
 ,0.00044733,0.00031034,-0.00022584,0.00041317,0.00122742,-0.00585493,-
 0.04931985,-0.00345785,0.00060623,-0.00986502,0.01786145,-0.02434914,-
 0.00063473,0.00482603,-0.00067105,-0.00011553,-0.00040226,0.00024465,-
 0.00048759,0.00086777,-0.00085834,0.00012825,-0.00013487,0.00021813,-0
 .00058289,-0.00018387,0.00026482,0.00009910,0.00009764,0.00010777,0.00
 003029,-0.00023307,-0.00002057,-0.00018575,-0.00031417,-0.00053821,0.0
 0282363,-0.01323790,0.02303864,0.05796458,-0.00023973,-0.00014910,0.00
 023606,-0.00020393,0.00014391,-0.00002230,0.00003155,0.00071397,0.0001
 2115,-0.00073948,0.01220516,-0.01387565,-0.00227142,-0.11166301,0.1102
 8925,0.01642486,-0.01345475,0.01647681,-0.00103573,-0.00521568,-0.0026
 8807,0.00020195,0.00005509,-0.00014809,-0.00410590,0.00048348,-0.00459
 240,0.00002678,-0.00002821,-0.00001709,-0.00014213,0.00012302,0.000002
 78,0.00020920,0.00024033,0.00002179,-0.00003471,-0.00008375,-0.0002023
 1,0.00046790,-0.00049800,-0.00036645,-0.00154386,-0.00654627,0.0165745
 5,-0.00769622,0.12330696,0.00030914,0.00108274,-0.00035732,-0.00024225
 ,-0.00036187,0.00024062,0.00043140,0.00147206,0.00088088,0.00083838,0.
 01283679,-0.01570903,-0.00699518,0.11137518,-0.24580969,-0.00206846,-0
 .00190075,0.00788301,0.00186026,-0.00102495,-0.00100646,-0.00016321,-0
 .00041157,0.00007915,-0.00360227,-0.00060633,-0.00343949,-0.00002004,0
 .00001165,0.00016174,-0.00036955,-0.00004582,0.00019361,0.00042770,0.0
 0002508,0.00032367,0.00004107,-0.00093890,0.00026451,-0.00033381,-0.00
 091167,-0.00110631,0.00015903,0.00215600,-0.00329988,0.00986273,-0.122
 81264,0.26061616,0.00936551,-0.02200602,0.00929387,-0.00392569,-0.0023
 8412,0.00035987,-0.00083875,0.00085514,-0.00020995,-0.00079513,0.00122
 029,0.00194979,0.00032773,0.00081725,-0.00247482,-0.01035120,0.0145571
 4,-0.01268160,-0.07696737,0.06989296,-0.02902133,0.00227276,0.00295081
 ,-0.00127462,-0.00993847,0.01972852,-0.00336326,0.00047998,-0.00123664
 ,0.00054667,-0.00003224,-0.00000335,0.00012155,0.00007604,-0.00008823,
 -0.00004941,0.00028516,0.00015613,-0.00007976,-0.00030140,0.00061834,-
 0.00036290,-0.00020178,0.00007452,-0.00001366,-0.00093756,0.00065087,-
 0.00013494,0.09148240,0.01097843,-0.01800531,0.00953064,-0.00344266,-0
 .00077681,0.00002667,0.00001335,0.00034880,0.00015218,-0.00107277,0.00
 034027,-0.00296800,-0.00152989,0.00070141,-0.00191125,-0.00367889,0.01
 308409,-0.00212614,0.07656884,-0.25736158,0.08914120,-0.00155661,0.003
 82262,-0.00208801,0.00956674,-0.01027184,0.00016936,0.00026638,-0.0008
 3963,0.00041897,0.00000876,-0.00008409,0.00015601,0.00005114,-0.000029
 51,-0.00003318,0.00002441,-0.00007417,0.00000338,0.00018297,-0.0002898
 5,0.00031892,-0.00014963,0.00009397,-0.00002568,-0.00042696,0.00036686
 ,0.00005499,-0.08580360,0.26897477,-0.00517695,0.00994262,0.00099723,0
 .00147048,0.00073333,-0.00020828,0.00051004,-0.00035136,0.00027451,0.0
 0178095,-0.00196462,-0.00444148,0.00181511,0.00007374,-0.00472083,-0.0
 1887309,0.01716967,-0.01168474,-0.03208218,0.09200073,-0.08812989,0.00
 067105,-0.00220758,-0.00042220,0.01348903,-0.02526939,0.01130174,-0.00
 014746,0.00046390,-0.00024265,-0.00002672,0.00003229,-0.00000927,0.000
 02252,0.00004012,0.00003413,-0.00017202,-0.00014125,0.00014707,0.00057
 443,-0.00072158,0.00085527,-0.00011736,0.00001683,-0.00004781,-0.00113
 233,0.00100261,0.00008481,0.03739450,-0.09082005,0.09621240\\0.0000100
 9,0.00002678,-0.00001250,-0.00000419,0.00002685,-0.00001358,-0.0000408
 9,-0.00002805,0.00002068,-0.00000086,0.00000404,-0.00000907,-0.0000071
 4,-0.00001442,0.00001221,0.00002157,-0.00000550,0.00002432,-0.00000592
 ,-0.00002194,-0.00003930,0.00000741,-0.00001332,0.00001516,0.00001522,
 0.00001620,-0.00000317,-0.00000656,-0.00000729,-0.00000431,0.00000331,
 0.00001128,-0.00000055,0.00000675,-0.00000838,-0.00000130,0.00001160,0
 .00000069,0.00000040,0.00000498,0.00001178,-0.00000110,-0.00000105,0.0
 0000460,0.00000198,-0.00000302,-0.00000625,0.00000988,-0.00001130,0.00
 000293,0.00000024\\\@


 THERE IS MORE TO LIFE THAN INCREASING ITS SPEED.

                                       -- GANDHI
 Job cpu time:       0 days  1 hours 42 minutes  8.2 seconds.
 Elapsed time:       0 days  0 hours 17 minutes  3.7 seconds.
 File lengths (MBytes):  RWF=    203 Int=      0 D2E=      0 Chk=     13 Scr=      1
 Normal termination of Gaussian 16 at Mon Aug 15 14:43:34 2022.
