 Entering Gaussian System, Link 0=g16
 AtFile(1): pcseg2.gbs
            -H     0
            S   4   1.00
                  0.754732D+02           0.427821D-02
                  0.113575D+02           0.328672D-01
                  0.260081D+01           0.159578D+00
                  0.735503D+00           0.500000D+00
            S   1   1.00
                  0.231761D+00           1.0000000
            S   1   1.00
                  0.741675D-01           1.0000000
            P   1   1.00
                  0.160000D+01           1.0000000
            P   1   1.00
                  0.450000D+00           1.0000000
            D   1   1.00
                  0.125000D+01           1.0000000
            ****
            -C     0
            S   7   1.00
                  0.731999D+04           0.695369D-03
                  0.109818D+04           0.537138D-02
                  0.250014D+03           0.274734D-01
                  0.707586D+02           0.105078D+00
                  0.228595D+02           0.291262D+00
                  0.803936D+01           0.500000D+00
                  0.289309D+01           0.362224D+00
            S   2   1.00
                  0.521640D+01          -0.957844D-01
                  0.556124D+00           0.500000D+00
            S   1   1.00
                  0.228813D+00           1.0000000
            S   1   1.00
                  0.936338D-01           1.0000000
            P   4   1.00
                  0.339855D+02           0.818395D-02
                  0.772957D+01           0.586921D-01
                  0.224954D+01           0.222514D+00
                  0.767681D+00           0.500000D+00
            P   1   1.00
                  0.263283D+00           1.0000000
            P   1   1.00
                  0.848744D-01           1.0000000
            D   1   1.00
                  0.140000D+01           1.0000000
            D   1   1.00
                  0.450000D+00           1.0000000
            F   1   1.00
                  0.950000D+00           1.0000000
            ****
            -O     0
            S   7   1.00
                  0.135887D+05           0.665492D-03
                  0.203847D+04           0.514222D-02
                  0.464041D+03           0.263472D-01
                  0.131339D+03           0.101500D+00
                  0.425340D+02           0.285877D+00
                  0.150429D+02           0.500000D+00
                  0.546616D+01           0.368211D+00
            S   2   1.00
                  0.100915D+02          -0.100084D+00
                  0.110429D+01           0.500000D+00
            S   1   1.00
                  0.448082D+00           1.0000000
            S   1   1.00
                  0.175325D+00           1.0000000
            P   4   1.00
                  0.608220D+02           0.908253D-02
                  0.140332D+02           0.645878D-01
                  0.418244D+01           0.241502D+00
                  0.142490D+01           0.500000D+00
            P   1   1.00
                  0.478741D+00           1.0000000
            P   1   1.00
                  0.146257D+00           1.0000000
            D   1   1.00
                  0.220000D+01           1.0000000
            D   1   1.00
                  0.650000D+00           1.0000000
            F   1   1.00
                  0.110000D+01           1.0000000
            ****
            -N     0
            S   7   1.00
                  0.101643D+05           0.682757D-03
                  0.152481D+04           0.527488D-02
                  0.347119D+03           0.270037D-01
                  0.982389D+02           0.103673D+00
                  0.317799D+02           0.289575D+00
                  0.112240D+02           0.500000D+00
                  0.406611D+01           0.364621D+00
            S   2   1.00
                  0.747898D+01          -0.975681D-01
                  0.805040D+00           0.500000D+00
            S   1   1.00
                  0.324626D+00           1.0000000
            S   1   1.00
                  0.128132D+00           1.0000000
            P   4   1.00
                  0.482704D+02           0.829547D-02
                  0.110815D+02           0.596223D-01
                  0.326643D+01           0.227889D+00
                  0.111680D+01           0.500000D+00
            P   1   1.00
                  0.382049D+00           1.0000000
            P   1   1.00
                  0.121222D+00           1.0000000
            D   1   1.00
                  0.180000D+01           1.0000000
            D   1   1.00
                  0.550000D+00           1.0000000
            F   1   1.00
                  0.102000D+01           1.0000000
            ****
            -F     0
            S   7   1.00
                  0.174507D+05           0.655972D-03
                  0.261768D+04           0.506944D-02
                  0.595857D+03           0.259899D-01
                  0.168651D+03           0.100353D+00
                  0.546654D+02           0.284095D+00
                  0.193717D+02           0.500000D+00
                  0.706202D+01           0.370721D+00
            S   2   1.00
                  0.131197D+02          -0.101997D+00
                  0.145046D+01           0.500000D+00
            S   1   1.00
                  0.588255D+00           1.0000000
            S   1   1.00
                  0.227960D+00           1.0000000
            P   4   1.00
                  0.779407D+02           0.931135D-02
                  0.180425D+02           0.663964D-01
                  0.542342D+01           0.246386D+00
                  0.184876D+01           0.500000D+00
            P   1   1.00
                  0.617455D+00           1.0000000
            P   1   1.00
                  0.185496D+00           1.0000000
            D   1   1.00
                  0.280000D+01           1.0000000
            D   1   1.00
                  0.800000D+00           1.0000000
            F   1   1.00
                  0.120000D+01           1.0000000
            ****
            -Cl     0
            S   8   1.00
                  0.154272D+06           0.222473D-03
                  0.231232D+05           0.172590D-02
                  0.526257D+04           0.899286D-02
                  0.148995D+04           0.367724D-01
                  0.485417D+03           0.121446D+00
                  0.174634D+03           0.304148D+00
                  0.672393D+02           0.500000D+00
                  0.265780D+02           0.360252D+00
            S   3   1.00
                  0.131826D+03          -0.531330D-01
                  0.400703D+02          -0.233346D+00
                  0.789448D+01           0.500000D+00
            S   2   1.00
                  0.427711D+01           0.500000D+00
                  0.196233D+01           0.370517D+00
            S   1   1.00
                  0.520793D+00           1.0000000
            S   1   1.00
                  0.181633D+00           1.0000000
            P   7   1.00
                  0.124440D+04           0.988206D-03
                  0.295109D+03           0.829674D-02
                  0.947224D+02           0.430906D-01
                  0.352588D+02           0.148443D+00
                  0.144211D+02           0.344744D+00
                  0.610371D+01           0.500000D+00
                  0.258886D+01           0.348278D+00
            P   2   1.00
                  0.109447D+02          -0.196768D-01
                  0.104413D+01           0.500000D+00
            P   1   1.00
                  0.376184D+00           1.0000000
            P   1   1.00
                  0.120613D+00           1.0000000
            D   1   1.00
                  0.231000D+01           1.0000000
            D   1   1.00
                  0.520000D+00           1.0000000
            F   1   1.00
                  0.720000D+00           1.0000000
            ****
            -S     0
            S   8   1.00
                  0.134700D+06           0.226231D-03
                  0.201904D+05           0.175488D-02
                  0.459528D+04           0.914190D-02
                  0.130109D+04           0.373551D-01
                  0.423902D+03           0.123121D+00
                  0.152485D+03           0.306801D+00
                  0.586925D+02           0.500000D+00
                  0.231461D+02           0.354358D+00
            S   3   1.00
                  0.116327D+03          -0.491772D-01
                  0.352841D+02          -0.215962D+00
                  0.677831D+01           0.500000D+00
            S   2   1.00
                  0.360404D+01           0.500000D+00
                  0.164871D+01           0.366278D+00
            S   1   1.00
                  0.421821D+00           1.0000000
            S   1   1.00
                  0.147554D+00           1.0000000
            P   7   1.00
                  0.104863D+04           0.105273D-02
                  0.248717D+03           0.879338D-02
                  0.797887D+02           0.453358D-01
                  0.296023D+02           0.154476D+00
                  0.120627D+02           0.352366D+00
                  0.507628D+01           0.500000D+00
                  0.213375D+01           0.346429D+00
            P   2   1.00
                  0.928958D+01          -0.185932D-01
                  0.837819D+00           0.500000D+00
            P   1   1.00
                  0.301495D+00           1.0000000
            P   1   1.00
                  0.974740D-01           1.0000000
            D   1   1.00
                  0.210000D+01           1.0000000
            D   1   1.00
                  0.480000D+00           1.0000000
            F   1   1.00
                  0.660000D+00           1.0000000
            ****
            -Br     0
            S    10   1.00
                  0.233625D+07           0.532336D-04
                  0.349961D+06           0.413715D-03
                  0.796444D+05           0.217123D-02
                  0.225555D+05           0.910109D-02
                  0.735546D+04           0.323789D-01
                  0.265352D+04           0.988755D-01
                  0.103517D+04           0.248138D+00
                  0.422205D+03           0.474328D+00
                  0.180035D+03           0.500000D+00
                  0.793308D+02           0.187769D+00
            S    4   1.00
                  0.620834D+03          -0.226511D-01
                  0.190829D+03          -0.109497D+00
                  0.312505D+02           0.500000D+00
                  0.135270D+02           0.492812D+00
            S    2   1.00
                  0.216097D+02          -0.165418D+00
                  0.372566D+01           0.500000D+00
            S    1   1.00
                  0.169770D+01           1.0000000
            S    1   1.00
                  0.489332D+00           1.0000000
            S    1   1.00
                  0.175712D+00           1.0000000
            P    8   1.00
                  0.960829D+04           0.478974D-03
                  0.227618D+04           0.417853D-02
                  0.736723D+03           0.229315D-01
                  0.281579D+03           0.892653D-01
                  0.118395D+03           0.255288D+00
                  0.527481D+02           0.479074D+00
                  0.245098D+02           0.500000D+00
                  0.112009D+02           0.200944D+00
            P    4   1.00
                  0.587849D+02          -0.189674D-01
                  0.918962D+01           0.264104D+00
                  0.413895D+01           0.500000D+00
                  0.184225D+01           0.319316D+00
            P    1   1.00
                  0.713862D+00           1.0000000
            P    1   1.00
                  0.274232D+00           1.0000000
            P    1   1.00
                  0.944411D-01           1.0000000
            D    7   1.00
                  0.398470D+03           0.204066D-02
                  0.118967D+03           0.175171D-01
                  0.450197D+02           0.829708D-01
                  0.190320D+02           0.236284D+00
                  0.855686D+01           0.428468D+00
                  0.382950D+01           0.500000D+00
                  0.166291D+01           0.349360D+00
            D    1   1.00
                  0.672953D+00           1.0000000
            D    1   1.00
                  0.252000D+00           1.0000000
            F    1   1.00
                  0.530000D+00           1.0000000
            ****
            -Si     0
            S    8   1.00
                  0.996133D+05           0.235546D-03
                  0.149311D+05           0.182707D-02
                  0.339820D+04           0.951425D-02
                  0.962140D+03           0.388172D-01
                  0.313430D+03           0.127328D+00
                  0.112683D+03           0.313522D+00
                  0.433372D+02           0.500000D+00
                  0.170029D+02           0.340347D+00
            S    3   1.00
                  0.884208D+02          -0.404451D-01
                  0.266756D+02          -0.178059D+00
                  0.479640D+01           0.500000D+00
            S    2   1.00
                  0.239385D+01           0.500000D+00
                  0.108333D+01           0.338016D+00
            S    1   1.00
                  0.252420D+00           1.0000000
            S    1   1.00
                  0.891210D-01           1.0000000
            P    7   1.00
                  0.709901D+03           0.123028D-02
                  0.168426D+03           0.101366D-01
                  0.539946D+02           0.511840D-01
                  0.198646D+02           0.169967D+00
                  0.801369D+01           0.370717D+00
                  0.331870D+01           0.500000D+00
                  0.136112D+01           0.344128D+00
            P    2   1.00
                  0.622158D+01          -0.166609D-01
                  0.503049D+00           0.500000D+00
            P    1   1.00
                  0.179848D+00           1.0000000
            P    1   1.00
                  0.591912D-01           1.0000000
            D    1   1.00
                  0.168000D+01           1.0000000
            D    1   1.00
                  0.380000D+00           1.0000000
            F    1   1.00
                  0.540000D+00           1.0000000
            ****
            -P     0
            S    8   1.00
                  0.116416D+06           0.230715D-03
                  0.174500D+05           0.178960D-02
                  0.397149D+04           0.932116D-02
                  0.112447D+04           0.380591D-01
                  0.366347D+03           0.125148D+00
                  0.131757D+03           0.310022D+00
                  0.506988D+02           0.500000D+00
                  0.199436D+02           0.347528D+00
            S    3   1.00
                  0.101878D+03          -0.446755D-01
                  0.308249D+02          -0.196376D+00
                  0.573688D+01           0.500000D+00
            S    2   1.00
                  0.296868D+01           0.500000D+00
                  0.135315D+01           0.355098D+00
            S    1   1.00
                  0.332196D+00           1.0000000
            S    1   1.00
                  0.116229D+00           1.0000000
            P    7   1.00
                  0.873928D+03           0.112375D-02
                  0.207298D+03           0.933330D-02
                  0.664628D+02           0.477213D-01
                  0.245665D+02           0.160733D+00
                  0.996820D+01           0.359760D+00
                  0.416536D+01           0.500000D+00
                  0.173022D+01           0.346593D+00
            P    2   1.00
                  0.772530D+01          -0.175718D-01
                  0.657252D+00           0.500000D+00
            P    1   1.00
                  0.239903D+00           1.0000000
            P    1   1.00
                  0.800988D-01           1.0000000
            D    1   1.00
                  0.189000D+01           1.0000000
            D    1   1.00
                  0.430000D+00           1.0000000
            F    1   1.00
                  0.600000D+00           1.0000000
            ****
            
 Initial command:
 /usr/local/apps/g16_b01_avx/g16/l1.exe "/wrk/irikura/Gau-429195.inp" -scrdir="/wrk/irikura/"
 Entering Link 1 = /usr/local/apps/g16_b01_avx/g16/l1.exe PID=    429197.
  
 Copyright (c) 1988-2017, Gaussian, Inc.  All Rights Reserved.
  
 This is part of the Gaussian(R) 16 program.  It is based on
 the Gaussian(R) 09 system (copyright 2009, Gaussian, Inc.),
 the Gaussian(R) 03 system (copyright 2003, Gaussian, Inc.),
 the Gaussian(R) 98 system (copyright 1998, Gaussian, Inc.),
 the Gaussian(R) 94 system (copyright 1995, Gaussian, Inc.),
 the Gaussian 92(TM) system (copyright 1992, Gaussian, Inc.),
 the Gaussian 90(TM) system (copyright 1990, Gaussian, Inc.),
 the Gaussian 88(TM) system (copyright 1988, Gaussian, Inc.),
 the Gaussian 86(TM) system (copyright 1986, Carnegie Mellon
 University), and the Gaussian 82(TM) system (copyright 1983,
 Carnegie Mellon University). Gaussian is a federally registered
 trademark of Gaussian, Inc.
  
 This software contains proprietary and confidential information,
 including trade secrets, belonging to Gaussian, Inc.
  
 This software is provided under written license and may be
 used, copied, transmitted, or stored only in accord with that
 written license.
  
 The following legend is applicable only to US Government
 contracts under FAR:
  
                    RESTRICTED RIGHTS LEGEND
  
 Use, reproduction and disclosure by the US Government is
 subject to restrictions as set forth in subparagraphs (a)
 and (c) of the Commercial Computer Software - Restricted
 Rights clause in FAR 52.227-19.
  
 Gaussian, Inc.
 340 Quinnipiac St., Bldg. 40, Wallingford CT 06492
  
  
 ---------------------------------------------------------------
 Warning -- This program may not be used in any manner that
 competes with the business of Gaussian, Inc. or will provide
 assistance to any competitor of Gaussian, Inc.  The licensee
 of this program is prohibited from giving any competitor of
 Gaussian, Inc. access to this program.  By using this program,
 the user acknowledges that Gaussian, Inc. is engaged in the
 business of creating and licensing software in the field of
 computational chemistry and represents and warrants to the
 licensee that it is not a competitor of Gaussian, Inc. and that
 it will not use this program in any manner prohibited above.
 ---------------------------------------------------------------
  

 Cite this work as:
 Gaussian 16, Revision B.01,
 M. J. Frisch, G. W. Trucks, H. B. Schlegel, G. E. Scuseria, 
 M. A. Robb, J. R. Cheeseman, G. Scalmani, V. Barone, 
 G. A. Petersson, H. Nakatsuji, X. Li, M. Caricato, A. V. Marenich, 
 J. Bloino, B. G. Janesko, R. Gomperts, B. Mennucci, H. P. Hratchian, 
 J. V. Ortiz, A. F. Izmaylov, J. L. Sonnenberg, D. Williams-Young, 
 F. Ding, F. Lipparini, F. Egidi, J. Goings, B. Peng, A. Petrone, 
 T. Henderson, D. Ranasinghe, V. G. Zakrzewski, J. Gao, N. Rega, 
 G. Zheng, W. Liang, M. Hada, M. Ehara, K. Toyota, R. Fukuda, 
 J. Hasegawa, M. Ishida, T. Nakajima, Y. Honda, O. Kitao, H. Nakai, 
 T. Vreven, K. Throssell, J. A. Montgomery, Jr., J. E. Peralta, 
 F. Ogliaro, M. J. Bearpark, J. J. Heyd, E. N. Brothers, K. N. Kudin, 
 V. N. Staroverov, T. A. Keith, R. Kobayashi, J. Normand, 
 K. Raghavachari, A. P. Rendell, J. C. Burant, S. S. Iyengar, 
 J. Tomasi, M. Cossi, J. M. Millam, M. Klene, C. Adamo, R. Cammi, 
 J. W. Ochterski, R. L. Martin, K. Morokuma, O. Farkas, 
 J. B. Foresman, and D. J. Fox, Gaussian, Inc., Wallingford CT, 2016.
 
 ******************************************
 Gaussian 16:  ES64L-G16RevB.01 20-Dec-2017
                30-Sep-2023 
 ******************************************
 %chk=dioxirane.chk
 %mem=500mw
 %nprocs=4
 Will use up to    4 processors via shared memory.
 ---------------------------------------
 # b3lyp/gen opt freq CPHF(Grid=OneStep)
 ---------------------------------------
 1/18=20,19=15,26=3,38=1/1,3;
 2/9=110,12=2,17=6,18=5,40=1/2;
 3/5=7,11=2,25=1,30=1,71=1,74=-5/1,2,3;
 4//1;
 5/5=2,38=5/2;
 6/7=2,8=2,9=2,10=2,28=1/1;
 7//1,2,3,16;
 1/18=20,19=15,26=3/3(2);
 2/9=110/2;
 99//99;
 2/9=110/2;
 3/5=7,6=1,11=2,25=1,30=1,71=1,74=-5,82=7/1,2,3;
 4/5=5,16=3,69=1/1;
 5/5=2,38=5/2;
 7//1,2,3,16;
 1/18=20,19=15,26=3/3(-5);
 2/9=110/2;
 6/7=2,8=2,9=2,10=2,19=2,28=1/1;
 99/9=1/99;
 ------------------------
 dioxirane, B3LYP/pcseg-2
 ------------------------
 Symbolic Z-matrix:
 Charge =  0 Multiplicity = 1
 C                     0.        0.        0.73039 
 H                     0.92574   0.        1.30189 
 H                    -0.92574   0.        1.30189 
 O                     0.        0.74938  -0.43663 
 O                     0.       -0.74938  -0.43663 
 

 GradGradGradGradGradGradGradGradGradGradGradGradGradGradGradGradGradGrad
 Berny optimization.
 Initialization pass.
                           ----------------------------
                           !    Initial Parameters    !
                           ! (Angstroms and Degrees)  !
 --------------------------                            --------------------------
 ! Name  Definition              Value          Derivative Info.                !
 --------------------------------------------------------------------------------
 ! R1    R(1,2)                  1.0879         estimate D2E/DX2                !
 ! R2    R(1,3)                  1.0879         estimate D2E/DX2                !
 ! R3    R(1,4)                  1.3869         estimate D2E/DX2                !
 ! R4    R(1,5)                  1.3869         estimate D2E/DX2                !
 ! R5    R(4,5)                  1.4988         estimate D2E/DX2                !
 ! A1    A(2,1,3)              116.6216         estimate D2E/DX2                !
 ! A2    A(2,1,4)              116.2333         estimate D2E/DX2                !
 ! A3    A(2,1,5)              116.2333         estimate D2E/DX2                !
 ! A4    A(3,1,4)              116.2333         estimate D2E/DX2                !
 ! A5    A(3,1,5)              116.2333         estimate D2E/DX2                !
 ! D1    D(2,1,4,3)           -143.1056         estimate D2E/DX2                !
 ! D2    D(2,1,5,3)            143.1056         estimate D2E/DX2                !
 ! D3    D(2,1,5,4)           -108.4472         estimate D2E/DX2                !
 ! D4    D(3,1,5,4)            108.4472         estimate D2E/DX2                !
 --------------------------------------------------------------------------------
 Trust Radius=3.00D-01 FncErr=1.00D-07 GrdErr=1.00D-06 EigMax=2.50D+02 EigMin=1.00D-04
 Number of steps in this run=     24 maximum allowed number of steps=    100.
 GradGradGradGradGradGradGradGradGradGradGradGradGradGradGradGradGradGrad

                          Input orientation:                          
 ---------------------------------------------------------------------
 Center     Atomic      Atomic             Coordinates (Angstroms)
 Number     Number       Type             X           Y           Z
 ---------------------------------------------------------------------
      1          6           0        0.000000    0.000000    0.730385
      2          1           0        0.925739    0.000000    1.301892
      3          1           0       -0.925739    0.000000    1.301892
      4          8           0        0.000000    0.749377   -0.436631
      5          8           0        0.000000   -0.749377   -0.436631
 ---------------------------------------------------------------------
                    Distance matrix (angstroms):
                    1          2          3          4          5
     1  C    0.000000
     2  H    1.087940   0.000000
     3  H    1.087940   1.851478   0.000000
     4  O    1.386900   2.107373   2.107373   0.000000
     5  O    1.386900   2.107373   2.107373   1.498754   0.000000
 Stoichiometry    CH2O2
 Framework group  C2V[C2(C),SGV(O2),SGV'(H2)]
 Deg. of freedom     4
 Full point group                 C2V     NOp   4
 Largest Abelian subgroup         C2V     NOp   4
 Largest concise Abelian subgroup C2V     NOp   4
                         Standard orientation:                         
 ---------------------------------------------------------------------
 Center     Atomic      Atomic             Coordinates (Angstroms)
 Number     Number       Type             X           Y           Z
 ---------------------------------------------------------------------
      1          6           0        0.000000    0.000000    0.730385
      2          1           0        0.925739   -0.000000    1.301892
      3          1           0       -0.925739    0.000000    1.301892
      4          8           0        0.000000    0.749377   -0.436631
      5          8           0       -0.000000   -0.749377   -0.436631
 ---------------------------------------------------------------------
 Rotational constants (GHZ):          28.8796308          25.6644469          14.9801866
 General basis read from cards:  (5D, 7F)
 There are    51 symmetry adapted cartesian basis functions of A1  symmetry.
 There are    18 symmetry adapted cartesian basis functions of A2  symmetry.
 There are    30 symmetry adapted cartesian basis functions of B1  symmetry.
 There are    36 symmetry adapted cartesian basis functions of B2  symmetry.
 There are    43 symmetry adapted basis functions of A1  symmetry.
 There are    17 symmetry adapted basis functions of A2  symmetry.
 There are    27 symmetry adapted basis functions of B1  symmetry.
 There are    31 symmetry adapted basis functions of B2  symmetry.
   118 basis functions,   189 primitive gaussians,   135 cartesian basis functions
    12 alpha electrons       12 beta electrons
       nuclear repulsion energy        73.3842648069 Hartrees.
 NAtoms=    5 NActive=    5 NUniq=    3 SFac= 2.78D+00 NAtFMM=   60 NAOKFM=F Big=F
 Integral buffers will be    131072 words long.
 Raffenetti 2 integral format.
 Two-electron integral symmetry is turned on.
 One-electron integrals computed using PRISM.
 NBasis=   118 RedAO= T EigKep=  1.69D-03  NBF=    43    17    27    31
 NBsUse=   118 1.00D-06 EigRej= -1.00D+00 NBFU=    43    17    27    31
 ExpMin= 7.42D-02 ExpMax= 1.36D+04 ExpMxC= 4.64D+02 IAcc=3 IRadAn=         5 AccDes= 0.00D+00
 Harris functional with IExCor=  402 and IRadAn=       5 diagonalized for initial guess.
 HarFok:  IExCor=  402 AccDes= 0.00D+00 IRadAn=         5 IDoV= 1 UseB2=F ITyADJ=14
 ICtDFT=  3500011 ScaDFX=  1.000000  1.000000  1.000000  1.000000
 FoFCou: FMM=F IPFlag=           0 FMFlag=      100000 FMFlg1=           0
         NFxFlg=           0 DoJE=T BraDBF=F KetDBF=T FulRan=T
         wScrn=  0.000000 ICntrl=       500 IOpCl=  0 I1Cent=   200000004 NGrid=           0
         NMat0=    1 NMatS0=      1 NMatT0=    0 NMatD0=    1 NMtDS0=    0 NMtDT0=    0
 Petite list used in FoFCou.
 Initial guess orbital symmetries:
       Occupied  (A1) (B2) (A1) (A1) (B2) (A1) (B1) (A1) (A1) (B2)
                 (B1) (A2)
       Virtual   (B2) (B2) (A1) (B1) (A1) (B2) (A1) (B1) (A1) (B1)
                 (A1) (B2) (A1) (A2) (A1) (B1) (B2) (A2) (B2) (A1)
                 (A1) (B1) (A1) (B2) (B1) (A1) (B1) (A2) (B2) (B1)
                 (B2) (A1) (A1) (B1) (A1) (B2) (A1) (A2) (A2) (A1)
                 (B2) (B1) (B2) (A1) (A1) (B1) (A2) (A1) (B1) (B2)
                 (B2) (A1) (A1) (B1) (B2) (B1) (A2) (B2) (A1) (B1)
                 (A1) (B1) (A2) (A1) (B2) (A2) (B1) (A1) (A1) (B2)
                 (A2) (A1) (B2) (B1) (A1) (A2) (B2) (B1) (B2) (B2)
                 (B1) (A2) (A1) (A2) (A1) (B2) (A1) (A1) (B1) (B1)
                 (A2) (B2) (A1) (B1) (A1) (B2) (A1) (B1) (A2) (B2)
                 (A1) (A2) (B1) (A1) (B2) (B2)
 The electronic state of the initial guess is 1-A1.
 Keep R1 ints in memory in symmetry-blocked form, NReq=30878663.
 Requested convergence on RMS density matrix=1.00D-08 within 128 cycles.
 Requested convergence on MAX density matrix=1.00D-06.
 Requested convergence on             energy=1.00D-06.
 No special actions if energy rises.
 Integral accuracy reduced to 1.0D-05 until final iterations.
 Initial convergence to 1.0D-05 achieved.  Increase integral accuracy.
 SCF Done:  E(RB3LYP) =  -189.700755116     A.U. after   11 cycles
            NFock= 11  Conv=0.65D-08     -V/T= 2.0030

 **********************************************************************

            Population analysis using the SCF Density.

 **********************************************************************

 Orbital symmetries:
       Occupied  (A1) (B2) (A1) (A1) (B2) (A1) (B1) (A1) (A1) (B2)
                 (B1) (A2)
       Virtual   (B2) (A1) (B2) (B1) (A1) (B2) (A1) (B1) (A1) (A1)
                 (B2) (B1) (A1) (A2) (A1) (B1) (B2) (A2) (B2) (A1)
                 (A1) (B1) (A1) (B2) (B1) (A1) (B1) (A2) (B2) (B1)
                 (B2) (A1) (A1) (B1) (A1) (B2) (A1) (A2) (A2) (A1)
                 (B2) (B1) (B2) (A1) (A1) (B1) (A2) (A1) (B1) (B2)
                 (B2) (A1) (A1) (B1) (B2) (B1) (A2) (B2) (A1) (B1)
                 (A1) (B1) (A2) (A1) (B2) (A2) (B1) (A1) (A1) (B2)
                 (A2) (A1) (B2) (B1) (A1) (A2) (B2) (B1) (B2) (B2)
                 (B1) (A2) (A1) (A2) (A1) (B2) (A1) (A1) (B1) (B1)
                 (A2) (B2) (A1) (A1) (B1) (B2) (A1) (B1) (A2) (B2)
                 (A1) (A2) (B1) (A1) (B2) (B2)
 The electronic state is 1-A1.
 Alpha  occ. eigenvalues --  -19.21198 -19.21192 -10.30335  -1.20126  -0.88506
 Alpha  occ. eigenvalues --   -0.69072  -0.54343  -0.52124  -0.44491  -0.41884
 Alpha  occ. eigenvalues --   -0.35404  -0.29193
 Alpha virt. eigenvalues --   -0.05068   0.01784   0.02231   0.05922   0.08849
 Alpha virt. eigenvalues --    0.21759   0.21846   0.24426   0.28901   0.31019
 Alpha virt. eigenvalues --    0.31505   0.31911   0.37148   0.38040   0.40419
 Alpha virt. eigenvalues --    0.46297   0.48821   0.68783   0.73124   0.73593
 Alpha virt. eigenvalues --    0.88426   0.90352   0.96613   0.97559   0.97582
 Alpha virt. eigenvalues --    0.99478   1.20243   1.25555   1.26394   1.27900
 Alpha virt. eigenvalues --    1.46570   1.46849   1.56190   1.64625   1.69170
 Alpha virt. eigenvalues --    1.76311   1.77178   1.88270   1.92220   1.92636
 Alpha virt. eigenvalues --    1.98599   2.03633   2.05377   2.23463   2.28872
 Alpha virt. eigenvalues --    2.36718   2.44732   2.47359   2.48004   2.82947
 Alpha virt. eigenvalues --    2.94139   2.94780   3.23750   3.27016   3.31196
 Alpha virt. eigenvalues --    3.33211   3.34792   3.52292   3.62136   3.66980
 Alpha virt. eigenvalues --    3.77026   3.77346   3.77742   3.88337   3.90385
 Alpha virt. eigenvalues --    3.96200   4.04260   4.06063   4.09573   4.17255
 Alpha virt. eigenvalues --    4.22847   4.32869   4.37881   4.38169   4.47501
 Alpha virt. eigenvalues --    4.48304   4.55800   4.59462   4.81631   4.87068
 Alpha virt. eigenvalues --    4.87126   4.93081   4.98488   5.05828   5.16979
 Alpha virt. eigenvalues --    5.34467   5.39379   5.56842   5.62885   5.75565
 Alpha virt. eigenvalues --    5.77652   5.78625   5.82528   5.97912   5.99312
 Alpha virt. eigenvalues --    6.00258   6.18591   6.30584   6.36078   6.40681
 Alpha virt. eigenvalues --    6.62149   6.64060   6.72909   6.91936   6.96625
 Alpha virt. eigenvalues --    8.52573
          Condensed to atoms (all electrons):
               1          2          3          4          5
     1  C    4.309367   0.418202   0.418202   0.224621   0.224621
     2  H    0.418202   0.680328  -0.069795  -0.034935  -0.034935
     3  H    0.418202  -0.069795   0.680328  -0.034935  -0.034935
     4  O    0.224621  -0.034935  -0.034935   8.100343  -0.011465
     5  O    0.224621  -0.034935  -0.034935  -0.011465   8.100343
 Mulliken charges:
               1
     1  C    0.404985
     2  H    0.041136
     3  H    0.041136
     4  O   -0.243629
     5  O   -0.243629
 Sum of Mulliken charges =   0.00000
 Mulliken charges with hydrogens summed into heavy atoms:
               1
     1  C    0.487257
     4  O   -0.243629
     5  O   -0.243629
 Electronic spatial extent (au):  <R**2>=            110.2598
 Charge=              0.0000 electrons
 Dipole moment (field-independent basis, Debye):
    X=              0.0000    Y=             -0.0000    Z=              2.6203  Tot=              2.6203
 Quadrupole moment (field-independent basis, Debye-Ang):
   XX=            -16.7348   YY=            -18.0380   ZZ=            -15.8331
   XY=             -0.0000   XZ=             -0.0000   YZ=             -0.0000
 Traceless Quadrupole moment (field-independent basis, Debye-Ang):
   XX=              0.1338   YY=             -1.1694   ZZ=              1.0356
   XY=             -0.0000   XZ=             -0.0000   YZ=             -0.0000
 Octapole moment (field-independent basis, Debye-Ang**2):
  XXX=              0.0000  YYY=              0.0000  ZZZ=             -0.8765  XYY=              0.0000
  XXY=             -0.0000  XXZ=              0.9852  XZZ=              0.0000  YZZ=             -0.0000
  YYZ=              0.3922  XYZ=             -0.0000
 Hexadecapole moment (field-independent basis, Debye-Ang**3):
 XXXX=            -21.4627 YYYY=            -48.4681 ZZZZ=            -55.1793 XXXY=             -0.0000
 XXXZ=             -0.0000 YYYX=             -0.0000 YYYZ=             -0.0000 ZZZX=             -0.0000
 ZZZY=             -0.0000 XXYY=            -13.1181 XXZZ=            -11.8251 YYZZ=            -18.2613
 XXYZ=             -0.0000 YYXZ=             -0.0000 ZZXY=             -0.0000
 N-N= 7.338426480694D+01 E-N=-5.936281830906D+02  KE= 1.891299638726D+02
 Symmetry A1   KE= 1.075320802930D+02
 Symmetry A2   KE= 5.489043787949D+00
 Symmetry B1   KE= 6.653268898712D+00
 Symmetry B2   KE= 6.945557089297D+01
 Calling FoFJK, ICntrl=      2127 FMM=F ISym2X=1 I1Cent= 0 IOpClX= 0 NMat=1 NMatS=1 NMatT=0.
 ***** Axes restored to original set *****
 -------------------------------------------------------------------
 Center     Atomic                   Forces (Hartrees/Bohr)
 Number     Number              X              Y              Z
 -------------------------------------------------------------------
      1        6          -0.000000000    0.000000000    0.000119186
      2        1          -0.000040728    0.000000000   -0.000004705
      3        1           0.000040728   -0.000000000   -0.000004705
      4        8           0.000000000   -0.000298616   -0.000054888
      5        8           0.000000000    0.000298616   -0.000054888
 -------------------------------------------------------------------
 Cartesian Forces:  Max     0.000298616 RMS     0.000116027

 GradGradGradGradGradGradGradGradGradGradGradGradGradGradGradGradGradGrad
 Berny optimization.
 FormGI is forming the generalized inverse of G from B-inverse, IUseBI=4.
 Internal  Forces:  Max     0.000298593 RMS     0.000088635
 Search for a local minimum.
 Step number   1 out of a maximum of   24
 All quantities printed in internal units (Hartrees-Bohrs-Radians)
 Mixed Optimization -- En-DIIS/RFO-DIIS
 Second derivative matrix not updated -- first step.
 The second derivative matrix:
                          R1        R2        R3        R4        R5
           R1           0.35052
           R2           0.00000   0.35052
           R3           0.00000   0.00000   0.47862
           R4           0.00000   0.00000   0.00000   0.47862
           R5           0.00000   0.00000   0.00000   0.00000   0.32508
           A1           0.00000   0.00000   0.00000   0.00000   0.00000
           A2           0.00000   0.00000   0.00000   0.00000   0.00000
           A3           0.00000   0.00000   0.00000   0.00000   0.00000
           A4           0.00000   0.00000   0.00000   0.00000   0.00000
           A5           0.00000   0.00000   0.00000   0.00000   0.00000
           D1           0.00000   0.00000   0.00000   0.00000   0.00000
           D2           0.00000   0.00000   0.00000   0.00000   0.00000
           D3           0.00000   0.00000   0.00000   0.00000   0.00000
           D4           0.00000   0.00000   0.00000   0.00000   0.00000
                          A1        A2        A3        A4        A5
           A1           0.16000
           A2           0.00000   0.16000
           A3           0.00000   0.00000   0.16000
           A4           0.00000   0.00000   0.00000   0.16000
           A5           0.00000   0.00000   0.00000   0.00000   0.16000
           D1           0.00000   0.00000   0.00000   0.00000   0.00000
           D2           0.00000   0.00000   0.00000   0.00000   0.00000
           D3           0.00000   0.00000   0.00000   0.00000   0.00000
           D4           0.00000   0.00000   0.00000   0.00000   0.00000
                          D1        D2        D3        D4
           D1           0.01865
           D2           0.00000   0.01865
           D3           0.00000   0.00000   0.01865
           D4           0.00000   0.00000   0.00000   0.01865
 ITU=  0
     Eigenvalues ---    0.04042   0.07646   0.10115   0.16000   0.30197
     Eigenvalues ---    0.35052   0.35052   0.46061   0.47862
 RFO step:  Lambda=-3.63051248D-07 EMin= 4.04222100D-02
 Linear search not attempted -- first point.
 Iteration  1 RMS(Cart)=  0.00024231 RMS(Int)=  0.00000004
 Iteration  2 RMS(Cart)=  0.00000003 RMS(Int)=  0.00000001
 ClnCor:  largest displacement from symmetrization is 9.91D-06 for atom     5.
 Variable       Old X    -DE/DX   Delta X   Delta X   Delta X     New X
                                 (Linear)    (Quad)   (Total)
    R1        2.05591  -0.00004   0.00000  -0.00011  -0.00011   2.05580
    R2        2.05591  -0.00004   0.00000  -0.00011  -0.00011   2.05580
    R3        2.62086   0.00005   0.00000   0.00013   0.00013   2.62099
    R4        2.62086   0.00005   0.00000   0.00013   0.00013   2.62099
    R5        2.83223  -0.00030   0.00000  -0.00101  -0.00100   2.83123
    A1        2.03543  -0.00004   0.00000  -0.00008  -0.00008   2.03535
    A2        2.02865   0.00004   0.00000   0.00012   0.00011   2.02877
    A3        2.02865   0.00004   0.00000   0.00011   0.00011   2.02877
    A4        2.02865   0.00004   0.00000   0.00012   0.00011   2.02877
    A5        2.02865   0.00004   0.00000   0.00011   0.00011   2.02877
    D1       -2.49766  -0.00005   0.00000  -0.00020  -0.00019  -2.49785
    D2        2.49766   0.00004   0.00000   0.00017   0.00019   2.49785
    D3       -1.89276   0.00002   0.00000   0.00009   0.00010  -1.89267
    D4        1.89276  -0.00002   0.00000  -0.00009  -0.00010   1.89267
         Item               Value     Threshold  Converged?
 Maximum Force            0.000299     0.000450     YES
 RMS     Force            0.000089     0.000300     YES
 Maximum Displacement     0.000502     0.001800     YES
 RMS     Displacement     0.000243     0.001200     YES
 Predicted change in Energy=-1.815019D-07
 Optimization completed.
    -- Stationary point found.
                           ----------------------------
                           !   Optimized Parameters   !
                           ! (Angstroms and Degrees)  !
 --------------------------                            --------------------------
 ! Name  Definition              Value          Derivative Info.                !
 --------------------------------------------------------------------------------
 ! R1    R(1,2)                  1.0879         -DE/DX =    0.0                 !
 ! R2    R(1,3)                  1.0879         -DE/DX =    0.0                 !
 ! R3    R(1,4)                  1.3869         -DE/DX =    0.0                 !
 ! R4    R(1,5)                  1.3869         -DE/DX =    0.0                 !
 ! R5    R(4,5)                  1.4988         -DE/DX =   -0.0003              !
 ! A1    A(2,1,3)              116.6216         -DE/DX =    0.0                 !
 ! A2    A(2,1,4)              116.2333         -DE/DX =    0.0                 !
 ! A3    A(2,1,5)              116.2333         -DE/DX =    0.0                 !
 ! A4    A(3,1,4)              116.2333         -DE/DX =    0.0                 !
 ! A5    A(3,1,5)              116.2333         -DE/DX =    0.0                 !
 ! D1    D(2,1,4,3)           -143.1056         -DE/DX =   -0.0001              !
 ! D2    D(2,1,5,3)            143.1056         -DE/DX =    0.0                 !
 ! D3    D(2,1,5,4)           -108.4472         -DE/DX =    0.0                 !
 ! D4    D(3,1,5,4)            108.4472         -DE/DX =    0.0                 !
 --------------------------------------------------------------------------------
 GradGradGradGradGradGradGradGradGradGradGradGradGradGradGradGradGradGrad

                          Input orientation:                          
 ---------------------------------------------------------------------
 Center     Atomic      Atomic             Coordinates (Angstroms)
 Number     Number       Type             X           Y           Z
 ---------------------------------------------------------------------
      1          6           0        0.000000    0.000000    0.730385
      2          1           0        0.925739   -0.000000    1.301892
      3          1           0       -0.925739    0.000000    1.301892
      4          8           0        0.000000    0.749377   -0.436631
      5          8           0       -0.000000   -0.749377   -0.436631
 ---------------------------------------------------------------------
                    Distance matrix (angstroms):
                    1          2          3          4          5
     1  C    0.000000
     2  H    1.087940   0.000000
     3  H    1.087940   1.851478   0.000000
     4  O    1.386900   2.107373   2.107373   0.000000
     5  O    1.386900   2.107373   2.107373   1.498754   0.000000
 Stoichiometry    CH2O2
 Framework group  C2V[C2(C),SGV(O2),SGV'(H2)]
 Deg. of freedom     4
 Full point group                 C2V     NOp   4
 Largest Abelian subgroup         C2V     NOp   4
 Largest concise Abelian subgroup C2V     NOp   4
                         Standard orientation:                         
 ---------------------------------------------------------------------
 Center     Atomic      Atomic             Coordinates (Angstroms)
 Number     Number       Type             X           Y           Z
 ---------------------------------------------------------------------
      1          6           0        0.000000    0.000000    0.730385
      2          1           0        0.925739   -0.000000    1.301892
      3          1           0       -0.925739    0.000000    1.301892
      4          8           0        0.000000    0.749377   -0.436631
      5          8           0       -0.000000   -0.749377   -0.436631
 ---------------------------------------------------------------------
 Rotational constants (GHZ):          28.8796308          25.6644469          14.9801866
 1\1\GINC-GAMBA\FOpt\RB3LYP\Gen\C1H2O2\IRIKURA\30-Sep-2023\0\\# b3lyp/g
 en opt freq CPHF(Grid=OneStep)\\dioxirane, B3LYP/pcseg-2\\0,1\C,0.,0.,
 0.730385\H,0.925739,0.,1.301892\H,-0.925739,0.,1.301892\O,0.,0.749377,
 -0.436631\O,0.,-0.749377,-0.436631\\Version=ES64L-G16RevB.01\State=1-A
 1\HF=-189.7007551\RMSD=6.516e-09\RMSF=1.160e-04\Dipole=0.,0.,1.0308954
 \Quadrupole=0.0994776,-0.8693862,0.7699086,0.,0.,0.\PG=C02V [C2(C1),SG
 V(O2),SGV'(H2)]\\@


 PENOTUS DIED A HUNDRED YEARS OLD WANTING BUT TWO...
 AND HE USED TO SAY BEFORE HE DIED, HAVING SPENT HIS
 WHOLE LIFE IN VAINLY SEARCHING AFTER THE PHILOSOPHER'S
 STONE, THAT IF HE HAD A MORTAL ENEMY HE DID NOT DARE
 TO ENCOUNTER OPENLY, HE WOULD ADVISE HIM ABOVE ALL
 THINGS TO GIVE HIMSELF UP TO THE STUDY AND PRACTICE
 OF ALCHEMY.  --  NICOLAS LEMERY, M.D.
 "A COURSE OF CHYMISTRY", WALTER KETTILBY, LONDON, 1686
 Job cpu time:       0 days  0 hours  0 minutes 17.7 seconds.
 Elapsed time:       0 days  0 hours  0 minutes  4.5 seconds.
 File lengths (MBytes):  RWF=     10 Int=      0 D2E=      0 Chk=      2 Scr=      1
 Normal termination of Gaussian 16 at Sat Sep 30 01:30:58 2023.
 Link1:  Proceeding to internal job step number  2.
 ------------------------------------------------------------------
 #N Geom=AllCheck Guess=TCheck SCRF=Check GenChk RB3LYP/ChkBas Freq
 ------------------------------------------------------------------
 1/10=4,29=7,30=1,38=1,40=1/1,3;
 2/12=2,40=1/2;
 3/5=7,6=2,11=2,14=-4,25=1,30=1,67=1,70=2,71=2,74=-5,82=7,116=1,140=1/1,2,3;
 4/5=101/1;
 5/5=2,38=6,98=1/2;
 8/6=4,10=90,11=11/1;
 11/6=1,8=1,9=11,15=111,16=1/1,2,10;
 10/6=1,60=-420/2;
 6/7=2,8=2,9=2,10=2,28=1/1;
 7/8=1,10=1,25=1/1,2,3,16;
 1/10=4,30=1/3;
 99//99;
 Structure from the checkpoint file:  "dioxirane.chk"
 ------------------------
 dioxirane, B3LYP/pcseg-2
 ------------------------
 Charge =  0 Multiplicity = 1
 Redundant internal coordinates found in file.  (old form).
 C,0,0.,0.,0.730385
 H,0,0.925739,0.,1.301892
 H,0,-0.925739,0.,1.301892
 O,0,0.,0.749377,-0.436631
 O,0,0.,-0.749377,-0.436631
 Recover connectivity data from disk.

 GradGradGradGradGradGradGradGradGradGradGradGradGradGradGradGradGradGrad
 Berny optimization.
 Initialization pass.
                           ----------------------------
                           !    Initial Parameters    !
                           ! (Angstroms and Degrees)  !
 --------------------------                            --------------------------
 ! Name  Definition              Value          Derivative Info.                !
 --------------------------------------------------------------------------------
 ! R1    R(1,2)                  1.0879         calculate D2E/DX2 analytically  !
 ! R2    R(1,3)                  1.0879         calculate D2E/DX2 analytically  !
 ! R3    R(1,4)                  1.3869         calculate D2E/DX2 analytically  !
 ! R4    R(1,5)                  1.3869         calculate D2E/DX2 analytically  !
 ! R5    R(4,5)                  1.4988         calculate D2E/DX2 analytically  !
 ! A1    A(2,1,3)              116.6216         calculate D2E/DX2 analytically  !
 ! A2    A(2,1,4)              116.2333         calculate D2E/DX2 analytically  !
 ! A3    A(2,1,5)              116.2333         calculate D2E/DX2 analytically  !
 ! A4    A(3,1,4)              116.2333         calculate D2E/DX2 analytically  !
 ! A5    A(3,1,5)              116.2333         calculate D2E/DX2 analytically  !
 ! D1    D(2,1,4,3)           -143.1056         calculate D2E/DX2 analytically  !
 ! D2    D(2,1,5,3)            143.1056         calculate D2E/DX2 analytically  !
 ! D3    D(2,1,5,4)           -108.4472         calculate D2E/DX2 analytically  !
 ! D4    D(3,1,5,4)            108.4472         calculate D2E/DX2 analytically  !
 --------------------------------------------------------------------------------
 Trust Radius=3.00D-01 FncErr=1.00D-07 GrdErr=1.00D-07 EigMax=2.50D+02 EigMin=1.00D-04
 Number of steps in this run=      2 maximum allowed number of steps=      2.
 GradGradGradGradGradGradGradGradGradGradGradGradGradGradGradGradGradGrad

                          Input orientation:                          
 ---------------------------------------------------------------------
 Center     Atomic      Atomic             Coordinates (Angstroms)
 Number     Number       Type             X           Y           Z
 ---------------------------------------------------------------------
      1          6           0        0.000000    0.000000    0.730385
      2          1           0        0.925739    0.000000    1.301892
      3          1           0       -0.925739    0.000000    1.301892
      4          8           0        0.000000    0.749377   -0.436631
      5          8           0       -0.000000   -0.749377   -0.436631
 ---------------------------------------------------------------------
                    Distance matrix (angstroms):
                    1          2          3          4          5
     1  C    0.000000
     2  H    1.087940   0.000000
     3  H    1.087940   1.851478   0.000000
     4  O    1.386900   2.107373   2.107373   0.000000
     5  O    1.386900   2.107373   2.107373   1.498754   0.000000
 Stoichiometry    CH2O2
 Framework group  C2V[C2(C),SGV(O2),SGV'(H2)]
 Deg. of freedom     4
 Full point group                 C2V     NOp   4
 Largest Abelian subgroup         C2V     NOp   4
 Largest concise Abelian subgroup C2V     NOp   4
                         Standard orientation:                         
 ---------------------------------------------------------------------
 Center     Atomic      Atomic             Coordinates (Angstroms)
 Number     Number       Type             X           Y           Z
 ---------------------------------------------------------------------
      1          6           0       -0.000000    0.000000    0.730385
      2          1           0        0.925739   -0.000000    1.301892
      3          1           0       -0.925739    0.000000    1.301892
      4          8           0        0.000000    0.749377   -0.436631
      5          8           0       -0.000000   -0.749377   -0.436631
 ---------------------------------------------------------------------
 Rotational constants (GHZ):          28.8796308          25.6644469          14.9801866
 Basis read from chk: "dioxirane.chk" (5D, 7F)
 There are    51 symmetry adapted cartesian basis functions of A1  symmetry.
 There are    18 symmetry adapted cartesian basis functions of A2  symmetry.
 There are    30 symmetry adapted cartesian basis functions of B1  symmetry.
 There are    36 symmetry adapted cartesian basis functions of B2  symmetry.
 There are    43 symmetry adapted basis functions of A1  symmetry.
 There are    17 symmetry adapted basis functions of A2  symmetry.
 There are    27 symmetry adapted basis functions of B1  symmetry.
 There are    31 symmetry adapted basis functions of B2  symmetry.
   118 basis functions,   189 primitive gaussians,   135 cartesian basis functions
    12 alpha electrons       12 beta electrons
       nuclear repulsion energy        73.3842648069 Hartrees.
 NAtoms=    5 NActive=    5 NUniq=    3 SFac= 2.78D+00 NAtFMM=   60 NAOKFM=F Big=F
 Integral buffers will be    131072 words long.
 Raffenetti 2 integral format.
 Two-electron integral symmetry is turned on.
 One-electron integrals computed using PRISM.
 NBasis=   118 RedAO= T EigKep=  1.69D-03  NBF=    43    17    27    31
 NBsUse=   118 1.00D-06 EigRej= -1.00D+00 NBFU=    43    17    27    31
 Initial guess from the checkpoint file:  "dioxirane.chk"
 B after Tr=    -0.000000    0.000000    0.000000
         Rot=    1.000000   -0.000000   -0.000000   -0.000000 Ang=   0.00 deg.
 Initial guess orbital symmetries:
       Occupied  (A1) (B2) (A1) (A1) (B2) (A1) (B1) (A1) (A1) (B2)
                 (B1) (A2)
       Virtual   (B2) (A1) (B2) (B1) (A1) (B2) (A1) (B1) (A1) (A1)
                 (B2) (B1) (A1) (A2) (A1) (B1) (B2) (A2) (B2) (A1)
                 (A1) (B1) (A1) (B2) (B1) (A1) (B1) (A2) (B2) (B1)
                 (B2) (A1) (A1) (B1) (A1) (B2) (A1) (A2) (A2) (A1)
                 (B2) (B1) (B2) (A1) (A1) (B1) (A2) (A1) (B1) (B2)
                 (B2) (A1) (A1) (B1) (B2) (B1) (A2) (B2) (A1) (B1)
                 (A1) (B1) (A2) (A1) (B2) (A2) (B1) (A1) (A1) (B2)
                 (A2) (A1) (B2) (B1) (A1) (A2) (B2) (B1) (B2) (B2)
                 (B1) (A2) (A1) (A2) (A1) (B2) (A1) (A1) (B1) (B1)
                 (A2) (B2) (A1) (A1) (B1) (B2) (A1) (B1) (A2) (B2)
                 (A1) (A2) (B1) (A1) (B2) (B2)
 Keep R1 ints in memory in symmetry-blocked form, NReq=30878663.
 Requested convergence on RMS density matrix=1.00D-08 within 128 cycles.
 Requested convergence on MAX density matrix=1.00D-06.
 Requested convergence on             energy=1.00D-06.
 No special actions if energy rises.
 SCF Done:  E(RB3LYP) =  -189.700755116     A.U. after    1 cycles
            NFock=  1  Conv=0.99D-09     -V/T= 2.0030
 DoSCS=F DFT=T ScalE2(SS,OS)=  1.000000  1.000000
 Range of M.O.s used for correlation:     1   118
 NBasis=   118 NAE=    12 NBE=    12 NFC=     0 NFV=     0
 NROrb=    118 NOA=    12 NOB=    12 NVA=   106 NVB=   106
 Symmetrizing basis deriv contribution to polar:
 IMax=3 JMax=2 DiffMx= 0.00D+00
 G2DrvN: will do     6 centers at a time, making    1 passes.
 Calling FoFCou, ICntrl=  3107 FMM=F I1Cent=   0 AccDes= 0.00D+00.
 End of G2Drv F.D. properties file   721 does not exist.
 End of G2Drv F.D. properties file   722 does not exist.
 End of G2Drv F.D. properties file   788 does not exist.
          IDoAtm=11111
          Differentiating once with respect to electric field.
                with respect to dipole field.
          Differentiating once with respect to nuclear coordinates.
 Keep R1 ints in memory in symmetry-blocked form, NReq=30881889.
          There are    12 degrees of freedom in the 1st order CPHF.  IDoFFX=4 NUNeed=    12.
     12 vectors produced by pass  0 Test12= 1.06D-14 8.33D-09 XBig12= 1.83D+01 3.04D+00.
 AX will form    12 AO Fock derivatives at one time.
     12 vectors produced by pass  1 Test12= 1.06D-14 8.33D-09 XBig12= 1.40D+01 1.29D+00.
     12 vectors produced by pass  2 Test12= 1.06D-14 8.33D-09 XBig12= 5.57D-01 2.73D-01.
     12 vectors produced by pass  3 Test12= 1.06D-14 8.33D-09 XBig12= 1.29D-02 3.21D-02.
     12 vectors produced by pass  4 Test12= 1.06D-14 8.33D-09 XBig12= 9.02D-05 3.27D-03.
     12 vectors produced by pass  5 Test12= 1.06D-14 8.33D-09 XBig12= 1.94D-07 1.27D-04.
      6 vectors produced by pass  6 Test12= 1.06D-14 8.33D-09 XBig12= 3.68D-10 4.30D-06.
      3 vectors produced by pass  7 Test12= 1.06D-14 8.33D-09 XBig12= 6.72D-13 1.46D-07.
 InvSVY:  IOpt=1 It=  1 EMax= 4.44D-16
 Solved reduced A of dimension    81 with    12 vectors.
 Isotropic polarizability for W=    0.000000       19.68 Bohr**3.
 End of Minotr F.D. properties file   721 does not exist.
 End of Minotr F.D. properties file   722 does not exist.
 End of Minotr F.D. properties file   788 does not exist.

 **********************************************************************

            Population analysis using the SCF Density.

 **********************************************************************

 Orbital symmetries:
       Occupied  (A1) (B2) (A1) (A1) (B2) (A1) (B1) (A1) (A1) (B2)
                 (B1) (A2)
       Virtual   (B2) (A1) (B2) (B1) (A1) (B2) (A1) (B1) (A1) (A1)
                 (B2) (B1) (A1) (A2) (A1) (B1) (B2) (A2) (B2) (A1)
                 (A1) (B1) (A1) (B2) (B1) (A1) (B1) (A2) (B2) (B1)
                 (B2) (A1) (A1) (B1) (A1) (B2) (A1) (A2) (A2) (A1)
                 (B2) (B1) (B2) (A1) (A1) (B1) (A2) (A1) (B1) (B2)
                 (B2) (A1) (A1) (B1) (B2) (B1) (A2) (B2) (A1) (B1)
                 (A1) (B1) (A2) (A1) (B2) (A2) (B1) (A1) (A1) (B2)
                 (A2) (A1) (B2) (B1) (A1) (A2) (B2) (B1) (B2) (B2)
                 (B1) (A2) (A1) (A2) (A1) (B2) (A1) (A1) (B1) (B1)
                 (A2) (B2) (A1) (A1) (B1) (B2) (A1) (B1) (A2) (B2)
                 (A1) (A2) (B1) (A1) (B2) (B2)
 The electronic state is 1-A1.
 Alpha  occ. eigenvalues --  -19.21198 -19.21192 -10.30335  -1.20126  -0.88506
 Alpha  occ. eigenvalues --   -0.69072  -0.54343  -0.52124  -0.44491  -0.41884
 Alpha  occ. eigenvalues --   -0.35404  -0.29193
 Alpha virt. eigenvalues --   -0.05068   0.01784   0.02231   0.05922   0.08849
 Alpha virt. eigenvalues --    0.21759   0.21846   0.24426   0.28901   0.31019
 Alpha virt. eigenvalues --    0.31505   0.31911   0.37148   0.38040   0.40419
 Alpha virt. eigenvalues --    0.46297   0.48821   0.68783   0.73124   0.73593
 Alpha virt. eigenvalues --    0.88426   0.90352   0.96613   0.97559   0.97582
 Alpha virt. eigenvalues --    0.99478   1.20243   1.25555   1.26394   1.27900
 Alpha virt. eigenvalues --    1.46570   1.46849   1.56190   1.64625   1.69170
 Alpha virt. eigenvalues --    1.76311   1.77178   1.88270   1.92220   1.92636
 Alpha virt. eigenvalues --    1.98599   2.03633   2.05376   2.23463   2.28872
 Alpha virt. eigenvalues --    2.36718   2.44732   2.47359   2.48004   2.82947
 Alpha virt. eigenvalues --    2.94139   2.94780   3.23750   3.27016   3.31196
 Alpha virt. eigenvalues --    3.33211   3.34792   3.52292   3.62136   3.66980
 Alpha virt. eigenvalues --    3.77026   3.77346   3.77742   3.88337   3.90385
 Alpha virt. eigenvalues --    3.96200   4.04260   4.06063   4.09573   4.17255
 Alpha virt. eigenvalues --    4.22847   4.32869   4.37881   4.38169   4.47501
 Alpha virt. eigenvalues --    4.48304   4.55800   4.59462   4.81631   4.87068
 Alpha virt. eigenvalues --    4.87126   4.93081   4.98488   5.05828   5.16979
 Alpha virt. eigenvalues --    5.34467   5.39379   5.56842   5.62885   5.75565
 Alpha virt. eigenvalues --    5.77652   5.78625   5.82528   5.97912   5.99312
 Alpha virt. eigenvalues --    6.00258   6.18591   6.30584   6.36078   6.40681
 Alpha virt. eigenvalues --    6.62149   6.64060   6.72909   6.91936   6.96625
 Alpha virt. eigenvalues --    8.52573
          Condensed to atoms (all electrons):
               1          2          3          4          5
     1  C    4.309368   0.418202   0.418202   0.224621   0.224621
     2  H    0.418202   0.680328  -0.069795  -0.034935  -0.034935
     3  H    0.418202  -0.069795   0.680328  -0.034935  -0.034935
     4  O    0.224621  -0.034935  -0.034935   8.100343  -0.011465
     5  O    0.224621  -0.034935  -0.034935  -0.011465   8.100343
 Mulliken charges:
               1
     1  C    0.404985
     2  H    0.041136
     3  H    0.041136
     4  O   -0.243629
     5  O   -0.243629
 Sum of Mulliken charges =  -0.00000
 Mulliken charges with hydrogens summed into heavy atoms:
               1
     1  C    0.487257
     4  O   -0.243629
     5  O   -0.243629
 APT charges:
               1
     1  C    0.595958
     2  H   -0.011298
     3  H   -0.011298
     4  O   -0.286681
     5  O   -0.286681
 Sum of APT charges =  -0.00000
 APT charges with hydrogens summed into heavy atoms:
               1
     1  C    0.573362
     4  O   -0.286681
     5  O   -0.286681
 Electronic spatial extent (au):  <R**2>=            110.2598
 Charge=             -0.0000 electrons
 Dipole moment (field-independent basis, Debye):
    X=              0.0000    Y=             -0.0000    Z=              2.6203  Tot=              2.6203
 Quadrupole moment (field-independent basis, Debye-Ang):
   XX=            -16.7348   YY=            -18.0380   ZZ=            -15.8331
   XY=             -0.0000   XZ=             -0.0000   YZ=             -0.0000
 Traceless Quadrupole moment (field-independent basis, Debye-Ang):
   XX=              0.1338   YY=             -1.1694   ZZ=              1.0356
   XY=             -0.0000   XZ=             -0.0000   YZ=             -0.0000
 Octapole moment (field-independent basis, Debye-Ang**2):
  XXX=              0.0000  YYY=              0.0000  ZZZ=             -0.8765  XYY=              0.0000
  XXY=              0.0000  XXZ=              0.9852  XZZ=              0.0000  YZZ=             -0.0000
  YYZ=              0.3922  XYZ=             -0.0000
 Hexadecapole moment (field-independent basis, Debye-Ang**3):
 XXXX=            -21.4627 YYYY=            -48.4681 ZZZZ=            -55.1793 XXXY=             -0.0000
 XXXZ=             -0.0000 YYYX=             -0.0000 YYYZ=             -0.0000 ZZZX=             -0.0000
 ZZZY=             -0.0000 XXYY=            -13.1181 XXZZ=            -11.8251 YYZZ=            -18.2613
 XXYZ=             -0.0000 YYXZ=             -0.0000 ZZXY=             -0.0000
 N-N= 7.338426480694D+01 E-N=-5.936281856439D+02  KE= 1.891299650189D+02
 Symmetry A1   KE= 1.075320808343D+02
 Symmetry A2   KE= 5.489043946231D+00
 Symmetry B1   KE= 6.653269208892D+00
 Symmetry B2   KE= 6.945557102944D+01
  Exact polarizability:  16.563  -0.000  20.351   0.000  -0.000  22.117
 Approx polarizability:  20.484   0.000  36.771  -0.000   0.000  30.399
 Calling FoFJK, ICntrl=    100127 FMM=F ISym2X=1 I1Cent= 0 IOpClX= 0 NMat=1 NMatS=1 NMatT=0.
 Full mass-weighted force constant matrix:
 Low frequencies ---   -6.0967   -0.0020   -0.0016   -0.0016   10.8944   19.1663
 Low frequencies ---  814.9998  894.0703 1028.7359
 Diagonal vibrational polarizability:
        0.2265745       0.9125535       0.9602742
 Harmonic frequencies (cm**-1), IR intensities (KM/Mole), Raman scattering
 activities (A**4/AMU), depolarization ratios for plane and unpolarized
 incident light, reduced masses (AMU), force constants (mDyne/A),
 and normal coordinates:
                      1                      2                      3
                     A1                     B2                     A2
 Frequencies --    814.9998               894.0702              1028.7359
 Red. masses --     13.1249                 9.4131                 1.0981
 Frc consts  --      5.1364                 4.4333                 0.6847
 IR Inten    --      1.7387                25.6481                 0.0000
  Atom  AN      X      Y      Z        X      Y      Z        X      Y      Z
     1   6    -0.00   0.00  -0.41    -0.00   0.52   0.00     0.00   0.00   0.00
     2   1    -0.06   0.00  -0.26     0.00   0.43  -0.00     0.00   0.70  -0.00
     3   1     0.06  -0.00  -0.26     0.00   0.43   0.00    -0.00  -0.70  -0.00
     4   8     0.00   0.56   0.17    -0.00  -0.22   0.37     0.05  -0.00   0.00
     5   8    -0.00  -0.56   0.17     0.00  -0.22  -0.37    -0.05   0.00  -0.00
                      4                      5                      6
                     B1                     B2                     A1
 Frequencies --   1179.7554              1261.6164              1308.7475
 Red. masses --      1.2980                 1.2252                 5.2805
 Frc consts  --      1.0644                 1.1490                 5.3289
 IR Inten    --      7.9439                 2.9034                47.4315
  Atom  AN      X      Y      Z        X      Y      Z        X      Y      Z
     1   6     0.15  -0.00   0.00    -0.00  -0.13   0.00    -0.00   0.00   0.43
     2   1    -0.24   0.00   0.65     0.00   0.70  -0.00    -0.08  -0.00   0.57
     3   1    -0.24   0.00  -0.65     0.00   0.70   0.00     0.08  -0.00   0.57
     4   8    -0.04  -0.00   0.00     0.00   0.01   0.02     0.00   0.19  -0.20
     5   8    -0.04  -0.00  -0.00     0.00   0.01  -0.02    -0.00  -0.19  -0.20
                      7                      8                      9
                     A1                     A1                     B1
 Frequencies --   1547.7609              3060.0407              3154.0618
 Red. masses --      1.1593                 1.0460                 1.1228
 Frc consts  --      1.6362                 5.7711                 6.5811
 IR Inten    --      3.6297                36.1272                26.9770
  Atom  AN      X      Y      Z        X      Y      Z        X      Y      Z
     1   6     0.00  -0.00  -0.11     0.00  -0.00  -0.06    -0.10   0.00  -0.00
     2   1    -0.40   0.00   0.58     0.61   0.00   0.35     0.60   0.00   0.36
     3   1     0.40   0.00   0.58    -0.61   0.00   0.35     0.60   0.00  -0.36
     4   8     0.00  -0.02   0.01    -0.00  -0.00  -0.00     0.00  -0.00   0.00
     5   8    -0.00   0.02   0.01     0.00   0.00  -0.00     0.00  -0.00  -0.00

 -------------------
 - Thermochemistry -
 -------------------
 Temperature   298.150 Kelvin.  Pressure   1.00000 Atm.
 Atom     1 has atomic number  6 and mass  12.00000
 Atom     2 has atomic number  1 and mass   1.00783
 Atom     3 has atomic number  1 and mass   1.00783
 Atom     4 has atomic number  8 and mass  15.99491
 Atom     5 has atomic number  8 and mass  15.99491
 Molecular mass:    46.00548 amu.
 Principal axes and moments of inertia in atomic units:
                           1         2         3
     Eigenvalues --    62.49184  70.32067 120.47522
           X           -0.00000   0.00000   1.00000
           Y            1.00000   0.00000   0.00000
           Z           -0.00000   1.00000   0.00000
 This molecule is an asymmetric top.
 Rotational symmetry number  2.
 Rotational temperatures (Kelvin)      1.38600     1.23170     0.71894
 Rotational constants (GHZ):          28.87963    25.66445    14.98019
 Zero-point vibrational energy      85232.7 (Joules/Mol)
                                   20.37110 (Kcal/Mol)
 Vibrational temperatures:   1172.60  1286.37  1480.12  1697.40  1815.18
          (Kelvin)           1883.00  2226.88  4402.72  4537.99
 
 Zero-point correction=                           0.032463 (Hartree/Particle)
 Thermal correction to Energy=                    0.035504
 Thermal correction to Enthalpy=                  0.036449
 Thermal correction to Gibbs Free Energy=         0.009148
 Sum of electronic and zero-point Energies=           -189.668292
 Sum of electronic and thermal Energies=              -189.665251
 Sum of electronic and thermal Enthalpies=            -189.664307
 Sum of electronic and thermal Free Energies=         -189.691607
 
                     E (Thermal)             CV                S
                      KCal/Mol        Cal/Mol-Kelvin    Cal/Mol-Kelvin
 Total                   22.279              8.037             57.459
 Electronic               0.000              0.000              0.000
 Translational            0.889              2.981             37.404
 Rotational               0.889              2.981             19.521
 Vibrational             20.502              2.075              0.535
                       Q            Log10(Q)             Ln(Q)
 Total Bot       0.619777D-04         -4.207765         -9.688736
 Total V=0       0.530094D+11         10.724353         24.693735
 Vib (Bot)       0.122701D-14        -14.911150        -34.334193
 Vib (V=0)       0.104946D+01          0.020967          0.048279
 Electronic      0.100000D+01          0.000000          0.000000
 Translational   0.122650D+08          7.088668         16.322262
 Rotational      0.411830D+04          3.614718          8.323195
 ***** Axes restored to original set *****
 -------------------------------------------------------------------
 Center     Atomic                   Forces (Hartrees/Bohr)
 Number     Number              X              Y              Z
 -------------------------------------------------------------------
      1        6          -0.000000000    0.000000000    0.000119232
      2        1          -0.000040711    0.000000000   -0.000004698
      3        1           0.000040711   -0.000000000   -0.000004698
      4        8          -0.000000000   -0.000298647   -0.000054918
      5        8           0.000000000    0.000298647   -0.000054918
 -------------------------------------------------------------------
 Cartesian Forces:  Max     0.000298647 RMS     0.000116042
 FormGI is forming the generalized inverse of G from B-inverse, IUseBI=4.

 GradGradGradGradGradGradGradGradGradGradGradGradGradGradGradGradGradGrad
 Berny optimization.
 Internal  Forces:  Max     0.000298635 RMS     0.000088648
 Search for a local minimum.
 Step number   1 out of a maximum of    2
 All quantities printed in internal units (Hartrees-Bohrs-Radians)
 Second derivative matrix not updated -- analytic derivatives used.
 The second derivative matrix:
                          R1        R2        R3        R4        R5
           R1           0.34139
           R2           0.00291   0.34139
           R3           0.01143   0.01143   0.32766
           R4           0.01143   0.01143   0.02049   0.32558
           R5          -0.00314  -0.00314   0.01152   0.01345   0.19796
           A1           0.00282   0.00282  -0.02894  -0.03227   0.02532
           A2           0.00192  -0.00136   0.03035   0.02146  -0.02495
           A3           0.00271  -0.00334   0.01809   0.02920  -0.02173
           A4          -0.00136   0.00192   0.03035   0.02146  -0.02495
           A5          -0.00334   0.00271   0.01809   0.02920  -0.02173
           D1          -0.00606  -0.00606  -0.03612  -0.00369   0.02684
           D2           0.00430   0.00430  -0.00013   0.02655  -0.01735
           D3           0.00121   0.00309  -0.00006   0.01327  -0.00867
           D4          -0.00309  -0.00121   0.00006  -0.01327   0.00867
                          A1        A2        A3        A4        A5
           A1           0.03172
           A2          -0.01575   0.02810
           A3          -0.01795   0.01688   0.08709
           A4          -0.01575  -0.00469   0.00005   0.02810
           A5          -0.01795   0.00005  -0.06178   0.01688   0.08709
           D1          -0.01218  -0.00544   0.00823  -0.00544   0.00823
           D2           0.00567  -0.00414   0.00416  -0.00414   0.00416
           D3           0.00283  -0.01840   0.01600   0.01426  -0.01184
           D4          -0.00283  -0.01426   0.01184   0.01840  -0.01600
                          D1        D2        D3        D4
           D1           0.03862
           D2           0.00176   0.02277
           D3           0.00088   0.01139   0.02905
           D4          -0.00088  -0.01139   0.01766   0.02905
 ITU=  0
     Eigenvalues ---    0.03928   0.06050   0.07174   0.15638   0.22016
     Eigenvalues ---    0.31095   0.33246   0.33873   0.38537
 Angle between quadratic step and forces=  14.95 degrees.
 Linear search not attempted -- first point.
 Iteration  1 RMS(Cart)=  0.00030950 RMS(Int)=  0.00000006
 Iteration  2 RMS(Cart)=  0.00000004 RMS(Int)=  0.00000002
 ClnCor:  largest displacement from symmetrization is 1.25D-08 for atom     1.
 Variable       Old X    -DE/DX   Delta X   Delta X   Delta X     New X
                                 (Linear)    (Quad)   (Total)
    R1        2.05591  -0.00004   0.00000  -0.00014  -0.00014   2.05577
    R2        2.05591  -0.00004   0.00000  -0.00014  -0.00014   2.05577
    R3        2.62086   0.00005   0.00000   0.00013   0.00013   2.62099
    R4        2.62086   0.00005   0.00000   0.00013   0.00013   2.62099
    R5        2.83223  -0.00030   0.00000  -0.00139  -0.00139   2.83084
    A1        2.03543  -0.00004   0.00000   0.00003   0.00003   2.03546
    A2        2.02865   0.00004   0.00000   0.00010   0.00010   2.02875
    A3        2.02865   0.00004   0.00000   0.00010   0.00010   2.02875
    A4        2.02865   0.00004   0.00000   0.00010   0.00010   2.02875
    A5        2.02865   0.00004   0.00000   0.00010   0.00010   2.02875
    D1       -2.49766  -0.00005   0.00000  -0.00035  -0.00035  -2.49801
    D2        2.49766   0.00004   0.00000   0.00035   0.00035   2.49801
    D3       -1.89276   0.00002   0.00000   0.00017   0.00017  -1.89259
    D4        1.89276  -0.00002   0.00000  -0.00017  -0.00017   1.89259
         Item               Value     Threshold  Converged?
 Maximum Force            0.000299     0.000450     YES
 RMS     Force            0.000089     0.000300     YES
 Maximum Displacement     0.000697     0.001800     YES
 RMS     Displacement     0.000309     0.001200     YES
 Predicted change in Energy=-2.459124D-07
 Optimization completed.
    -- Stationary point found.
                           ----------------------------
                           !   Optimized Parameters   !
                           ! (Angstroms and Degrees)  !
 --------------------------                            --------------------------
 ! Name  Definition              Value          Derivative Info.                !
 --------------------------------------------------------------------------------
 ! R1    R(1,2)                  1.0879         -DE/DX =    0.0                 !
 ! R2    R(1,3)                  1.0879         -DE/DX =    0.0                 !
 ! R3    R(1,4)                  1.3869         -DE/DX =    0.0                 !
 ! R4    R(1,5)                  1.3869         -DE/DX =    0.0                 !
 ! R5    R(4,5)                  1.4988         -DE/DX =   -0.0003              !
 ! A1    A(2,1,3)              116.6216         -DE/DX =    0.0                 !
 ! A2    A(2,1,4)              116.2333         -DE/DX =    0.0                 !
 ! A3    A(2,1,5)              116.2333         -DE/DX =    0.0                 !
 ! A4    A(3,1,4)              116.2333         -DE/DX =    0.0                 !
 ! A5    A(3,1,5)              116.2333         -DE/DX =    0.0                 !
 ! D1    D(2,1,4,3)           -143.1056         -DE/DX =   -0.0001              !
 ! D2    D(2,1,5,3)            143.1056         -DE/DX =    0.0                 !
 ! D3    D(2,1,5,4)           -108.4472         -DE/DX =    0.0                 !
 ! D4    D(3,1,5,4)            108.4472         -DE/DX =    0.0                 !
 --------------------------------------------------------------------------------
 GradGradGradGradGradGradGradGradGradGradGradGradGradGradGradGradGradGrad


 ----------------------------------------------------------------------

 Electric dipole moment (input orientation):
 (Debye = 10**-18 statcoulomb cm , SI units = C m)
                  (au)            (Debye)         (10**-30 SI)
   Tot        0.103090D+01      0.262027D+01      0.874029D+01
   x          0.000000D+00      0.000000D+00      0.000000D+00
   y          0.000000D+00      0.000000D+00      0.000000D+00
   z          0.103090D+01      0.262027D+01      0.874029D+01

 Dipole polarizability, Alpha (input orientation).
 (esu units = cm**3 , SI units = C**2 m**2 J**-1)
 Alpha(0;0):
               (au)            (10**-24 esu)      (10**-40 SI)
   iso        0.196770D+02      0.291582D+01      0.324429D+01
   aniso      0.491463D+01      0.728272D+00      0.810312D+00
   xx         0.165633D+02      0.245442D+01      0.273091D+01
   yx         0.000000D+00      0.000000D+00      0.000000D+00
   yy         0.203507D+02      0.301566D+01      0.335537D+01
   zx         0.000000D+00      0.000000D+00      0.000000D+00
   zy         0.000000D+00      0.000000D+00      0.000000D+00
   zz         0.221169D+02      0.327739D+01      0.364659D+01

 ----------------------------------------------------------------------

 Dipole orientation:
     6         -0.00000000          0.00000000          1.38022762
     1          1.74939317          0.00000000          2.46021932
     1         -1.74939317          0.00000000          2.46021932
     8          0.00000000          1.41611729         -0.82511301
     8         -0.00000000         -1.41611729         -0.82511301

 Electric dipole moment (dipole orientation):
 (Debye = 10**-18 statcoulomb cm , SI units = C m)
                  (au)            (Debye)         (10**-30 SI)
   Tot        0.103090D+01      0.262027D+01      0.874029D+01
   x          0.000000D+00      0.000000D+00      0.000000D+00
   y          0.000000D+00      0.000000D+00      0.000000D+00
   z          0.103090D+01      0.262027D+01      0.874029D+01

 Dipole polarizability, Alpha (dipole orientation).
 (esu units = cm**3 , SI units = C**2 m**2 J**-1)
 Alpha(0;0):
               (au)            (10**-24 esu)      (10**-40 SI)
   iso        0.196770D+02      0.291582D+01      0.324429D+01
   aniso      0.491463D+01      0.728272D+00      0.810312D+00
   xx         0.165633D+02      0.245442D+01      0.273091D+01
   yx         0.000000D+00      0.000000D+00      0.000000D+00
   yy         0.203507D+02      0.301566D+01      0.335537D+01
   zx         0.000000D+00      0.000000D+00      0.000000D+00
   zy         0.000000D+00      0.000000D+00      0.000000D+00
   zz         0.221169D+02      0.327739D+01      0.364659D+01

 ----------------------------------------------------------------------
 1\1\GINC-GAMBA\Freq\RB3LYP\Gen\C1H2O2\IRIKURA\30-Sep-2023\0\\#N Geom=A
 llCheck Guess=TCheck SCRF=Check GenChk RB3LYP/ChkBas Freq\\dioxirane, 
 B3LYP/pcseg-2\\0,1\C,0.,0.,0.730385\H,0.925739,0.,1.301892\H,-0.925739
 ,0.,1.301892\O,0.,0.749377,-0.436631\O,0.,-0.749377,-0.436631\\Version
 =ES64L-G16RevB.01\State=1-A1\HF=-189.7007551\RMSD=9.881e-10\RMSF=1.160
 e-04\ZeroPoint=0.0324634\Thermal=0.0355044\Dipole=0.,0.,1.0308953\Dipo
 leDeriv=0.6278432,0.,0.,0.,0.40128,0.,0.,0.,0.7587498,-0.0721296,0.,-0
 .1000818,0.,0.0797705,0.,-0.0343596,0.,-0.0415342,-0.0721295,0.,0.1000
 818,0.,0.0797705,0.,0.0343596,0.,-0.0415342,-0.2417921,0.,0.,0.,-0.280
 4105,0.2129685,0.,0.133539,-0.3378407,-0.2417921,0.,0.,0.,-0.2804105,-
 0.2129685,0.,-0.133539,-0.3378407\Polar=16.5632728,0.,20.3506579,0.,0.
 ,22.1169285\Quadrupole=0.0994778,-0.8693867,0.769909,0.,0.,0.\PG=C02V 
 [C2(C1),SGV(O2),SGV'(H2)]\NImag=0\\0.63344010,0.,0.25232767,0.,0.,0.68
 116983,-0.26754584,0.,-0.10938509,0.26731441,0.,-0.04744758,0.,0.,0.04
 349757,-0.10314033,0.,-0.10818419,0.12332797,0.,0.13619676,-0.26754584
 ,0.,0.10938509,-0.01535167,0.,0.01257180,0.26731441,0.,-0.04744758,0.,
 0.,0.00667112,0.,0.,0.04349757,0.10314033,0.,-0.10818419,-0.01257180,0
 .,0.01097640,-0.12332797,0.,0.13619676,-0.04917421,0.,0.,0.00779155,0.
 02272800,-0.01637972,0.00779155,-0.02272800,0.01637972,0.04497128,0.,-
 0.07871626,0.14637645,0.00062258,-0.00136056,0.00120575,-0.00062258,-0
 .00136056,0.00120575,0.,0.31855004,0.,0.08644985,-0.23240072,-0.000685
 54,0.02124478,-0.01949449,0.00068555,0.02124478,-0.01949449,0.,-0.1388
 6369,0.25239235,-0.04917421,0.,0.,0.00779155,-0.02272800,-0.01637972,0
 .00779155,0.02272800,0.01637972,-0.01138017,0.,0.,0.04497128,0.,-0.078
 71626,-0.14637645,-0.00062258,-0.00136056,-0.00120575,0.00062258,-0.00
 136056,-0.00120575,0.,-0.23711266,0.00992427,0.,0.31855004,0.,-0.08644
 985,-0.23240072,-0.00068555,-0.02124478,-0.01949449,0.00068554,-0.0212
 4478,-0.01949449,0.,-0.00992427,0.01899735,0.,0.13886369,0.25239235\\0
 .,0.,-0.00011923,0.00004071,0.,0.00000470,-0.00004071,0.,0.00000470,0.
 ,0.00029865,0.00005492,0.,-0.00029865,0.00005492\\\@


 ... A MOLECULAR SYSTEM ... (PASSES) ... FROM ONE STATE OF EQUILIBRIUM 
 TO ANOTHER ... BY MEANS OF ALL POSSIBLE INTERMEDIATE PATHS, 
 BUT THE PATH MOST ECONOMICAL OF ENERGY WILL BE THE MORE OFTEN TRAVELED.

                      -- HENRY EYRING, 1945
 Job cpu time:       0 days  0 hours  2 minutes 20.6 seconds.
 Elapsed time:       0 days  0 hours  0 minutes 35.2 seconds.
 File lengths (MBytes):  RWF=     10 Int=      0 D2E=      0 Chk=      2 Scr=      1
 Normal termination of Gaussian 16 at Sat Sep 30 01:31:33 2023.
 AtFile(1): ccpvtz-f12.gbs
            -H     0
            S    3   1.00
                 82.6400000              0.0020060
                 12.4100000              0.0153430
                  2.8240000              0.0755790
            S    1   1.00
                  0.7977000              1.0000000
            S    1   1.00
                  0.2581000              1.0000000
            S    1   1.00
                  0.0898900              1.0000000
            P    1   1.00
                  1.5513000              1.0000000
            P    1   1.00
                  0.5580000              1.0000000
            P    1   1.00
                  0.2007000              1.0000000
            D    1   1.00
                  0.4648000              1.0000000
            ****
            -He     0
            S    4   1.00
                528.5000000              0.0009400
                 79.3100000              0.0072140
                 18.0500000              0.0359750
                  5.0850000              0.1277820
            S    1   1.00
                  1.6090000              1.0000000
            S    1   1.00
                  0.5363000              1.0000000
            S    1   1.00
                  0.1833000              1.0000000
            S    1   1.00
                  0.0481900              1.0000000
            P    1   1.00
                  3.7026000              1.0000000
            P    1   1.00
                  1.2284000              1.0000000
            P    1   1.00
                  0.4075000              1.0000000
            D    1   1.00
[...]
                30-Sep-2023 
 ******************************************
 %chk=dioxirane.chk
 %mem=500mw
 %nprocs=4
 Will use up to    4 processors via shared memory.
 ---------------------------------
 # rohf/gen geom=check guess=check
 ---------------------------------
 1/29=2,38=1,172=1/1;
 2/12=2,40=1/2;
 3/5=7,11=2,14=-4,25=1,30=1,116=101/1,2,3;
 4/5=1/1;
 5/5=2,38=6/2;
 6/7=2,8=2,9=2,10=2,28=1/1;
 99/5=1,9=1/99;
 ---------------------------
 dioxirane, ROHF/cc-pVTZ-F12
 ---------------------------
 Structure from the checkpoint file:  "dioxirane.chk"
 Charge =  0 Multiplicity = 1
 Redundant internal coordinates found in file.  (old form).
 C,0,0.,0.,0.730385
 H,0,0.925739,0.,1.301892
 H,0,-0.925739,0.,1.301892
 O,0,0.,0.749377,-0.436631
 O,0,0.,-0.749377,-0.436631
 Recover connectivity data from disk.
                           ----------------------------
                           !    Current Parameters    !
                           ! (Angstroms and Degrees)  !
 --------------------------                            --------------------------
 ! Name  Definition              Value                                          !
 --------------------------------------------------------------------------------
 ! R1    R(1,2)                  1.0879                                         !
 ! R2    R(1,3)                  1.0879                                         !
 ! R3    R(1,4)                  1.3869                                         !
 ! R4    R(1,5)                  1.3869                                         !
 ! R5    R(4,5)                  1.4988                                         !
 ! A1    A(2,1,3)              116.6216                                         !
 ! A2    A(2,1,4)              116.2333                                         !
 ! A3    A(2,1,5)              116.2333                                         !
 ! A4    A(3,1,4)              116.2333                                         !
 ! A5    A(3,1,5)              116.2333                                         !
 ! D1    D(2,1,4,3)           -143.1056                                         !
 ! D2    D(2,1,5,3)            143.1056                                         !
 ! D3    D(2,1,5,4)           -108.4472                                         !
 ! D4    D(3,1,5,4)            108.4472                                         !
 --------------------------------------------------------------------------------
                          Input orientation:                          
 ---------------------------------------------------------------------
 Center     Atomic      Atomic             Coordinates (Angstroms)
 Number     Number       Type             X           Y           Z
 ---------------------------------------------------------------------
      1          6           0        0.000000    0.000000    0.730385
      2          1           0        0.925739    0.000000    1.301892
      3          1           0       -0.925739    0.000000    1.301892
      4          8           0        0.000000    0.749377   -0.436631
      5          8           0       -0.000000   -0.749377   -0.436631
 ---------------------------------------------------------------------
                    Distance matrix (angstroms):
                    1          2          3          4          5
     1  C    0.000000
     2  H    1.087940   0.000000
     3  H    1.087940   1.851478   0.000000
     4  O    1.386900   2.107373   2.107373   0.000000
     5  O    1.386900   2.107373   2.107373   1.498754   0.000000
 Stoichiometry    CH2O2
 Framework group  C2V[C2(C),SGV(O2),SGV'(H2)]
 Deg. of freedom     4
 Full point group                 C2V     NOp   4
 Largest Abelian subgroup         C2V     NOp   4
 Largest concise Abelian subgroup C2V     NOp   4
                         Standard orientation:                         
 ---------------------------------------------------------------------
 Center     Atomic      Atomic             Coordinates (Angstroms)
 Number     Number       Type             X           Y           Z
 ---------------------------------------------------------------------
      1          6           0       -0.000000    0.000000    0.730385
      2          1           0        0.925739   -0.000000    1.301892
      3          1           0       -0.925739    0.000000    1.301892
      4          8           0       -0.000000    0.749377   -0.436631
      5          8           0       -0.000000   -0.749377   -0.436631
 ---------------------------------------------------------------------
 Rotational constants (GHZ):          28.8796308          25.6644469          14.9801866
 General basis read from cards:  (5D, 7F)
 There are    83 symmetry adapted cartesian basis functions of A1  symmetry.
 There are    30 symmetry adapted cartesian basis functions of A2  symmetry.
 There are    49 symmetry adapted cartesian basis functions of B1  symmetry.
 There are    62 symmetry adapted cartesian basis functions of B2  symmetry.
 There are    70 symmetry adapted basis functions of A1  symmetry.
 There are    28 symmetry adapted basis functions of A2  symmetry.
 There are    44 symmetry adapted basis functions of B1  symmetry.
 There are    53 symmetry adapted basis functions of B2  symmetry.
   195 basis functions,   276 primitive gaussians,   224 cartesian basis functions
    12 alpha electrons       12 beta electrons
       nuclear repulsion energy        73.3842648069 Hartrees.
 NAtoms=    5 NActive=    5 NUniq=    3 SFac= 2.78D+00 NAtFMM=   60 NAOKFM=F Big=F
 Integral buffers will be    131072 words long.
 Raffenetti 2 integral format.
 Two-electron integral symmetry is turned on.
 One-electron integrals computed using PRISM.
 NBasis=   195 RedAO= T EigKep=  1.24D-04  NBF=    70    28    44    53
 NBsUse=   195 1.00D-06 EigRej= -1.00D+00 NBFU=    70    28    44    53
 Initial guess from the checkpoint file:  "dioxirane.chk"
 B after Tr=     0.000000   -0.000000   -0.000000
         Rot=    1.000000    0.000000    0.000000   -0.000000 Ang=   0.00 deg.
 Initial guess orbital symmetries:
       Occupied  (A1) (B2) (A1) (A1) (B2) (A1) (B1) (A1) (A1) (B2)
                 (B1) (A2)
       Virtual   (B2) (A1) (B2) (B1) (A1) (B2) (A1) (B1) (A1) (A1)
                 (B2) (B1) (A1) (A2) (A1) (B1) (B2) (A2) (B2) (A1)
                 (A1) (B1) (A1) (B2) (B1) (A1) (B1) (A2) (B2) (B1)
                 (B2) (A1) (A1) (B1) (A1) (B2) (A1) (A2) (A2) (A1)
                 (B2) (B1) (B2) (A1) (A1) (B1) (A2) (A1) (B1) (B2)
                 (B2) (A1) (A1) (B1) (B2) (B1) (A2) (B2) (A1) (B1)
                 (A1) (B1) (A2) (A1) (B2) (A2) (B1) (A1) (A1) (B2)
                 (A2) (A1) (B2) (B1) (A1) (A2) (B2) (B1) (B2) (B2)
                 (B1) (A2) (A1) (A2) (A1) (B2) (A1) (A1) (B1) (B1)
                 (A2) (B2) (A1) (A1) (B1) (B2) (A1) (B1) (A2) (B2)
                 (A1) (A2) (B1) (A1) (B2) (B2) (A1) (A1) (A1) (A1)
                 (A1) (A1) (A1) (A1) (A1) (A1) (A1) (A1) (A1) (A1)
                 (A1) (A1) (A1) (A1) (A1) (A1) (A1) (A1) (A1) (A1)
                 (A1) (A1) (A1) (A2) (A2) (A2) (A2) (A2) (A2) (A2)
                 (A2) (A2) (A2) (A2) (B1) (B1) (B1) (B1) (B1) (B1)
                 (B1) (B1) (B1) (B1) (B1) (B1) (B1) (B1) (B1) (B1)
                 (B1) (B2) (B2) (B2) (B2) (B2) (B2) (B2) (B2) (B2)
                 (B2) (B2) (B2) (B2) (B2) (B2) (B2) (B2) (B2) (B2)
                 (B2) (B2) (B2)
 Keep R1 and R2 ints in memory in symmetry-blocked form, NReq=228606574.
 Requested convergence on RMS density matrix=1.00D-08 within 128 cycles.
 Requested convergence on MAX density matrix=1.00D-06.
 Requested convergence on             energy=1.00D-06.
 No special actions if energy rises.
 SCF Done:  E(ROHF) =  -188.691925805     A.U. after   11 cycles
            NFock= 11  Conv=0.49D-08     -V/T= 2.0014
 <Sx>= 0.0000 <Sy>= 0.0000 <Sz>= 0.0000 <S**2>=-0.0000 S=-0.0000
 <L.S>=  0.00000000000    
 Annihilation of the first spin contaminant:
 S**2 before annihilation    -0.0000,   after     0.0000

 **********************************************************************

            Population analysis using the SCF Density.

 **********************************************************************

 Orbital symmetries:
       Occupied  (A1) (B2) (A1) (A1) (B2) (A1) (B1) (A1) (B2) (A1)
                 (B1) (A2)
       Virtual   (A1) (B2) (B1) (A1) (B2) (A1) (B2) (A1) (A2) (B1)
                 (B2) (B1) (A1) (B2) (A1) (A1) (B2) (B1) (A2) (A1)
                 (B2) (B1) (A1) (A1) (B1) (B2) (B2) (A1) (B1) (A1)
                 (A2) (A1) (B2) (A1) (B1) (A2) (A1) (A1) (B1) (B1)
                 (B2) (B2) (A1) (B2) (A2) (A1) (B1) (A1) (B1) (B2)
                 (A2) (A1) (B1) (B2) (A1) (B2) (A1) (B1) (B2) (A2)
                 (A1) (A2) (A1) (A1) (B1) (B2) (A2) (B1) (B1) (A1)
                 (B2) (A2) (A1) (B1) (A1) (B2) (A1) (B2) (A2) (B1)
                 (B2) (A1) (B1) (B1) (B2) (A1) (A2) (A1) (B1) (B2)
                 (A1) (A2) (A1) (B1) (B2) (A2) (B2) (A1) (A1) (B1)
                 (A1) (A2) (B2) (B1) (A1) (B2) (B1) (A2) (B2) (A1)
                 (B2) (A2) (B1) (A1) (A1) (B2) (B1) (B2) (A1) (B2)
                 (A1) (A2) (B1) (A1) (B2) (A2) (B1) (A1) (B2) (A1)
                 (B1) (B2) (A1) (B1) (A1) (B1) (A2) (B2) (A2) (B1)
                 (A1) (B1) (A1) (B2) (A2) (B2) (B2) (A1) (A2) (A1)
                 (B1) (A1) (B2) (A1) (B1) (A2) (A1) (B1) (B2) (B2)
                 (A1) (B1) (A1) (B2) (A2) (A1) (A2) (B1) (A1) (B2)
                 (B2) (B2) (B1) (A1) (A1) (A2) (A1) (B1) (B2) (B2)
                 (A1) (A1) (B2)
 The electronic state is 1-A1.
 Alpha  occ. eigenvalues --  -20.65034 -20.65009 -11.36930  -1.54975  -1.19253
 Alpha  occ. eigenvalues --   -0.93133  -0.75048  -0.69889  -0.57723  -0.57188
 Alpha  occ. eigenvalues --   -0.53021  -0.48784
 Alpha virt. eigenvalues --    0.04850   0.05578   0.06263   0.07697   0.13094
 Alpha virt. eigenvalues --    0.16049   0.17520   0.17764   0.17788   0.18329
 Alpha virt. eigenvalues --    0.21337   0.22438   0.23953   0.26350   0.28197
 Alpha virt. eigenvalues --    0.29335   0.37614   0.43766   0.45405   0.45961
 Alpha virt. eigenvalues --    0.48734   0.50668   0.55626   0.56849   0.63510
 Alpha virt. eigenvalues --    0.64345   0.70400   0.70975   0.71527   0.72047
 Alpha virt. eigenvalues --    0.72734   0.74472   0.77036   0.80990   0.88444
 Alpha virt. eigenvalues --    0.97445   1.00995   1.02107   1.04291   1.10188
 Alpha virt. eigenvalues --    1.11641   1.14598   1.30841   1.37588   1.38065
 Alpha virt. eigenvalues --    1.40338   1.44130   1.51405   1.52125   1.56487
 Alpha virt. eigenvalues --    1.60558   1.60867   1.64303   1.70715   1.73501
 Alpha virt. eigenvalues --    1.76019   1.79260   1.82310   1.82594   1.84017
 Alpha virt. eigenvalues --    1.87656   1.88233   1.88541   1.93310   1.98442
 Alpha virt. eigenvalues --    1.99312   2.05840   2.06136   2.14955   2.16953
 Alpha virt. eigenvalues --    2.17729   2.22915   2.23804   2.27822   2.35288
 Alpha virt. eigenvalues --    2.41321   2.48148   2.48583   2.52428   2.52463
 Alpha virt. eigenvalues --    2.66788   2.69192   2.73099   2.75207   2.78986
 Alpha virt. eigenvalues --    2.80767   2.88968   2.89097   3.02694   3.04744
 Alpha virt. eigenvalues --    3.06751   3.17235   3.19348   3.20752   3.28936
 Alpha virt. eigenvalues --    3.48577   3.50620   3.50971   3.55856   3.65491
 Alpha virt. eigenvalues --    3.66578   3.74439   3.84735   3.88004   3.92441
 Alpha virt. eigenvalues --    3.97257   3.98971   4.02929   4.08011   4.08934
 Alpha virt. eigenvalues --    4.14354   4.24332   4.32971   4.33708   4.54678
 Alpha virt. eigenvalues --    4.56498   4.77979   4.83146   4.90783   5.00724
 Alpha virt. eigenvalues --    5.08201   5.09670   5.14025   5.69317   5.77281
 Alpha virt. eigenvalues --    5.77688   5.91658   6.00544   6.12377   6.16037
 Alpha virt. eigenvalues --    6.32452   6.35022   6.66871   6.81678   6.82578
 Alpha virt. eigenvalues --    6.94160   6.99813   7.05166   7.09288   7.13116
 Alpha virt. eigenvalues --    7.14531   7.23273   7.24572   7.30745   7.32124
 Alpha virt. eigenvalues --    7.57047   7.75014   7.76378   8.16027   8.35621
 Alpha virt. eigenvalues --    8.79165   9.09338   9.18272   9.35488   9.45077
 Alpha virt. eigenvalues --   10.08533  10.24484  10.27446  10.55431  10.57440
 Alpha virt. eigenvalues --   10.75183  11.08678  11.16629  11.31416  11.34204
 Alpha virt. eigenvalues --   11.43147  11.47056  11.62102  12.13737  12.23474
 Alpha virt. eigenvalues --   12.48582  21.45432  21.50661  21.91571  23.22003
 Alpha virt. eigenvalues --   37.65150  37.73352  37.75557  37.95565  38.09036
 Alpha virt. eigenvalues --   38.15277  42.71889  43.28026
          Condensed to atoms (all electrons):
               1          2          3          4          5
     1  C    4.432817   0.445062   0.445062   0.169383   0.169383
     2  H    0.445062   0.532614  -0.041869  -0.029929  -0.029929
     3  H    0.445062  -0.041869   0.532614  -0.029929  -0.029929
     4  O    0.169383  -0.029929  -0.029929   8.114902   0.068772
     5  O    0.169383  -0.029929  -0.029929   0.068772   8.114902
          Atomic-Atomic Spin Densities.
               1          2          3          4          5
     1  C    0.000000   0.000000   0.000000   0.000000   0.000000
     2  H    0.000000   0.000000   0.000000   0.000000   0.000000
     3  H    0.000000   0.000000   0.000000   0.000000   0.000000
     4  O    0.000000   0.000000   0.000000   0.000000   0.000000
     5  O    0.000000   0.000000   0.000000   0.000000   0.000000
 Mulliken charges and spin densities:
               1          2
     1  C    0.338294   0.000000
     2  H    0.124052   0.000000
     3  H    0.124052   0.000000
     4  O   -0.293199   0.000000
     5  O   -0.293199   0.000000
 Sum of Mulliken charges =  -0.00000   0.00000
 Mulliken charges and spin densities with hydrogens summed into heavy atoms:
               1          2
     1  C    0.586397   0.000000
     4  O   -0.293199   0.000000
     5  O   -0.293199   0.000000
 Electronic spatial extent (au):  <R**2>=            109.8033
 Charge=             -0.0000 electrons
 Dipole moment (field-independent basis, Debye):
    X=             -0.0000    Y=              0.0000    Z=              2.9498  Tot=              2.9498
 Quadrupole moment (field-independent basis, Debye-Ang):
   XX=            -16.3999   YY=            -18.0842   ZZ=            -15.5078
   XY=             -0.0000   XZ=             -0.0000   YZ=             -0.0000
 Traceless Quadrupole moment (field-independent basis, Debye-Ang):
   XX=              0.2640   YY=             -1.4202   ZZ=              1.1561
   XY=             -0.0000   XZ=             -0.0000   YZ=             -0.0000
 Octapole moment (field-independent basis, Debye-Ang**2):
  XXX=              0.0000  YYY=             -0.0000  ZZZ=             -0.2661  XYY=              0.0000
  XXY=              0.0000  XXZ=              1.1980  XZZ=              0.0000  YZZ=             -0.0000
  YYZ=              0.4723  XYZ=             -0.0000
 Hexadecapole moment (field-independent basis, Debye-Ang**3):
 XXXX=            -19.7161 YYYY=            -47.8349 ZZZZ=            -53.3502 XXXY=             -0.0000
 XXXZ=             -0.0000 YYYX=             -0.0000 YYYZ=             -0.0000 ZZZX=             -0.0000
 ZZZY=              0.0000 XXYY=            -12.6757 XXZZ=            -10.9892 YYZZ=            -17.8144
 XXYZ=              0.0000 YYXZ=             -0.0000 ZZXY=             -0.0000
 N-N= 7.338426480694D+01 E-N=-5.926529205721D+02  KE= 1.884203036393D+02
 Symmetry A1   KE= 1.071373679524D+02
 Symmetry A2   KE= 5.393371541566D+00
 Symmetry B1   KE= 6.609521594599D+00
 Symmetry B2   KE= 6.928004255071D+01
 Symmetry A1   SP= 0.000000000000D+00
 Symmetry A2   SP= 0.000000000000D+00
 Symmetry B1   SP= 0.000000000000D+00
 Symmetry B2   SP= 0.000000000000D+00
                          Isotropic Fermi Contact Couplings
        Atom                 a.u.       MegaHertz       Gauss      10(-4) cm-1
     1  C(13)              0.00000       0.00000       0.00000       0.00000
     2  H(1)               0.00000       0.00000       0.00000       0.00000
     3  H(1)               0.00000       0.00000       0.00000       0.00000
     4  O(17)              0.00000      -0.00000      -0.00000      -0.00000
     5  O(17)              0.00000      -0.00000      -0.00000      -0.00000
 --------------------------------------------------------
       Center         ----  Spin Dipole Couplings  ----
                      3XX-RR        3YY-RR        3ZZ-RR
 --------------------------------------------------------
     1   Atom        0.000000      0.000000      0.000000
     2   Atom        0.000000      0.000000      0.000000
     3   Atom        0.000000      0.000000      0.000000
     4   Atom        0.000000      0.000000      0.000000
     5   Atom        0.000000      0.000000      0.000000
 --------------------------------------------------------
                        XY            XZ            YZ
 --------------------------------------------------------
     1   Atom        0.000000      0.000000      0.000000
     2   Atom        0.000000      0.000000      0.000000
     3   Atom        0.000000      0.000000      0.000000
     4   Atom        0.000000      0.000000      0.000000
     5   Atom        0.000000      0.000000      0.000000
 --------------------------------------------------------


 ---------------------------------------------------------------------------------
              Anisotropic Spin Dipole Couplings in Principal Axis System
 ---------------------------------------------------------------------------------

       Atom             a.u.   MegaHertz   Gauss  10(-4) cm-1        Axes

              Baa     0.0000     0.000     0.000     0.000  1.0000  0.0000  0.0000
     1 C(13)  Bbb     0.0000     0.000     0.000     0.000 -0.0000  1.0000  0.0000
              Bcc     0.0000     0.000     0.000     0.000  0.0000  0.0000  1.0000
 
              Baa     0.0000     0.000     0.000     0.000  1.0000  0.0000  0.0000
     2 H(1)   Bbb     0.0000     0.000     0.000     0.000 -0.0000  1.0000  0.0000
              Bcc     0.0000     0.000     0.000     0.000  0.0000  0.0000  1.0000
 
              Baa     0.0000     0.000     0.000     0.000  1.0000  0.0000  0.0000
     3 H(1)   Bbb     0.0000     0.000     0.000     0.000 -0.0000  1.0000  0.0000
              Bcc     0.0000     0.000     0.000     0.000  0.0000  0.0000  1.0000
 
              Baa     0.0000    -0.000    -0.000    -0.000  1.0000  0.0000  0.0000
     4 O(17)  Bbb     0.0000    -0.000    -0.000    -0.000 -0.0000  1.0000  0.0000
              Bcc     0.0000    -0.000    -0.000    -0.000  0.0000  0.0000  1.0000
 
              Baa     0.0000    -0.000    -0.000    -0.000  1.0000  0.0000  0.0000
     5 O(17)  Bbb     0.0000    -0.000    -0.000    -0.000 -0.0000  1.0000  0.0000
              Bcc     0.0000    -0.000    -0.000    -0.000  0.0000  0.0000  1.0000
 

 ---------------------------------------------------------------------------------

 1\1\GINC-GAMBA\SP\ROHF\Gen\C1H2O2\IRIKURA\30-Sep-2023\0\\# rohf/gen ge
 om=check guess=check\\dioxirane, ROHF/cc-pVTZ-F12\\0,1\C,0,0.,0.,0.730
 385\H,0,0.925739,0.,1.301892\H,0,-0.925739,0.,1.301892\O,0,0.,0.749377
 ,-0.436631\O,0,0.,-0.749377,-0.436631\\Version=ES64L-G16RevB.01\State=
 1-A1\HF=-188.6919258\RMSD=4.900e-09\Dipole=0.,0.,1.1605276\Quadrupole=
 0.1963102,-1.0558633,0.8595532,0.,0.,0.\PG=C02V [C2(C1),SGV(O2),SGV'(H
 2)]\\@


 THERE IS MORE TO LIFE THAN INCREASING ITS SPEED.

                                       -- GANDHI
 Job cpu time:       0 days  0 hours  0 minutes 26.2 seconds.
 Elapsed time:       0 days  0 hours  0 minutes  6.7 seconds.
 File lengths (MBytes):  RWF=     21 Int=      0 D2E=      0 Chk=      4 Scr=      1
 Normal termination of Gaussian 16 at Sat Sep 30 01:31:40 2023.
