 Entering Gaussian System, Link 0=g16
 AtFile(1): pcseg2.gbs
            -H     0
            S   4   1.00
                  0.754732D+02           0.427821D-02
                  0.113575D+02           0.328672D-01
                  0.260081D+01           0.159578D+00
                  0.735503D+00           0.500000D+00
            S   1   1.00
                  0.231761D+00           1.0000000
            S   1   1.00
                  0.741675D-01           1.0000000
            P   1   1.00
                  0.160000D+01           1.0000000
            P   1   1.00
                  0.450000D+00           1.0000000
            D   1   1.00
                  0.125000D+01           1.0000000
            ****
            -C     0
            S   7   1.00
                  0.731999D+04           0.695369D-03
                  0.109818D+04           0.537138D-02
                  0.250014D+03           0.274734D-01
                  0.707586D+02           0.105078D+00
                  0.228595D+02           0.291262D+00
                  0.803936D+01           0.500000D+00
                  0.289309D+01           0.362224D+00
            S   2   1.00
                  0.521640D+01          -0.957844D-01
                  0.556124D+00           0.500000D+00
            S   1   1.00
                  0.228813D+00           1.0000000
            S   1   1.00
                  0.936338D-01           1.0000000
            P   4   1.00
                  0.339855D+02           0.818395D-02
                  0.772957D+01           0.586921D-01
                  0.224954D+01           0.222514D+00
                  0.767681D+00           0.500000D+00
            P   1   1.00
                  0.263283D+00           1.0000000
            P   1   1.00
                  0.848744D-01           1.0000000
            D   1   1.00
                  0.140000D+01           1.0000000
            D   1   1.00
                  0.450000D+00           1.0000000
            F   1   1.00
                  0.950000D+00           1.0000000
            ****
            -O     0
            S   7   1.00
                  0.135887D+05           0.665492D-03
                  0.203847D+04           0.514222D-02
                  0.464041D+03           0.263472D-01
                  0.131339D+03           0.101500D+00
                  0.425340D+02           0.285877D+00
                  0.150429D+02           0.500000D+00
                  0.546616D+01           0.368211D+00
            S   2   1.00
                  0.100915D+02          -0.100084D+00
                  0.110429D+01           0.500000D+00
            S   1   1.00
                  0.448082D+00           1.0000000
            S   1   1.00
                  0.175325D+00           1.0000000
            P   4   1.00
                  0.608220D+02           0.908253D-02
                  0.140332D+02           0.645878D-01
                  0.418244D+01           0.241502D+00
                  0.142490D+01           0.500000D+00
            P   1   1.00
                  0.478741D+00           1.0000000
            P   1   1.00
                  0.146257D+00           1.0000000
            D   1   1.00
                  0.220000D+01           1.0000000
            D   1   1.00
                  0.650000D+00           1.0000000
            F   1   1.00
                  0.110000D+01           1.0000000
            ****
            -N     0
            S   7   1.00
                  0.101643D+05           0.682757D-03
                  0.152481D+04           0.527488D-02
                  0.347119D+03           0.270037D-01
                  0.982389D+02           0.103673D+00
                  0.317799D+02           0.289575D+00
                  0.112240D+02           0.500000D+00
                  0.406611D+01           0.364621D+00
            S   2   1.00
                  0.747898D+01          -0.975681D-01
                  0.805040D+00           0.500000D+00
            S   1   1.00
                  0.324626D+00           1.0000000
            S   1   1.00
                  0.128132D+00           1.0000000
            P   4   1.00
                  0.482704D+02           0.829547D-02
                  0.110815D+02           0.596223D-01
                  0.326643D+01           0.227889D+00
                  0.111680D+01           0.500000D+00
            P   1   1.00
                  0.382049D+00           1.0000000
            P   1   1.00
                  0.121222D+00           1.0000000
            D   1   1.00
                  0.180000D+01           1.0000000
            D   1   1.00
                  0.550000D+00           1.0000000
            F   1   1.00
                  0.102000D+01           1.0000000
            ****
            -F     0
            S   7   1.00
                  0.174507D+05           0.655972D-03
                  0.261768D+04           0.506944D-02
                  0.595857D+03           0.259899D-01
                  0.168651D+03           0.100353D+00
                  0.546654D+02           0.284095D+00
                  0.193717D+02           0.500000D+00
                  0.706202D+01           0.370721D+00
            S   2   1.00
                  0.131197D+02          -0.101997D+00
                  0.145046D+01           0.500000D+00
            S   1   1.00
                  0.588255D+00           1.0000000
            S   1   1.00
                  0.227960D+00           1.0000000
            P   4   1.00
                  0.779407D+02           0.931135D-02
                  0.180425D+02           0.663964D-01
                  0.542342D+01           0.246386D+00
                  0.184876D+01           0.500000D+00
            P   1   1.00
                  0.617455D+00           1.0000000
            P   1   1.00
                  0.185496D+00           1.0000000
            D   1   1.00
                  0.280000D+01           1.0000000
            D   1   1.00
                  0.800000D+00           1.0000000
            F   1   1.00
                  0.120000D+01           1.0000000
            ****
            -Cl     0
            S   8   1.00
                  0.154272D+06           0.222473D-03
                  0.231232D+05           0.172590D-02
                  0.526257D+04           0.899286D-02
                  0.148995D+04           0.367724D-01
                  0.485417D+03           0.121446D+00
                  0.174634D+03           0.304148D+00
                  0.672393D+02           0.500000D+00
                  0.265780D+02           0.360252D+00
            S   3   1.00
                  0.131826D+03          -0.531330D-01
                  0.400703D+02          -0.233346D+00
                  0.789448D+01           0.500000D+00
            S   2   1.00
                  0.427711D+01           0.500000D+00
                  0.196233D+01           0.370517D+00
            S   1   1.00
                  0.520793D+00           1.0000000
            S   1   1.00
                  0.181633D+00           1.0000000
            P   7   1.00
                  0.124440D+04           0.988206D-03
                  0.295109D+03           0.829674D-02
                  0.947224D+02           0.430906D-01
                  0.352588D+02           0.148443D+00
                  0.144211D+02           0.344744D+00
                  0.610371D+01           0.500000D+00
                  0.258886D+01           0.348278D+00
            P   2   1.00
                  0.109447D+02          -0.196768D-01
                  0.104413D+01           0.500000D+00
            P   1   1.00
                  0.376184D+00           1.0000000
            P   1   1.00
                  0.120613D+00           1.0000000
            D   1   1.00
                  0.231000D+01           1.0000000
            D   1   1.00
                  0.520000D+00           1.0000000
            F   1   1.00
                  0.720000D+00           1.0000000
            ****
            -S     0
            S   8   1.00
                  0.134700D+06           0.226231D-03
                  0.201904D+05           0.175488D-02
                  0.459528D+04           0.914190D-02
                  0.130109D+04           0.373551D-01
                  0.423902D+03           0.123121D+00
                  0.152485D+03           0.306801D+00
                  0.586925D+02           0.500000D+00
                  0.231461D+02           0.354358D+00
            S   3   1.00
                  0.116327D+03          -0.491772D-01
                  0.352841D+02          -0.215962D+00
                  0.677831D+01           0.500000D+00
            S   2   1.00
                  0.360404D+01           0.500000D+00
                  0.164871D+01           0.366278D+00
            S   1   1.00
                  0.421821D+00           1.0000000
            S   1   1.00
                  0.147554D+00           1.0000000
            P   7   1.00
                  0.104863D+04           0.105273D-02
                  0.248717D+03           0.879338D-02
                  0.797887D+02           0.453358D-01
                  0.296023D+02           0.154476D+00
                  0.120627D+02           0.352366D+00
                  0.507628D+01           0.500000D+00
                  0.213375D+01           0.346429D+00
            P   2   1.00
                  0.928958D+01          -0.185932D-01
                  0.837819D+00           0.500000D+00
            P   1   1.00
                  0.301495D+00           1.0000000
            P   1   1.00
                  0.974740D-01           1.0000000
            D   1   1.00
                  0.210000D+01           1.0000000
            D   1   1.00
                  0.480000D+00           1.0000000
            F   1   1.00
                  0.660000D+00           1.0000000
            ****
            -Br     0
            S    10   1.00
                  0.233625D+07           0.532336D-04
                  0.349961D+06           0.413715D-03
                  0.796444D+05           0.217123D-02
                  0.225555D+05           0.910109D-02
                  0.735546D+04           0.323789D-01
                  0.265352D+04           0.988755D-01
                  0.103517D+04           0.248138D+00
                  0.422205D+03           0.474328D+00
                  0.180035D+03           0.500000D+00
                  0.793308D+02           0.187769D+00
            S    4   1.00
                  0.620834D+03          -0.226511D-01
                  0.190829D+03          -0.109497D+00
                  0.312505D+02           0.500000D+00
                  0.135270D+02           0.492812D+00
            S    2   1.00
                  0.216097D+02          -0.165418D+00
                  0.372566D+01           0.500000D+00
            S    1   1.00
                  0.169770D+01           1.0000000
            S    1   1.00
                  0.489332D+00           1.0000000
            S    1   1.00
                  0.175712D+00           1.0000000
            P    8   1.00
                  0.960829D+04           0.478974D-03
                  0.227618D+04           0.417853D-02
                  0.736723D+03           0.229315D-01
                  0.281579D+03           0.892653D-01
                  0.118395D+03           0.255288D+00
                  0.527481D+02           0.479074D+00
                  0.245098D+02           0.500000D+00
                  0.112009D+02           0.200944D+00
            P    4   1.00
                  0.587849D+02          -0.189674D-01
                  0.918962D+01           0.264104D+00
                  0.413895D+01           0.500000D+00
                  0.184225D+01           0.319316D+00
            P    1   1.00
                  0.713862D+00           1.0000000
            P    1   1.00
                  0.274232D+00           1.0000000
            P    1   1.00
                  0.944411D-01           1.0000000
            D    7   1.00
                  0.398470D+03           0.204066D-02
                  0.118967D+03           0.175171D-01
                  0.450197D+02           0.829708D-01
                  0.190320D+02           0.236284D+00
                  0.855686D+01           0.428468D+00
                  0.382950D+01           0.500000D+00
                  0.166291D+01           0.349360D+00
            D    1   1.00
                  0.672953D+00           1.0000000
            D    1   1.00
                  0.252000D+00           1.0000000
            F    1   1.00
                  0.530000D+00           1.0000000
            ****
            -Si     0
            S    8   1.00
                  0.996133D+05           0.235546D-03
                  0.149311D+05           0.182707D-02
                  0.339820D+04           0.951425D-02
                  0.962140D+03           0.388172D-01
                  0.313430D+03           0.127328D+00
                  0.112683D+03           0.313522D+00
                  0.433372D+02           0.500000D+00
                  0.170029D+02           0.340347D+00
            S    3   1.00
                  0.884208D+02          -0.404451D-01
                  0.266756D+02          -0.178059D+00
                  0.479640D+01           0.500000D+00
            S    2   1.00
                  0.239385D+01           0.500000D+00
                  0.108333D+01           0.338016D+00
            S    1   1.00
                  0.252420D+00           1.0000000
            S    1   1.00
                  0.891210D-01           1.0000000
            P    7   1.00
                  0.709901D+03           0.123028D-02
                  0.168426D+03           0.101366D-01
                  0.539946D+02           0.511840D-01
                  0.198646D+02           0.169967D+00
                  0.801369D+01           0.370717D+00
                  0.331870D+01           0.500000D+00
                  0.136112D+01           0.344128D+00
            P    2   1.00
                  0.622158D+01          -0.166609D-01
                  0.503049D+00           0.500000D+00
            P    1   1.00
                  0.179848D+00           1.0000000
            P    1   1.00
                  0.591912D-01           1.0000000
            D    1   1.00
                  0.168000D+01           1.0000000
            D    1   1.00
                  0.380000D+00           1.0000000
            F    1   1.00
                  0.540000D+00           1.0000000
            ****
            -P     0
            S    8   1.00
                  0.116416D+06           0.230715D-03
                  0.174500D+05           0.178960D-02
                  0.397149D+04           0.932116D-02
                  0.112447D+04           0.380591D-01
                  0.366347D+03           0.125148D+00
                  0.131757D+03           0.310022D+00
                  0.506988D+02           0.500000D+00
                  0.199436D+02           0.347528D+00
            S    3   1.00
                  0.101878D+03          -0.446755D-01
                  0.308249D+02          -0.196376D+00
                  0.573688D+01           0.500000D+00
            S    2   1.00
                  0.296868D+01           0.500000D+00
                  0.135315D+01           0.355098D+00
            S    1   1.00
                  0.332196D+00           1.0000000
            S    1   1.00
                  0.116229D+00           1.0000000
            P    7   1.00
                  0.873928D+03           0.112375D-02
                  0.207298D+03           0.933330D-02
                  0.664628D+02           0.477213D-01
                  0.245665D+02           0.160733D+00
                  0.996820D+01           0.359760D+00
                  0.416536D+01           0.500000D+00
                  0.173022D+01           0.346593D+00
            P    2   1.00
                  0.772530D+01          -0.175718D-01
                  0.657252D+00           0.500000D+00
            P    1   1.00
                  0.239903D+00           1.0000000
            P    1   1.00
                  0.800988D-01           1.0000000
            D    1   1.00
                  0.189000D+01           1.0000000
            D    1   1.00
                  0.430000D+00           1.0000000
            F    1   1.00
                  0.600000D+00           1.0000000
            ****
            
 Initial command:
 /usr/local/apps/g16_b01_avx/g16/l1.exe "/wrk/irikura/Gau-437488.inp" -scrdir="/wrk/irikura/"
 Entering Link 1 = /usr/local/apps/g16_b01_avx/g16/l1.exe PID=    437490.
  
 Copyright (c) 1988-2017, Gaussian, Inc.  All Rights Reserved.
  
 This is part of the Gaussian(R) 16 program.  It is based on
 the Gaussian(R) 09 system (copyright 2009, Gaussian, Inc.),
 the Gaussian(R) 03 system (copyright 2003, Gaussian, Inc.),
 the Gaussian(R) 98 system (copyright 1998, Gaussian, Inc.),
 the Gaussian(R) 94 system (copyright 1995, Gaussian, Inc.),
 the Gaussian 92(TM) system (copyright 1992, Gaussian, Inc.),
 the Gaussian 90(TM) system (copyright 1990, Gaussian, Inc.),
 the Gaussian 88(TM) system (copyright 1988, Gaussian, Inc.),
 the Gaussian 86(TM) system (copyright 1986, Carnegie Mellon
 University), and the Gaussian 82(TM) system (copyright 1983,
 Carnegie Mellon University). Gaussian is a federally registered
 trademark of Gaussian, Inc.
  
 This software contains proprietary and confidential information,
 including trade secrets, belonging to Gaussian, Inc.
  
 This software is provided under written license and may be
 used, copied, transmitted, or stored only in accord with that
 written license.
  
 The following legend is applicable only to US Government
 contracts under FAR:
  
                    RESTRICTED RIGHTS LEGEND
  
 Use, reproduction and disclosure by the US Government is
 subject to restrictions as set forth in subparagraphs (a)
 and (c) of the Commercial Computer Software - Restricted
 Rights clause in FAR 52.227-19.
  
 Gaussian, Inc.
 340 Quinnipiac St., Bldg. 40, Wallingford CT 06492
  
  
 ---------------------------------------------------------------
 Warning -- This program may not be used in any manner that
 competes with the business of Gaussian, Inc. or will provide
 assistance to any competitor of Gaussian, Inc.  The licensee
 of this program is prohibited from giving any competitor of
 Gaussian, Inc. access to this program.  By using this program,
 the user acknowledges that Gaussian, Inc. is engaged in the
 business of creating and licensing software in the field of
 computational chemistry and represents and warrants to the
 licensee that it is not a competitor of Gaussian, Inc. and that
 it will not use this program in any manner prohibited above.
 ---------------------------------------------------------------
  

 Cite this work as:
 Gaussian 16, Revision B.01,
 M. J. Frisch, G. W. Trucks, H. B. Schlegel, G. E. Scuseria, 
 M. A. Robb, J. R. Cheeseman, G. Scalmani, V. Barone, 
 G. A. Petersson, H. Nakatsuji, X. Li, M. Caricato, A. V. Marenich, 
 J. Bloino, B. G. Janesko, R. Gomperts, B. Mennucci, H. P. Hratchian, 
 J. V. Ortiz, A. F. Izmaylov, J. L. Sonnenberg, D. Williams-Young, 
 F. Ding, F. Lipparini, F. Egidi, J. Goings, B. Peng, A. Petrone, 
 T. Henderson, D. Ranasinghe, V. G. Zakrzewski, J. Gao, N. Rega, 
 G. Zheng, W. Liang, M. Hada, M. Ehara, K. Toyota, R. Fukuda, 
 J. Hasegawa, M. Ishida, T. Nakajima, Y. Honda, O. Kitao, H. Nakai, 
 T. Vreven, K. Throssell, J. A. Montgomery, Jr., J. E. Peralta, 
 F. Ogliaro, M. J. Bearpark, J. J. Heyd, E. N. Brothers, K. N. Kudin, 
 V. N. Staroverov, T. A. Keith, R. Kobayashi, J. Normand, 
 K. Raghavachari, A. P. Rendell, J. C. Burant, S. S. Iyengar, 
 J. Tomasi, M. Cossi, J. M. Millam, M. Klene, C. Adamo, R. Cammi, 
 J. W. Ochterski, R. L. Martin, K. Morokuma, O. Farkas, 
 J. B. Foresman, and D. J. Fox, Gaussian, Inc., Wallingford CT, 2016.
 
 ******************************************
 Gaussian 16:  ES64L-G16RevB.01 20-Dec-2017
                30-Sep-2023 
 ******************************************
 %chk=disiloxane.chk
 %mem=500mw
 %nprocs=4
 Will use up to    4 processors via shared memory.
 ---------------------------------------
 # b3lyp/gen opt freq CPHF(Grid=OneStep)
 ---------------------------------------
 1/18=20,19=15,26=3,38=1/1,3;
 2/9=110,12=2,17=6,18=5,40=1/2;
 3/5=7,11=2,25=1,30=1,71=1,74=-5/1,2,3;
 4//1;
 5/5=2,38=5/2;
 6/7=2,8=2,9=2,10=2,28=1/1;
 7//1,2,3,16;
 1/18=20,19=15,26=3/3(2);
 2/9=110/2;
 99//99;
 2/9=110/2;
 3/5=7,6=1,11=2,25=1,30=1,71=1,74=-5,82=7/1,2,3;
 4/5=5,16=3,69=1/1;
 5/5=2,38=5/2;
 7//1,2,3,16;
 1/18=20,19=15,26=3/3(-5);
 2/9=110/2;
 6/7=2,8=2,9=2,10=2,19=2,28=1/1;
 99/9=1/99;
 ----------------------------
 disilyl ether, B3LYP/pcseg-2
 ----------------------------
 Symbolic Z-matrix:
 Charge =  0 Multiplicity = 1
 O                     0.        0.        0.1769 
 Si                    0.        1.61708  -0.03086 
 Si                    0.       -1.61708  -0.03086 
 H                     0.        2.27657   1.29272 
 H                     1.20594   2.03094  -0.78411 
 H                    -1.20594   2.03094  -0.78411 
 H                     0.       -2.27657   1.29272 
 H                    -1.20594  -2.03094  -0.78411 
 H                     1.20594  -2.03094  -0.78411 
 

 GradGradGradGradGradGradGradGradGradGradGradGradGradGradGradGradGradGrad
 Berny optimization.
 Initialization pass.
                           ----------------------------
                           !    Initial Parameters    !
                           ! (Angstroms and Degrees)  !
 --------------------------                            --------------------------
 ! Name  Definition              Value          Derivative Info.                !
 --------------------------------------------------------------------------------
 ! R1    R(1,2)                  1.6304         estimate D2E/DX2                !
 ! R2    R(1,3)                  1.6304         estimate D2E/DX2                !
 ! R3    R(2,4)                  1.4788         estimate D2E/DX2                !
 ! R4    R(2,5)                  1.4809         estimate D2E/DX2                !
 ! R5    R(2,6)                  1.4809         estimate D2E/DX2                !
 ! R6    R(3,7)                  1.4788         estimate D2E/DX2                !
 ! R7    R(3,8)                  1.4809         estimate D2E/DX2                !
 ! R8    R(3,9)                  1.4809         estimate D2E/DX2                !
 ! A1    A(1,2,4)              109.1642         estimate D2E/DX2                !
 ! A2    A(1,2,5)              109.9994         estimate D2E/DX2                !
 ! A3    A(1,2,6)              109.9994         estimate D2E/DX2                !
 ! A4    A(4,2,5)              109.3075         estimate D2E/DX2                !
 ! A5    A(4,2,6)              109.3075         estimate D2E/DX2                !
 ! A6    A(5,2,6)              109.0459         estimate D2E/DX2                !
 ! A7    A(1,3,7)              109.1642         estimate D2E/DX2                !
 ! A8    A(1,3,8)              109.9994         estimate D2E/DX2                !
 ! A9    A(1,3,9)              109.9994         estimate D2E/DX2                !
 ! A10   A(7,3,8)              109.3075         estimate D2E/DX2                !
 ! A11   A(7,3,9)              109.3075         estimate D2E/DX2                !
 ! A12   A(8,3,9)              109.0459         estimate D2E/DX2                !
 ! A13   L(2,1,3,5,-1)         170.969          estimate D2E/DX2                !
 ! A14   L(2,1,3,5,-2)         199.0701         estimate D2E/DX2                !
 ! D1    D(4,2,3,7)              0.0            estimate D2E/DX2                !
 ! D2    D(4,2,3,8)            121.9897         estimate D2E/DX2                !
 ! D3    D(4,2,3,9)           -121.9897         estimate D2E/DX2                !
 ! D4    D(5,2,3,7)            121.9897         estimate D2E/DX2                !
 ! D5    D(5,2,3,8)           -116.0206         estimate D2E/DX2                !
 ! D6    D(5,2,3,9)              0.0            estimate D2E/DX2                !
 ! D7    D(6,2,3,7)           -121.9897         estimate D2E/DX2                !
 ! D8    D(6,2,3,8)              0.0            estimate D2E/DX2                !
 ! D9    D(6,2,3,9)            116.0206         estimate D2E/DX2                !
 --------------------------------------------------------------------------------
 Trust Radius=3.00D-01 FncErr=1.00D-07 GrdErr=1.00D-06 EigMax=2.50D+02 EigMin=1.00D-04
 Number of steps in this run=     41 maximum allowed number of steps=    100.
 GradGradGradGradGradGradGradGradGradGradGradGradGradGradGradGradGradGrad

                          Input orientation:                          
 ---------------------------------------------------------------------
 Center     Atomic      Atomic             Coordinates (Angstroms)
 Number     Number       Type             X           Y           Z
 ---------------------------------------------------------------------
      1          8           0        0.000000    0.000000    0.176895
      2         14           0        0.000000    1.617079   -0.030862
      3         14           0        0.000000   -1.617079   -0.030862
      4          1           0        0.000000    2.276567    1.292716
      5          1           0        1.205936    2.030937   -0.784113
      6          1           0       -1.205936    2.030937   -0.784113
      7          1           0        0.000000   -2.276567    1.292716
      8          1           0       -1.205936   -2.030937   -0.784113
      9          1           0        1.205936   -2.030937   -0.784113
 ---------------------------------------------------------------------
                    Distance matrix (angstroms):
                    1          2          3          4          5
     1  O    0.000000
     2  Si   1.630370   0.000000
     3  Si   1.630370   3.234158   0.000000
     4  H    2.535313   1.478778   4.112461   0.000000
     5  H    2.550005   1.480860   3.915315   2.414091   0.000000
     6  H    2.550005   1.480860   3.915315   2.414091   2.411872
     7  H    2.535313   4.112461   1.478778   4.553134   4.931743
     8  H    2.550005   3.915315   1.480860   4.931743   4.723976
     9  H    2.550005   3.915315   1.480860   4.931743   4.061874
                    6          7          8          9
     6  H    0.000000
     7  H    4.931743   0.000000
     8  H    4.061874   2.414091   0.000000
     9  H    4.723976   2.414091   2.411872   0.000000
 Stoichiometry    H6OSi2
 Framework group  C2V[C2(O),SGV(H2Si2),X(H4)]
 Deg. of freedom     7
 Full point group                 C2V     NOp   4
 Largest Abelian subgroup         C2V     NOp   4
 Largest concise Abelian subgroup C2V     NOp   4
                         Standard orientation:                         
 ---------------------------------------------------------------------
 Center     Atomic      Atomic             Coordinates (Angstroms)
 Number     Number       Type             X           Y           Z
 ---------------------------------------------------------------------
      1          8           0        0.000000   -0.000000    0.176895
      2         14           0        0.000000    1.617079   -0.030862
      3         14           0       -0.000000   -1.617079   -0.030862
      4          1           0        0.000000    2.276567    1.292716
      5          1           0        1.205936    2.030937   -0.784113
      6          1           0       -1.205936    2.030937   -0.784113
      7          1           0       -0.000000   -2.276567    1.292716
      8          1           0       -1.205936   -2.030937   -0.784113
      9          1           0        1.205936   -2.030937   -0.784113
 ---------------------------------------------------------------------
 Rotational constants (GHZ):          41.2232247           2.8193548           2.8109765
 General basis read from cards:  (5D, 7F)
 There are    69 symmetry adapted cartesian basis functions of A1  symmetry.
 There are    34 symmetry adapted cartesian basis functions of A2  symmetry.
 There are    39 symmetry adapted cartesian basis functions of B1  symmetry.
 There are    61 symmetry adapted cartesian basis functions of B2  symmetry.
 There are    60 symmetry adapted basis functions of A1  symmetry.
 There are    32 symmetry adapted basis functions of A2  symmetry.
 There are    36 symmetry adapted basis functions of B1  symmetry.
 There are    54 symmetry adapted basis functions of B2  symmetry.
   182 basis functions,   299 primitive gaussians,   203 cartesian basis functions
    21 alpha electrons       21 beta electrons
       nuclear repulsion energy       158.3030855561 Hartrees.
 NAtoms=    9 NActive=    9 NUniq=    4 SFac= 4.00D+00 NAtFMM=   60 NAOKFM=F Big=F
 Integral buffers will be    131072 words long.
 Raffenetti 2 integral format.
 Two-electron integral symmetry is turned on.
 One-electron integrals computed using PRISM.
 NBasis=   182 RedAO= T EigKep=  2.10D-03  NBF=    60    32    36    54
 NBsUse=   182 1.00D-06 EigRej= -1.00D+00 NBFU=    60    32    36    54
 ExpMin= 5.92D-02 ExpMax= 9.96D+04 ExpMxC= 9.62D+02 IAcc=3 IRadAn=         5 AccDes= 0.00D+00
 Harris functional with IExCor=  402 and IRadAn=       5 diagonalized for initial guess.
 HarFok:  IExCor=  402 AccDes= 0.00D+00 IRadAn=         5 IDoV= 1 UseB2=F ITyADJ=14
 ICtDFT=  3500011 ScaDFX=  1.000000  1.000000  1.000000  1.000000
 FoFCou: FMM=F IPFlag=           0 FMFlag=      100000 FMFlg1=           0
         NFxFlg=           0 DoJE=T BraDBF=F KetDBF=T FulRan=T
         wScrn=  0.000000 ICntrl=       500 IOpCl=  0 I1Cent=   200000004 NGrid=           0
         NMat0=    1 NMatS0=      1 NMatT0=    0 NMatD0=    1 NMtDS0=    0 NMtDT0=    0
 Petite list used in FoFCou.
 Initial guess orbital symmetries:
       Occupied  (B2) (A1) (A1) (B2) (A1) (A1) (B2) (A1) (B2) (B1)
                 (A2) (A1) (B2) (A1) (B2) (A1) (B1) (B2) (A2) (A1)
                 (B1)
       Virtual   (A1) (B2) (A1) (A1) (A2) (B2) (B1) (B2) (B1) (A1)
                 (A2) (B2) (A1) (B2) (A1) (B2) (A2) (B1) (A1) (B2)
                 (A1) (B1) (A1) (B2) (A2) (B2) (B1) (A1) (A1) (B2)
                 (A2) (B1) (A1) (B1) (A2) (A1) (B2) (A2) (B2) (A1)
                 (B1) (B2) (A1) (B1) (A1) (B2) (A2) (B2) (A2) (A1)
                 (B2) (A1) (B2) (B1) (B1) (A1) (B2) (A1) (A2) (B2)
                 (A1) (B1) (A2) (B2) (A1) (A1) (B1) (A2) (B2) (B2)
                 (A1) (B1) (A1) (B1) (A2) (B2) (A2) (B2) (B1) (A1)
                 (A1) (B2) (A1) (B1) (B2) (A2) (A1) (B2) (A2) (B2)
                 (A1) (B1) (A1) (B1) (B2) (A1) (B2) (A2) (B1) (A2)
                 (A2) (B2) (A1) (B1) (B2) (A2) (B1) (A1) (A1) (B1)
                 (A1) (B2) (A1) (A2) (B2) (B1) (A1) (B1) (B2) (A1)
                 (A2) (A2) (A2) (B1) (B2) (B2) (A1) (B1) (A1) (A2)
                 (B2) (B2) (A1) (A2) (B1) (A1) (B1) (B2) (A2) (B2)
                 (A1) (B1) (B2) (A2) (A1) (B1) (B2) (A1) (A2) (A1)
                 (B2) (B2) (B1) (A1) (A1) (B1) (A2) (B2) (A1) (B2)
                 (A1)
 The electronic state of the initial guess is 1-A1.
 Keep R1 ints in memory in symmetry-blocked form, NReq=173551111.
 Requested convergence on RMS density matrix=1.00D-08 within 128 cycles.
 Requested convergence on MAX density matrix=1.00D-06.
 Requested convergence on             energy=1.00D-06.
 No special actions if energy rises.
 Integral accuracy reduced to 1.0D-05 until final iterations.
 Initial convergence to 1.0D-05 achieved.  Increase integral accuracy.
 SCF Done:  E(RB3LYP) =  -658.006264731     A.U. after   10 cycles
            NFock= 10  Conv=0.83D-08     -V/T= 2.0012

 **********************************************************************

            Population analysis using the SCF Density.

 **********************************************************************

 Orbital symmetries:
       Occupied  (B2) (A1) (A1) (B2) (A1) (B2) (A1) (B1) (A2) (A1)
                 (B2) (A1) (B2) (A1) (B2) (A1) (B1) (B2) (A2) (A1)
                 (B1)
       Virtual   (A1) (A1) (B2) (A1) (B2) (A2) (B1) (B2) (B1) (A1)
                 (A2) (B2) (A1) (A1) (B2) (A2) (B2) (B1) (A1) (B2)
                 (A1) (B1) (A1) (B2) (A2) (B2) (B1) (A1) (A1) (B2)
                 (A2) (B1) (A1) (B1) (A2) (A1) (B2) (A2) (B2) (A1)
                 (B1) (B2) (A1) (B1) (A1) (B2) (A2) (B2) (A2) (A1)
                 (B2) (A1) (B2) (B1) (B1) (A1) (B2) (A1) (A2) (B2)
                 (A1) (A2) (B1) (B2) (A1) (A1) (B1) (A2) (B2) (B2)
                 (A1) (B1) (B1) (A2) (A1) (B2) (A2) (B2) (B1) (A1)
                 (A1) (B2) (B2) (A2) (A1) (B1) (A1) (B2) (A2) (B2)
                 (A1) (B1) (A1) (B1) (B2) (A1) (B2) (A2) (B1) (A2)
                 (A2) (B2) (A1) (B1) (B2) (A2) (B1) (A1) (A1) (B1)
                 (A1) (B2) (A1) (A2) (B2) (B1) (A1) (B2) (B1) (A1)
                 (A2) (A2) (A2) (B1) (B2) (B2) (A1) (B1) (A1) (A2)
                 (B2) (B2) (A2) (A1) (B1) (A1) (B1) (B2) (A2) (B2)
                 (A1) (B1) (B2) (A2) (A1) (B1) (A1) (B2) (A2) (A1)
                 (B2) (B1) (B2) (A1) (A1) (B1) (A2) (B2) (A1) (B2)
                 (A1)
 The electronic state is 1-A1.
 Alpha  occ. eigenvalues --  -66.10995 -66.10994 -19.12767  -5.29055  -5.29054
 Alpha  occ. eigenvalues --   -3.64958  -3.64958  -3.64747  -3.64746  -3.64742
 Alpha  occ. eigenvalues --   -3.64742  -1.00223  -0.60593  -0.50751  -0.44039
 Alpha  occ. eigenvalues --   -0.41634  -0.41616  -0.35430  -0.35382  -0.31318
 Alpha  occ. eigenvalues --   -0.31280
 Alpha virt. eigenvalues --   -0.01691   0.02229   0.02965   0.04418   0.04600
 Alpha virt. eigenvalues --    0.05033   0.05192   0.05890   0.10493   0.10679
 Alpha virt. eigenvalues --    0.12864   0.12961   0.19261   0.22622   0.24147
 Alpha virt. eigenvalues --    0.25758   0.26161   0.26429   0.27085   0.28811
 Alpha virt. eigenvalues --    0.33013   0.33660   0.36244   0.38690   0.40406
 Alpha virt. eigenvalues --    0.40915   0.60231   0.61428   0.65357   0.66283
 Alpha virt. eigenvalues --    0.66700   0.68191   0.69070   0.73720   0.73729
 Alpha virt. eigenvalues --    0.74515   0.74697   0.81697   0.82212   0.86182
 Alpha virt. eigenvalues --    0.87620   0.92820   0.98954   0.99484   1.02287
 Alpha virt. eigenvalues --    1.04003   1.05253   1.06233   1.14084   1.17965
 Alpha virt. eigenvalues --    1.18004   1.21050   1.21303   1.22819   1.28815
 Alpha virt. eigenvalues --    1.29727   1.32861   1.33864   1.36566   1.36922
 Alpha virt. eigenvalues --    1.53944   1.55121   1.56136   1.58963   1.66177
 Alpha virt. eigenvalues --    1.68902   1.69547   1.69906   1.71393   1.79485
 Alpha virt. eigenvalues --    1.85481   1.85683   1.87257   1.87494   1.87619
 Alpha virt. eigenvalues --    1.92763   1.94583   1.96080   2.05711   2.07087
 Alpha virt. eigenvalues --    2.19195   2.29433   2.45964   2.47339   2.48184
 Alpha virt. eigenvalues --    2.48553   2.55926   3.05183   3.14591   3.18488
 Alpha virt. eigenvalues --    3.18856   3.20560   3.34742   3.36477   3.41045
 Alpha virt. eigenvalues --    3.41796   3.47604   3.51548   3.76199   3.76205
 Alpha virt. eigenvalues --    3.78702   3.78734   3.78863   3.78995   3.83445
 Alpha virt. eigenvalues --    3.84799   3.88103   3.88610   3.90110   3.95137
 Alpha virt. eigenvalues --    3.95512   3.97625   4.03651   4.04431   4.05889
 Alpha virt. eigenvalues --    4.09282   4.09578   4.12360   4.12413   4.14503
 Alpha virt. eigenvalues --    4.14808   4.19350   4.20859   4.21149   4.24148
 Alpha virt. eigenvalues --    4.27561   4.35298   4.36235   4.37794   4.39469
 Alpha virt. eigenvalues --    4.40726   4.48141   4.52571   4.53651   4.54060
 Alpha virt. eigenvalues --    4.56635   4.61098   4.63787   4.67096   4.68215
 Alpha virt. eigenvalues --    4.69671   4.70456   4.81877   4.83989   4.94064
 Alpha virt. eigenvalues --    4.95388   5.00264   5.00451   5.09018   5.10030
 Alpha virt. eigenvalues --    5.11766   5.12499   5.14294   5.20555   6.07638
 Alpha virt. eigenvalues --    6.08497   6.61047   6.62923   7.02149  15.85122
 Alpha virt. eigenvalues --   15.89861
          Condensed to atoms (all electrons):
               1          2          3          4          5          6
     1  O    8.270193   0.314309   0.314309  -0.032477  -0.031721  -0.031721
     2  Si   0.314309  11.709114  -0.028474   0.393117   0.389008   0.389008
     3  Si   0.314309  -0.028474  11.709114   0.000361  -0.000655  -0.000655
     4  H   -0.032477   0.393117   0.000361   0.876992  -0.041000  -0.041000
     5  H   -0.031721   0.389008  -0.000655  -0.041000   0.886966  -0.041379
     6  H   -0.031721   0.389008  -0.000655  -0.041000  -0.041379   0.886966
     7  H   -0.032477   0.000361   0.393117   0.001164  -0.000462  -0.000462
     8  H   -0.031721  -0.000655   0.389008  -0.000462  -0.000543   0.002361
     9  H   -0.031721  -0.000655   0.389008  -0.000462   0.002361  -0.000543
               7          8          9
     1  O   -0.032477  -0.031721  -0.031721
     2  Si   0.000361  -0.000655  -0.000655
     3  Si   0.393117   0.389008   0.389008
     4  H    0.001164  -0.000462  -0.000462
     5  H   -0.000462  -0.000543   0.002361
     6  H   -0.000462   0.002361  -0.000543
     7  H    0.876992  -0.041000  -0.041000
     8  H   -0.041000   0.886966  -0.041379
     9  H   -0.041000  -0.041379   0.886966
 Mulliken charges:
               1
     1  O   -0.706971
     2  Si   0.834867
     3  Si   0.834867
     4  H   -0.156233
     5  H   -0.162574
     6  H   -0.162574
     7  H   -0.156233
     8  H   -0.162574
     9  H   -0.162574
 Sum of Mulliken charges =  -0.00000
 Mulliken charges with hydrogens summed into heavy atoms:
               1
     1  O   -0.706971
     2  Si   0.353485
     3  Si   0.353485
 Electronic spatial extent (au):  <R**2>=            479.8209
 Charge=             -0.0000 electrons
 Dipole moment (field-independent basis, Debye):
    X=              0.0000    Y=             -0.0000    Z=             -0.1621  Tot=              0.1621
 Quadrupole moment (field-independent basis, Debye-Ang):
   XX=            -36.4108   YY=            -34.6834   ZZ=            -36.4258
   XY=              0.0000   XZ=              0.0000   YZ=              0.0000
 Traceless Quadrupole moment (field-independent basis, Debye-Ang):
   XX=             -0.5708   YY=              1.1566   ZZ=             -0.5858
   XY=              0.0000   XZ=              0.0000   YZ=              0.0000
 Octapole moment (field-independent basis, Debye-Ang**2):
  XXX=              0.0000  YYY=              0.0000  ZZZ=             -0.3721  XYY=              0.0000
  XXY=              0.0000  XXZ=              3.2508  XZZ=              0.0000  YZZ=             -0.0000
  YYZ=             -0.1598  XYZ=             -0.0000
 Hexadecapole moment (field-independent basis, Debye-Ang**3):
 XXXX=            -89.8279 YYYY=           -577.2877 ZZZZ=            -90.0897 XXXY=             -0.0000
 XXXZ=             -0.0000 YYYX=             -0.0000 YYYZ=              0.0000 ZZZX=             -0.0000
 ZZZY=              0.0000 XXYY=           -122.0467 XXZZ=            -30.3975 YYZZ=           -123.4842
 XXYZ=              0.0000 YYXZ=              0.0000 ZZXY=             -0.0000
 N-N= 1.583030855561D+02 E-N=-1.882327637599D+03  KE= 6.572049538943D+02
 Symmetry A1   KE= 3.319620245004D+02
 Symmetry A2   KE= 2.632770902665D+01
 Symmetry B1   KE= 3.052747635303D+01
 Symmetry B2   KE= 2.683877440142D+02
 Calling FoFJK, ICntrl=      2127 FMM=F ISym2X=1 I1Cent= 0 IOpClX= 0 NMat=1 NMatS=1 NMatT=0.
 ***** Axes restored to original set *****
 -------------------------------------------------------------------
 Center     Atomic                   Forces (Hartrees/Bohr)
 Number     Number              X              Y              Z
 -------------------------------------------------------------------
      1        8          -0.000000000    0.000000000   -0.000001712
      2       14           0.000000000   -0.000005007    0.000003139
      3       14          -0.000000000    0.000005007    0.000003139
      4        1           0.000000000    0.000000020    0.000000202
      5        1           0.000000466    0.000000275   -0.000001243
      6        1          -0.000000466    0.000000275   -0.000001243
      7        1           0.000000000   -0.000000020    0.000000202
      8        1          -0.000000466   -0.000000275   -0.000001243
      9        1           0.000000466   -0.000000275   -0.000001243
 -------------------------------------------------------------------
 Cartesian Forces:  Max     0.000005007 RMS     0.000001724

 GradGradGradGradGradGradGradGradGradGradGradGradGradGradGradGradGradGrad
 Berny optimization.
 FormGI is forming the generalized inverse of G from B-inverse, IUseBI=4.
 Internal  Forces:  Max     0.000004510 RMS     0.000001263
 Search for a local minimum.
 Step number   1 out of a maximum of   41
 All quantities printed in internal units (Hartrees-Bohrs-Radians)
 Mixed Optimization -- En-DIIS/RFO-DIIS
 Second derivative matrix not updated -- first step.
 ITU=  0
     Eigenvalues ---    0.00230   0.02616   0.03350   0.05235   0.06047
     Eigenvalues ---    0.06526   0.07500   0.16000   0.16000   0.16000
     Eigenvalues ---    0.16000   0.16000   0.16000   0.17732   0.17732
     Eigenvalues ---    0.17732   0.17732   0.17831   0.17831   0.45758
     Eigenvalues ---    0.45766
 RFO step:  Lambda= 0.00000000D+00 EMin= 2.30000000D-03
 Linear search not attempted -- first point.
 Iteration  1 RMS(Cart)=  0.00000867 RMS(Int)=  0.00000000
 Iteration  2 RMS(Cart)=  0.00000000 RMS(Int)=  0.00000000
 ClnCor:  largest displacement from symmetrization is 4.35D-06 for atom     8.
 Variable       Old X    -DE/DX   Delta X   Delta X   Delta X     New X
                                 (Linear)    (Quad)   (Total)
    R1        3.08095  -0.00000   0.00000  -0.00001  -0.00001   3.08094
    R2        3.08095  -0.00000   0.00000  -0.00001  -0.00001   3.08094
    R3        2.79448   0.00000   0.00000   0.00000   0.00000   2.79449
    R4        2.79842   0.00000   0.00000   0.00001   0.00001   2.79843
    R5        2.79842   0.00000   0.00000   0.00001   0.00001   2.79843
    R6        2.79448   0.00000   0.00000   0.00000   0.00000   2.79449
    R7        2.79842   0.00000   0.00000   0.00001   0.00001   2.79843
    R8        2.79842   0.00000   0.00000   0.00001   0.00001   2.79843
    A1        1.90528   0.00000   0.00000   0.00000   0.00000   1.90528
    A2        1.91985  -0.00000   0.00000  -0.00000  -0.00000   1.91985
    A3        1.91985  -0.00000   0.00000  -0.00000  -0.00000   1.91985
    A4        1.90778   0.00000   0.00000   0.00001   0.00000   1.90778
    A5        1.90778   0.00000   0.00000   0.00001   0.00000   1.90778
    A6        1.90321  -0.00000   0.00000  -0.00001  -0.00001   1.90320
    A7        1.90528   0.00000   0.00000   0.00000   0.00000   1.90528
    A8        1.91985  -0.00000   0.00000  -0.00000  -0.00000   1.91985
    A9        1.91985  -0.00000   0.00000  -0.00000  -0.00000   1.91985
   A10        1.90778   0.00000   0.00000   0.00001   0.00000   1.90778
   A11        1.90778   0.00000   0.00000   0.00001   0.00000   1.90778
   A12        1.90321  -0.00000   0.00000  -0.00001  -0.00001   1.90320
   A13        2.98397   0.00000   0.00000  -0.00000  -0.00000   2.98397
   A14        3.47443  -0.00000   0.00000   0.00000  -0.00000   3.47443
    D1        0.00000  -0.00000   0.00000  -0.00000   0.00000   0.00000
    D2        2.12912   0.00000   0.00000   0.00001   0.00001   2.12913
    D3       -2.12912  -0.00000   0.00000  -0.00001  -0.00001  -2.12913
    D4        2.12912   0.00000   0.00000   0.00001   0.00001   2.12913
    D5       -2.02494   0.00000   0.00000   0.00002   0.00002  -2.02493
    D6       -0.00000  -0.00000   0.00000  -0.00000   0.00000   0.00000
    D7       -2.12912  -0.00000   0.00000  -0.00001  -0.00001  -2.12913
    D8       -0.00000   0.00000   0.00000  -0.00000  -0.00000  -0.00000
    D9        2.02494  -0.00000   0.00000  -0.00002  -0.00002   2.02493
         Item               Value     Threshold  Converged?
 Maximum Force            0.000005     0.000450     YES
 RMS     Force            0.000001     0.000300     YES
 Maximum Displacement     0.000015     0.001800     YES
 RMS     Displacement     0.000008     0.001200     YES
 Predicted change in Energy=-8.916348D-11
 Optimization completed.
    -- Stationary point found.
                           ----------------------------
                           !   Optimized Parameters   !
                           ! (Angstroms and Degrees)  !
 --------------------------                            --------------------------
 ! Name  Definition              Value          Derivative Info.                !
 --------------------------------------------------------------------------------
 ! R1    R(1,2)                  1.6304         -DE/DX =    0.0                 !
 ! R2    R(1,3)                  1.6304         -DE/DX =    0.0                 !
 ! R3    R(2,4)                  1.4788         -DE/DX =    0.0                 !
 ! R4    R(2,5)                  1.4809         -DE/DX =    0.0                 !
 ! R5    R(2,6)                  1.4809         -DE/DX =    0.0                 !
 ! R6    R(3,7)                  1.4788         -DE/DX =    0.0                 !
 ! R7    R(3,8)                  1.4809         -DE/DX =    0.0                 !
 ! R8    R(3,9)                  1.4809         -DE/DX =    0.0                 !
 ! A1    A(1,2,4)              109.1642         -DE/DX =    0.0                 !
 ! A2    A(1,2,5)              109.9994         -DE/DX =    0.0                 !
 ! A3    A(1,2,6)              109.9994         -DE/DX =    0.0                 !
 ! A4    A(4,2,5)              109.3075         -DE/DX =    0.0                 !
 ! A5    A(4,2,6)              109.3075         -DE/DX =    0.0                 !
 ! A6    A(5,2,6)              109.0459         -DE/DX =    0.0                 !
 ! A7    A(1,3,7)              109.1642         -DE/DX =    0.0                 !
 ! A8    A(1,3,8)              109.9994         -DE/DX =    0.0                 !
 ! A9    A(1,3,9)              109.9994         -DE/DX =    0.0                 !
 ! A10   A(7,3,8)              109.3075         -DE/DX =    0.0                 !
 ! A11   A(7,3,9)              109.3075         -DE/DX =    0.0                 !
 ! A12   A(8,3,9)              109.0459         -DE/DX =    0.0                 !
 ! A13   L(2,1,3,5,-1)         170.969          -DE/DX =    0.0                 !
 ! A14   L(2,1,3,5,-2)         199.0701         -DE/DX =    0.0                 !
 ! D1    D(4,2,3,7)              0.0            -DE/DX =    0.0                 !
 ! D2    D(4,2,3,8)            121.9897         -DE/DX =    0.0                 !
 ! D3    D(4,2,3,9)           -121.9897         -DE/DX =    0.0                 !
 ! D4    D(5,2,3,7)            121.9897         -DE/DX =    0.0                 !
 ! D5    D(5,2,3,8)           -116.0206         -DE/DX =    0.0                 !
 ! D6    D(5,2,3,9)              0.0            -DE/DX =    0.0                 !
 ! D7    D(6,2,3,7)           -121.9897         -DE/DX =    0.0                 !
 ! D8    D(6,2,3,8)              0.0            -DE/DX =    0.0                 !
 ! D9    D(6,2,3,9)            116.0206         -DE/DX =    0.0                 !
 --------------------------------------------------------------------------------
 GradGradGradGradGradGradGradGradGradGradGradGradGradGradGradGradGradGrad

                          Input orientation:                          
 ---------------------------------------------------------------------
 Center     Atomic      Atomic             Coordinates (Angstroms)
 Number     Number       Type             X           Y           Z
 ---------------------------------------------------------------------
      1          8           0        0.000000   -0.000000    0.176895
      2         14           0        0.000000    1.617079   -0.030862
      3         14           0       -0.000000   -1.617079   -0.030862
      4          1           0        0.000000    2.276567    1.292716
      5          1           0        1.205936    2.030937   -0.784113
      6          1           0       -1.205936    2.030937   -0.784113
      7          1           0       -0.000000   -2.276567    1.292716
      8          1           0       -1.205936   -2.030937   -0.784113
      9          1           0        1.205936   -2.030937   -0.784113
 ---------------------------------------------------------------------
                    Distance matrix (angstroms):
                    1          2          3          4          5
     1  O    0.000000
     2  Si   1.630370   0.000000
     3  Si   1.630370   3.234158   0.000000
     4  H    2.535313   1.478778   4.112461   0.000000
     5  H    2.550005   1.480860   3.915315   2.414091   0.000000
     6  H    2.550005   1.480860   3.915315   2.414091   2.411872
     7  H    2.535313   4.112461   1.478778   4.553134   4.931743
     8  H    2.550005   3.915315   1.480860   4.931743   4.723976
     9  H    2.550005   3.915315   1.480860   4.931743   4.061874
                    6          7          8          9
     6  H    0.000000
     7  H    4.931743   0.000000
     8  H    4.061874   2.414091   0.000000
     9  H    4.723976   2.414091   2.411872   0.000000
 Stoichiometry    H6OSi2
 Framework group  C2V[C2(O),SGV(H2Si2),X(H4)]
 Deg. of freedom     7
 Full point group                 C2V     NOp   4
 Largest Abelian subgroup         C2V     NOp   4
 Largest concise Abelian subgroup C2V     NOp   4
                         Standard orientation:                         
 ---------------------------------------------------------------------
 Center     Atomic      Atomic             Coordinates (Angstroms)
 Number     Number       Type             X           Y           Z
 ---------------------------------------------------------------------
      1          8           0        0.000000   -0.000000    0.176895
      2         14           0       -0.000000    1.617079   -0.030862
      3         14           0       -0.000000   -1.617079   -0.030862
      4          1           0       -0.000000    2.276567    1.292716
      5          1           0        1.205936    2.030937   -0.784113
      6          1           0       -1.205936    2.030937   -0.784113
      7          1           0       -0.000000   -2.276567    1.292716
      8          1           0       -1.205936   -2.030937   -0.784113
      9          1           0        1.205936   -2.030937   -0.784113
 ---------------------------------------------------------------------
 Rotational constants (GHZ):          41.2232247           2.8193548           2.8109765
 1\1\GINC-GAMBA\FOpt\RB3LYP\Gen\H6O1Si2\IRIKURA\30-Sep-2023\0\\# b3lyp/
 gen opt freq CPHF(Grid=OneStep)\\disilyl ether, B3LYP/pcseg-2\\0,1\O,0
 .,0.,0.176895\Si,0.,1.617079,-0.030862\Si,0.,-1.617079,-0.030862\H,0.,
 2.276567,1.292716\H,1.205936,2.030937,-0.784113\H,-1.205936,2.030937,-
 0.784113\H,0.,-2.276567,1.292716\H,-1.205936,-2.030937,-0.784113\H,1.2
 05936,-2.030937,-0.784113\\Version=ES64L-G16RevB.01\State=1-A1\HF=-658
 .0062647\RMSD=8.290e-09\RMSF=1.724e-06\Dipole=0.,0.,-0.0637851\Quadrup
 ole=-0.4243856,0.8599084,-0.4355228,0.,0.,0.\PG=C02V [C2(O1),SGV(H2Si2
 ),X(H4)]\\@


 SI MONUMENTUM REQUIRIS, CIRCUMSPICE
     -- FROM SIR CHRISTOPHER WREN'S TOMBSTONE
 Job cpu time:       0 days  0 hours  0 minutes 37.3 seconds.
 Elapsed time:       0 days  0 hours  0 minutes  9.4 seconds.
 File lengths (MBytes):  RWF=     19 Int=      0 D2E=      0 Chk=      3 Scr=      1
 Normal termination of Gaussian 16 at Sat Sep 30 04:34:08 2023.
 Link1:  Proceeding to internal job step number  2.
 ------------------------------------------------------------------
 #N Geom=AllCheck Guess=TCheck SCRF=Check GenChk RB3LYP/ChkBas Freq
 ------------------------------------------------------------------
 1/10=4,29=7,30=1,38=1,40=1/1,3;
 2/12=2,40=1/2;
 3/5=7,6=2,11=2,14=-4,25=1,30=1,67=1,70=2,71=2,74=-5,82=7,116=1,140=1/1,2,3;
 4/5=101/1;
 5/5=2,38=6,98=1/2;
 8/6=4,10=90,11=11/1;
 11/6=1,8=1,9=11,15=111,16=1/1,2,10;
 10/6=1,60=-420/2;
 6/7=2,8=2,9=2,10=2,28=1/1;
 7/8=1,10=1,25=1/1,2,3,16;
 1/10=4,30=1/3;
 99//99;
 Structure from the checkpoint file:  "disiloxane.chk"
 ----------------------------
 disilyl ether, B3LYP/pcseg-2
 ----------------------------
 Charge =  0 Multiplicity = 1
 Redundant internal coordinates found in file.  (old form).
 O,0,0.,0.,0.176895
 Si,0,0.,1.617079,-0.030862
 Si,0,0.,-1.617079,-0.030862
 H,0,0.,2.276567,1.292716
 H,0,1.205936,2.030937,-0.784113
 H,0,-1.205936,2.030937,-0.784113
 H,0,0.,-2.276567,1.292716
 H,0,-1.205936,-2.030937,-0.784113
 H,0,1.205936,-2.030937,-0.784113
 Recover connectivity data from disk.

 GradGradGradGradGradGradGradGradGradGradGradGradGradGradGradGradGradGrad
 Berny optimization.
 Initialization pass.
                           ----------------------------
                           !    Initial Parameters    !
                           ! (Angstroms and Degrees)  !
 --------------------------                            --------------------------
 ! Name  Definition              Value          Derivative Info.                !
 --------------------------------------------------------------------------------
 ! R1    R(1,2)                  1.6304         calculate D2E/DX2 analytically  !
 ! R2    R(1,3)                  1.6304         calculate D2E/DX2 analytically  !
 ! R3    R(2,4)                  1.4788         calculate D2E/DX2 analytically  !
 ! R4    R(2,5)                  1.4809         calculate D2E/DX2 analytically  !
 ! R5    R(2,6)                  1.4809         calculate D2E/DX2 analytically  !
 ! R6    R(3,7)                  1.4788         calculate D2E/DX2 analytically  !
 ! R7    R(3,8)                  1.4809         calculate D2E/DX2 analytically  !
 ! R8    R(3,9)                  1.4809         calculate D2E/DX2 analytically  !
 ! A1    A(1,2,4)              109.1642         calculate D2E/DX2 analytically  !
 ! A2    A(1,2,5)              109.9994         calculate D2E/DX2 analytically  !
 ! A3    A(1,2,6)              109.9994         calculate D2E/DX2 analytically  !
 ! A4    A(4,2,5)              109.3075         calculate D2E/DX2 analytically  !
 ! A5    A(4,2,6)              109.3075         calculate D2E/DX2 analytically  !
 ! A6    A(5,2,6)              109.0459         calculate D2E/DX2 analytically  !
 ! A7    A(1,3,7)              109.1642         calculate D2E/DX2 analytically  !
 ! A8    A(1,3,8)              109.9994         calculate D2E/DX2 analytically  !
 ! A9    A(1,3,9)              109.9994         calculate D2E/DX2 analytically  !
 ! A10   A(7,3,8)              109.3075         calculate D2E/DX2 analytically  !
 ! A11   A(7,3,9)              109.3075         calculate D2E/DX2 analytically  !
 ! A12   A(8,3,9)              109.0459         calculate D2E/DX2 analytically  !
 ! A13   L(2,1,3,5,-1)         170.969          calculate D2E/DX2 analytically  !
 ! A14   L(2,1,3,5,-2)         199.0701         calculate D2E/DX2 analytically  !
 ! D1    D(4,2,3,7)              0.0            calculate D2E/DX2 analytically  !
 ! D2    D(4,2,3,8)            121.9897         calculate D2E/DX2 analytically  !
 ! D3    D(4,2,3,9)           -121.9897         calculate D2E/DX2 analytically  !
 ! D4    D(5,2,3,7)            121.9897         calculate D2E/DX2 analytically  !
 ! D5    D(5,2,3,8)           -116.0206         calculate D2E/DX2 analytically  !
 ! D6    D(5,2,3,9)              0.0            calculate D2E/DX2 analytically  !
 ! D7    D(6,2,3,7)           -121.9897         calculate D2E/DX2 analytically  !
 ! D8    D(6,2,3,8)              0.0            calculate D2E/DX2 analytically  !
 ! D9    D(6,2,3,9)            116.0206         calculate D2E/DX2 analytically  !
 --------------------------------------------------------------------------------
 Trust Radius=3.00D-01 FncErr=1.00D-07 GrdErr=1.00D-07 EigMax=2.50D+02 EigMin=1.00D-04
 Number of steps in this run=      2 maximum allowed number of steps=      2.
 GradGradGradGradGradGradGradGradGradGradGradGradGradGradGradGradGradGrad

                          Input orientation:                          
 ---------------------------------------------------------------------
 Center     Atomic      Atomic             Coordinates (Angstroms)
 Number     Number       Type             X           Y           Z
 ---------------------------------------------------------------------
      1          8           0       -0.000000   -0.000000    0.176895
      2         14           0        0.000000    1.617079   -0.030862
      3         14           0       -0.000000   -1.617079   -0.030862
      4          1           0        0.000000    2.276567    1.292716
      5          1           0        1.205936    2.030937   -0.784113
      6          1           0       -1.205936    2.030937   -0.784113
      7          1           0       -0.000000   -2.276567    1.292716
      8          1           0       -1.205936   -2.030937   -0.784113
      9          1           0        1.205936   -2.030937   -0.784113
 ---------------------------------------------------------------------
                    Distance matrix (angstroms):
                    1          2          3          4          5
     1  O    0.000000
     2  Si   1.630370   0.000000
     3  Si   1.630370   3.234158   0.000000
     4  H    2.535313   1.478778   4.112461   0.000000
     5  H    2.550005   1.480860   3.915315   2.414091   0.000000
     6  H    2.550005   1.480860   3.915315   2.414091   2.411872
     7  H    2.535313   4.112461   1.478778   4.553134   4.931743
     8  H    2.550005   3.915315   1.480860   4.931743   4.723976
     9  H    2.550005   3.915315   1.480860   4.931743   4.061874
                    6          7          8          9
     6  H    0.000000
     7  H    4.931743   0.000000
     8  H    4.061874   2.414091   0.000000
     9  H    4.723976   2.414091   2.411872   0.000000
 Stoichiometry    H6OSi2
 Framework group  C2V[C2(O),SGV(H2Si2),X(H4)]
 Deg. of freedom     7
 Full point group                 C2V     NOp   4
 Largest Abelian subgroup         C2V     NOp   4
 Largest concise Abelian subgroup C2V     NOp   4
                         Standard orientation:                         
 ---------------------------------------------------------------------
 Center     Atomic      Atomic             Coordinates (Angstroms)
 Number     Number       Type             X           Y           Z
 ---------------------------------------------------------------------
      1          8           0        0.000000    0.000000    0.176895
      2         14           0       -0.000000    1.617079   -0.030862
      3         14           0       -0.000000   -1.617079   -0.030862
      4          1           0        0.000000    2.276567    1.292716
      5          1           0        1.205936    2.030937   -0.784113
      6          1           0       -1.205936    2.030937   -0.784113
      7          1           0       -0.000000   -2.276567    1.292716
      8          1           0       -1.205936   -2.030937   -0.784113
      9          1           0        1.205936   -2.030937   -0.784113
 ---------------------------------------------------------------------
 Rotational constants (GHZ):          41.2232247           2.8193548           2.8109765
 Basis read from chk: "disiloxane.chk" (5D, 7F)
 There are    69 symmetry adapted cartesian basis functions of A1  symmetry.
 There are    34 symmetry adapted cartesian basis functions of A2  symmetry.
 There are    39 symmetry adapted cartesian basis functions of B1  symmetry.
 There are    61 symmetry adapted cartesian basis functions of B2  symmetry.
 There are    60 symmetry adapted basis functions of A1  symmetry.
 There are    32 symmetry adapted basis functions of A2  symmetry.
 There are    36 symmetry adapted basis functions of B1  symmetry.
 There are    54 symmetry adapted basis functions of B2  symmetry.
   182 basis functions,   299 primitive gaussians,   203 cartesian basis functions
    21 alpha electrons       21 beta electrons
       nuclear repulsion energy       158.3030855561 Hartrees.
 NAtoms=    9 NActive=    9 NUniq=    4 SFac= 4.00D+00 NAtFMM=   60 NAOKFM=F Big=F
 Integral buffers will be    131072 words long.
 Raffenetti 2 integral format.
 Two-electron integral symmetry is turned on.
 One-electron integrals computed using PRISM.
 NBasis=   182 RedAO= T EigKep=  2.10D-03  NBF=    60    32    36    54
 NBsUse=   182 1.00D-06 EigRej= -1.00D+00 NBFU=    60    32    36    54
 Initial guess from the checkpoint file:  "disiloxane.chk"
 B after Tr=    -0.000000   -0.000000   -0.000000
         Rot=    1.000000    0.000000   -0.000000    0.000000 Ang=   0.00 deg.
 Initial guess orbital symmetries:
       Occupied  (B2) (A1) (A1) (B2) (A1) (B2) (A1) (B1) (A2) (A1)
                 (B2) (A1) (B2) (A1) (B2) (A1) (B1) (B2) (A2) (A1)
                 (B1)
       Virtual   (A1) (A1) (B2) (A1) (B2) (A2) (B1) (B2) (B1) (A1)
                 (A2) (B2) (A1) (A1) (B2) (A2) (B2) (B1) (A1) (B2)
                 (A1) (B1) (A1) (B2) (A2) (B2) (B1) (A1) (A1) (B2)
                 (A2) (B1) (A1) (B1) (A2) (A1) (B2) (A2) (B2) (A1)
                 (B1) (B2) (A1) (B1) (A1) (B2) (A2) (B2) (A2) (A1)
                 (B2) (A1) (B2) (B1) (B1) (A1) (B2) (A1) (A2) (B2)
                 (A1) (A2) (B1) (B2) (A1) (A1) (B1) (A2) (B2) (B2)
                 (A1) (B1) (B1) (A2) (A1) (B2) (A2) (B2) (B1) (A1)
                 (A1) (B2) (B2) (A2) (A1) (B1) (A1) (B2) (A2) (B2)
                 (A1) (B1) (A1) (B1) (B2) (A1) (B2) (A2) (B1) (A2)
                 (A2) (B2) (A1) (B1) (B2) (A2) (B1) (A1) (A1) (B1)
                 (A1) (B2) (A1) (A2) (B2) (B1) (A1) (B2) (B1) (A1)
                 (A2) (A2) (A2) (B1) (B2) (B2) (A1) (B1) (A1) (A2)
                 (B2) (B2) (A2) (A1) (B1) (A1) (B1) (B2) (A2) (B2)
                 (A1) (B1) (B2) (A2) (A1) (B1) (A1) (B2) (A2) (A1)
                 (B2) (B1) (B2) (A1) (A1) (B1) (A2) (B2) (A1) (B2)
                 (A1)
 Keep R1 ints in memory in symmetry-blocked form, NReq=173551111.
 Requested convergence on RMS density matrix=1.00D-08 within 128 cycles.
 Requested convergence on MAX density matrix=1.00D-06.
 Requested convergence on             energy=1.00D-06.
 No special actions if energy rises.
 SCF Done:  E(RB3LYP) =  -658.006264731     A.U. after    1 cycles
            NFock=  1  Conv=0.16D-08     -V/T= 2.0012
 DoSCS=F DFT=T ScalE2(SS,OS)=  1.000000  1.000000
 Range of M.O.s used for correlation:     1   182
 NBasis=   182 NAE=    21 NBE=    21 NFC=     0 NFV=     0
 NROrb=    182 NOA=    21 NOB=    21 NVA=   161 NVB=   161
 Symmetrizing basis deriv contribution to polar:
 IMax=3 JMax=2 DiffMx= 0.00D+00
 G2DrvN: will do    10 centers at a time, making    1 passes.
 Calling FoFCou, ICntrl=  3107 FMM=F I1Cent=   0 AccDes= 0.00D+00.
 End of G2Drv F.D. properties file   721 does not exist.
 End of G2Drv F.D. properties file   722 does not exist.
 End of G2Drv F.D. properties file   788 does not exist.
          IDoAtm=111111111
          Differentiating once with respect to electric field.
                with respect to dipole field.
          Differentiating once with respect to nuclear coordinates.
 Keep R1 ints in memory in symmetry-blocked form, NReq=173556657.
          There are    15 degrees of freedom in the 1st order CPHF.  IDoFFX=4 NUNeed=    15.
     15 vectors produced by pass  0 Test12= 2.25D-14 6.67D-09 XBig12= 3.73D+01 2.78D+00.
 AX will form    15 AO Fock derivatives at one time.
     15 vectors produced by pass  1 Test12= 2.25D-14 6.67D-09 XBig12= 1.78D+00 3.75D-01.
     15 vectors produced by pass  2 Test12= 2.25D-14 6.67D-09 XBig12= 4.46D-02 4.50D-02.
     15 vectors produced by pass  3 Test12= 2.25D-14 6.67D-09 XBig12= 4.57D-04 4.86D-03.
     15 vectors produced by pass  4 Test12= 2.25D-14 6.67D-09 XBig12= 6.19D-06 4.44D-04.
     14 vectors produced by pass  5 Test12= 2.25D-14 6.67D-09 XBig12= 3.34D-08 4.91D-05.
      6 vectors produced by pass  6 Test12= 2.25D-14 6.67D-09 XBig12= 8.45D-11 2.65D-06.
      3 vectors produced by pass  7 Test12= 2.25D-14 6.67D-09 XBig12= 1.94D-13 1.15D-07.
 InvSVY:  IOpt=1 It=  1 EMax= 7.02D-16
 Solved reduced A of dimension    98 with    15 vectors.
 Isotropic polarizability for W=    0.000000       53.07 Bohr**3.
 End of Minotr F.D. properties file   721 does not exist.
 End of Minotr F.D. properties file   722 does not exist.
 End of Minotr F.D. properties file   788 does not exist.

 **********************************************************************

            Population analysis using the SCF Density.

 **********************************************************************

 Orbital symmetries:
       Occupied  (B2) (A1) (A1) (B2) (A1) (B2) (A1) (B1) (A2) (A1)
                 (B2) (A1) (B2) (A1) (B2) (A1) (B1) (B2) (A2) (A1)
                 (B1)
       Virtual   (A1) (A1) (B2) (A1) (B2) (A2) (B1) (B2) (B1) (A1)
                 (A2) (B2) (A1) (A1) (B2) (A2) (B2) (B1) (A1) (B2)
                 (A1) (B1) (A1) (B2) (A2) (B2) (B1) (A1) (A1) (B2)
                 (A2) (B1) (A1) (B1) (A2) (A1) (B2) (A2) (B2) (A1)
                 (B1) (B2) (A1) (B1) (A1) (B2) (A2) (B2) (A2) (A1)
                 (B2) (A1) (B2) (B1) (B1) (A1) (B2) (A1) (A2) (B2)
                 (A1) (A2) (B1) (B2) (A1) (A1) (B1) (A2) (B2) (B2)
                 (A1) (B1) (B1) (A2) (A1) (B2) (A2) (B2) (B1) (A1)
                 (A1) (B2) (B2) (A2) (A1) (B1) (A1) (B2) (A2) (B2)
                 (A1) (B1) (A1) (B1) (B2) (A1) (B2) (A2) (B1) (A2)
                 (A2) (B2) (A1) (B1) (B2) (A2) (B1) (A1) (A1) (B1)
                 (A1) (B2) (A1) (A2) (B2) (B1) (A1) (B2) (B1) (A1)
                 (A2) (A2) (A2) (B1) (B2) (B2) (A1) (B1) (A1) (A2)
                 (B2) (B2) (A2) (A1) (B1) (A1) (B1) (B2) (A2) (B2)
                 (A1) (B1) (B2) (A2) (A1) (B1) (A1) (B2) (A2) (A1)
                 (B2) (B1) (B2) (A1) (A1) (B1) (A2) (B2) (A1) (B2)
                 (A1)
 The electronic state is 1-A1.
 Alpha  occ. eigenvalues --  -66.10995 -66.10994 -19.12767  -5.29055  -5.29054
 Alpha  occ. eigenvalues --   -3.64958  -3.64958  -3.64747  -3.64746  -3.64742
 Alpha  occ. eigenvalues --   -3.64742  -1.00223  -0.60593  -0.50751  -0.44039
 Alpha  occ. eigenvalues --   -0.41634  -0.41616  -0.35430  -0.35382  -0.31318
 Alpha  occ. eigenvalues --   -0.31280
 Alpha virt. eigenvalues --   -0.01691   0.02229   0.02965   0.04418   0.04600
 Alpha virt. eigenvalues --    0.05033   0.05192   0.05890   0.10493   0.10679
 Alpha virt. eigenvalues --    0.12864   0.12961   0.19261   0.22622   0.24147
 Alpha virt. eigenvalues --    0.25758   0.26161   0.26429   0.27085   0.28811
 Alpha virt. eigenvalues --    0.33012   0.33660   0.36244   0.38690   0.40406
 Alpha virt. eigenvalues --    0.40915   0.60231   0.61428   0.65357   0.66283
 Alpha virt. eigenvalues --    0.66700   0.68191   0.69070   0.73720   0.73729
 Alpha virt. eigenvalues --    0.74515   0.74697   0.81697   0.82212   0.86182
 Alpha virt. eigenvalues --    0.87620   0.92820   0.98954   0.99484   1.02287
 Alpha virt. eigenvalues --    1.04003   1.05253   1.06233   1.14084   1.17965
 Alpha virt. eigenvalues --    1.18004   1.21050   1.21303   1.22819   1.28815
 Alpha virt. eigenvalues --    1.29727   1.32861   1.33864   1.36566   1.36922
 Alpha virt. eigenvalues --    1.53944   1.55121   1.56136   1.58963   1.66177
 Alpha virt. eigenvalues --    1.68902   1.69547   1.69906   1.71393   1.79485
 Alpha virt. eigenvalues --    1.85481   1.85683   1.87257   1.87494   1.87619
 Alpha virt. eigenvalues --    1.92763   1.94583   1.96080   2.05711   2.07087
 Alpha virt. eigenvalues --    2.19195   2.29433   2.45964   2.47338   2.48184
 Alpha virt. eigenvalues --    2.48553   2.55926   3.05183   3.14591   3.18488
 Alpha virt. eigenvalues --    3.18856   3.20560   3.34742   3.36477   3.41045
 Alpha virt. eigenvalues --    3.41796   3.47604   3.51548   3.76199   3.76205
 Alpha virt. eigenvalues --    3.78702   3.78734   3.78863   3.78995   3.83445
 Alpha virt. eigenvalues --    3.84799   3.88103   3.88610   3.90110   3.95137
 Alpha virt. eigenvalues --    3.95512   3.97625   4.03651   4.04431   4.05889
 Alpha virt. eigenvalues --    4.09282   4.09578   4.12360   4.12413   4.14503
 Alpha virt. eigenvalues --    4.14808   4.19350   4.20859   4.21149   4.24148
 Alpha virt. eigenvalues --    4.27561   4.35298   4.36235   4.37794   4.39469
 Alpha virt. eigenvalues --    4.40726   4.48141   4.52571   4.53651   4.54060
 Alpha virt. eigenvalues --    4.56635   4.61098   4.63787   4.67096   4.68215
 Alpha virt. eigenvalues --    4.69671   4.70456   4.81877   4.83989   4.94064
 Alpha virt. eigenvalues --    4.95388   5.00264   5.00451   5.09018   5.10030
 Alpha virt. eigenvalues --    5.11766   5.12499   5.14294   5.20555   6.07638
 Alpha virt. eigenvalues --    6.08497   6.61047   6.62923   7.02149  15.85122
 Alpha virt. eigenvalues --   15.89861
          Condensed to atoms (all electrons):
               1          2          3          4          5          6
     1  O    8.270193   0.314309   0.314309  -0.032477  -0.031721  -0.031721
     2  Si   0.314309  11.709114  -0.028474   0.393117   0.389008   0.389008
     3  Si   0.314309  -0.028474  11.709114   0.000361  -0.000655  -0.000655
     4  H   -0.032477   0.393117   0.000361   0.876992  -0.041000  -0.041000
     5  H   -0.031721   0.389008  -0.000655  -0.041000   0.886965  -0.041379
     6  H   -0.031721   0.389008  -0.000655  -0.041000  -0.041379   0.886965
     7  H   -0.032477   0.000361   0.393117   0.001164  -0.000462  -0.000462
     8  H   -0.031721  -0.000655   0.389008  -0.000462  -0.000543   0.002361
     9  H   -0.031721  -0.000655   0.389008  -0.000462   0.002361  -0.000543
               7          8          9
     1  O   -0.032477  -0.031721  -0.031721
     2  Si   0.000361  -0.000655  -0.000655
     3  Si   0.393117   0.389008   0.389008
     4  H    0.001164  -0.000462  -0.000462
     5  H   -0.000462  -0.000543   0.002361
     6  H   -0.000462   0.002361  -0.000543
     7  H    0.876992  -0.041000  -0.041000
     8  H   -0.041000   0.886965  -0.041379
     9  H   -0.041000  -0.041379   0.886965
 Mulliken charges:
               1
     1  O   -0.706971
     2  Si   0.834866
     3  Si   0.834866
     4  H   -0.156233
     5  H   -0.162574
     6  H   -0.162574
     7  H   -0.156233
     8  H   -0.162574
     9  H   -0.162574
 Sum of Mulliken charges =  -0.00000
 Mulliken charges with hydrogens summed into heavy atoms:
               1
     1  O   -0.706971
     2  Si   0.353486
     3  Si   0.353486
 APT charges:
               1
     1  O   -1.394132
     2  Si   1.575936
     3  Si   1.575936
     4  H   -0.288857
     5  H   -0.295006
     6  H   -0.295006
     7  H   -0.288857
     8  H   -0.295006
     9  H   -0.295006
 Sum of APT charges =   0.00000
 APT charges with hydrogens summed into heavy atoms:
               1
     1  O   -1.394132
     2  Si   0.697066
     3  Si   0.697066
 Electronic spatial extent (au):  <R**2>=            479.8209
 Charge=              0.0000 electrons
 Dipole moment (field-independent basis, Debye):
    X=             -0.0000    Y=              0.0000    Z=             -0.1621  Tot=              0.1621
 Quadrupole moment (field-independent basis, Debye-Ang):
   XX=            -36.4108   YY=            -34.6834   ZZ=            -36.4258
   XY=             -0.0000   XZ=              0.0000   YZ=             -0.0000
 Traceless Quadrupole moment (field-independent basis, Debye-Ang):
   XX=             -0.5708   YY=              1.1566   ZZ=             -0.5858
   XY=             -0.0000   XZ=              0.0000   YZ=             -0.0000
 Octapole moment (field-independent basis, Debye-Ang**2):
  XXX=              0.0000  YYY=              0.0000  ZZZ=             -0.3721  XYY=              0.0000
  XXY=              0.0000  XXZ=              3.2508  XZZ=              0.0000  YZZ=              0.0000
  YYZ=             -0.1598  XYZ=             -0.0000
 Hexadecapole moment (field-independent basis, Debye-Ang**3):
 XXXX=            -89.8279 YYYY=           -577.2876 ZZZZ=            -90.0897 XXXY=             -0.0000
 XXXZ=             -0.0000 YYYX=             -0.0000 YYYZ=             -0.0000 ZZZX=             -0.0000
 ZZZY=              0.0000 XXYY=           -122.0467 XXZZ=            -30.3975 YYZZ=           -123.4842
 XXYZ=             -0.0000 YYXZ=             -0.0000 ZZXY=             -0.0000
 N-N= 1.583030855561D+02 E-N=-1.882327645646D+03  KE= 6.572049563913D+02
 Symmetry A1   KE= 3.319620256463D+02
 Symmetry A2   KE= 2.632770915717D+01
 Symmetry B1   KE= 3.052747702656D+01
 Symmetry B2   KE= 2.683877445613D+02
  Exact polarizability:  51.584   0.000  55.954   0.000   0.000  51.670
 Approx polarizability:  67.023   0.000  62.663  -0.000  -0.000  67.278
 Calling FoFJK, ICntrl=    100127 FMM=F ISym2X=1 I1Cent= 0 IOpClX= 0 NMat=1 NMatS=1 NMatT=0.
 Full mass-weighted force constant matrix:
 Low frequencies ---   -5.9918   -1.4560    0.0031    0.0035    0.0040    1.9220
 Low frequencies ---   21.3412   36.8247   47.7525
 Diagonal vibrational polarizability:
      110.8859414      33.6974015      41.0044292
 Harmonic frequencies (cm**-1), IR intensities (KM/Mole), Raman scattering
 activities (A**4/AMU), depolarization ratios for plane and unpolarized
 incident light, reduced masses (AMU), force constants (mDyne/A),
 and normal coordinates:
                      1                      2                      3
                     B1                     A1                     A2
 Frequencies --     21.3341                36.8247                47.7521
 Red. masses --      3.3442                 4.0049                 1.0085
 Frc consts  --      0.0009                 0.0032                 0.0014
 IR Inten    --      1.6691                 1.4627                 0.0000
  Atom  AN      X      Y      Z        X      Y      Z        X      Y      Z
     1   8     0.36   0.00   0.00    -0.00  -0.00   0.40    -0.00  -0.00   0.00
     2  14    -0.08  -0.00  -0.00     0.00  -0.05  -0.09    -0.00  -0.00  -0.00
     3  14    -0.08   0.00  -0.00    -0.00   0.05  -0.09     0.00   0.00  -0.00
     4   1    -0.39   0.00  -0.00    -0.00   0.31  -0.28     0.40   0.00  -0.00
     5   1    -0.13   0.33   0.11    -0.00  -0.27  -0.21    -0.21  -0.04  -0.35
     6   1    -0.13  -0.33  -0.11     0.00  -0.27  -0.21    -0.21   0.04   0.35
     7   1    -0.39  -0.00  -0.00     0.00  -0.31  -0.28    -0.40  -0.00  -0.00
     8   1    -0.13   0.33  -0.11     0.00   0.27  -0.21     0.21   0.04  -0.35
     9   1    -0.13  -0.33   0.11    -0.00   0.27  -0.21     0.21  -0.04   0.35
                      4                      5                      6
                     A1                     A2                     B2
 Frequencies --    562.6877               720.6647               727.2422
 Red. masses --      6.2949                 1.1120                 1.1137
 Frc consts  --      1.1743                 0.3403                 0.3470
 IR Inten    --      0.3545                 0.0000                 0.6598
  Atom  AN      X      Y      Z        X      Y      Z        X      Y      Z
     1   8     0.00  -0.00   0.11     0.00  -0.00  -0.00    -0.00   0.00  -0.00
     2  14    -0.00   0.31  -0.02     0.04   0.00   0.00     0.00   0.00   0.04
     3  14     0.00  -0.31  -0.02    -0.04  -0.00   0.00     0.00   0.00  -0.04
     4   1     0.00   0.47  -0.10    -0.11   0.00  -0.00    -0.00   0.52  -0.22
     5   1    -0.01   0.29  -0.06    -0.14   0.47  -0.04     0.02  -0.29  -0.09
     6   1     0.01   0.29  -0.06    -0.14  -0.47   0.04    -0.02  -0.29  -0.09
     7   1    -0.00  -0.47  -0.10     0.11  -0.00  -0.00    -0.00   0.52   0.22
     8   1     0.01  -0.29  -0.06     0.14  -0.47  -0.04     0.02  -0.29   0.09
     9   1    -0.01  -0.29  -0.06     0.14   0.47   0.04    -0.02  -0.29   0.09
                      7                      8                      9
                     A1                     B1                     B2
 Frequencies --    750.6555               754.8508               968.1731
 Red. masses --      1.2371                 1.2459                 1.0551
 Frc consts  --      0.4107                 0.4183                 0.5827
 IR Inten    --    111.6858               119.0891                18.1262
  Atom  AN      X      Y      Z        X      Y      Z        X      Y      Z
     1   8    -0.00   0.00  -0.10    -0.10   0.00   0.00    -0.00  -0.01  -0.00
     2  14    -0.00   0.00   0.04     0.04  -0.00  -0.00    -0.00   0.01  -0.03
     3  14     0.00  -0.00   0.04     0.04  -0.00   0.00     0.00   0.01   0.03
     4   1     0.00   0.52  -0.22    -0.10  -0.00   0.00     0.00   0.07  -0.05
     5   1     0.02  -0.29  -0.08    -0.14   0.47  -0.03     0.29  -0.09   0.39
     6   1    -0.02  -0.29  -0.08    -0.14  -0.47   0.03    -0.29  -0.09   0.39
     7   1    -0.00  -0.52  -0.22    -0.10  -0.00  -0.00    -0.00   0.07   0.05
     8   1    -0.02   0.29  -0.08    -0.14   0.47   0.03     0.29  -0.09  -0.39
     9   1     0.02   0.29  -0.08    -0.14  -0.47  -0.03    -0.29  -0.09  -0.39
                     10                     11                     12
                     A2                     B2                     B1
 Frequencies --    968.3916               970.4690               973.0765
 Red. masses --      1.0511                 1.1567                 1.0535
 Frc consts  --      0.5807                 0.6419                 0.5877
 IR Inten    --      0.0000               811.5246               169.9887
  Atom  AN      X      Y      Z        X      Y      Z        X      Y      Z
     1   8    -0.00  -0.00  -0.00     0.00   0.03  -0.00     0.01   0.00  -0.00
     2  14    -0.03   0.00   0.00     0.00  -0.05  -0.00    -0.03  -0.00   0.00
     3  14     0.03   0.00   0.00     0.00  -0.05   0.00    -0.03  -0.00   0.00
     4   1     0.56  -0.00   0.00    -0.00   0.38  -0.20     0.56   0.00  -0.00
     5   1     0.09   0.15   0.25    -0.07   0.38   0.11     0.09   0.15   0.25
     6   1     0.09  -0.15  -0.25     0.07   0.38   0.11     0.09  -0.15  -0.25
     7   1    -0.56  -0.00  -0.00    -0.00   0.38   0.20     0.56   0.00   0.00
     8   1    -0.09  -0.15   0.25    -0.07   0.38  -0.11     0.09   0.15  -0.25
     9   1    -0.09   0.15  -0.25     0.07   0.38  -0.11     0.09  -0.15   0.25
                     13                     14                     15
                     A1                     A1                     B2
 Frequencies --    973.3451              1031.2523              1162.3553
 Red. masses --      1.0557                 1.1296                 8.0346
 Frc consts  --      0.5893                 0.7078                 6.3958
 IR Inten    --    169.6435                 4.5171               458.6275
  Atom  AN      X      Y      Z        X      Y      Z        X      Y      Z
     1   8     0.00   0.00   0.01     0.00   0.00  -0.00     0.00   0.62   0.00
     2  14    -0.00  -0.00  -0.03     0.00  -0.05   0.01    -0.00  -0.15   0.02
     3  14     0.00   0.00  -0.03    -0.00   0.05   0.01    -0.00  -0.15  -0.02
     4   1     0.00   0.13  -0.08    -0.00   0.35  -0.19     0.00  -0.31   0.13
     5   1     0.27  -0.01   0.41    -0.14   0.38   0.03     0.08  -0.28   0.01
     6   1    -0.27  -0.01   0.41     0.14   0.38   0.03    -0.08  -0.28   0.01
     7   1    -0.00  -0.13  -0.08     0.00  -0.35  -0.19     0.00  -0.31  -0.13
     8   1    -0.27   0.01   0.41     0.14  -0.38   0.03     0.08  -0.28  -0.01
     9   1     0.27   0.01   0.41    -0.14  -0.38   0.03    -0.08  -0.28  -0.01
                     16                     17                     18
[...]
                 (A2) (B2) (A1) (A1) (B2) (A2) (B2) (B1) (A1) (B2)
                 (A1) (B1) (A1) (B2) (A2) (B2) (B1) (A1) (A1) (B2)
                 (A2) (B1) (A1) (B1) (A2) (A1) (B2) (A2) (B2) (A1)
                 (B1) (B2) (A1) (B1) (A1) (B2) (A2) (B2) (A2) (A1)
                 (B2) (A1) (B2) (B1) (B1) (A1) (B2) (A1) (A2) (B2)
                 (A1) (A2) (B1) (B2) (A1) (A1) (B1) (A2) (B2) (B2)
                 (A1) (B1) (B1) (A2) (A1) (B2) (A2) (B2) (B1) (A1)
                 (A1) (B2) (B2) (A2) (A1) (B1) (A1) (B2) (A2) (B2)
                 (A1) (B1) (A1) (B1) (B2) (A1) (B2) (A2) (B1) (A2)
                 (A2) (B2) (A1) (B1) (B2) (A2) (B1) (A1) (A1) (B1)
                 (A1) (B2) (A1) (A2) (B2) (B1) (A1) (B2) (B1) (A1)
                 (A2) (A2) (A2) (B1) (B2) (B2) (A1) (B1) (A1) (A2)
                 (B2) (B2) (A2) (A1) (B1) (A1) (B1) (B2) (A2) (B2)
                 (A1) (B1) (B2) (A2) (A1) (B1) (A1) (B2) (A2) (A1)
                 (B2) (B1) (B2) (A1) (A1) (B1) (A2) (B2) (A1) (B2)
                 (A1) (A1) (A1) (A1) (A1) (A1) (A1) (A1) (A1) (A1)
                 (A1) (A1) (A1) (A1) (A1) (A1) (A1) (A1) (A1) (A1)
                 (A1) (A1) (A1) (A1) (A1) (A1) (A1) (A1) (A1) (A1)
                 (A1) (A1) (A1) (A1) (A1) (A2) (A2) (A2) (A2) (A2)
                 (A2) (A2) (A2) (A2) (A2) (A2) (A2) (A2) (A2) (A2)
                 (A2) (A2) (B1) (B1) (B1) (B1) (B1) (B1) (B1) (B1)
                 (B1) (B1) (B1) (B1) (B1) (B1) (B1) (B1) (B1) (B1)
                 (B1) (B1) (B1) (B2) (B2) (B2) (B2) (B2) (B2) (B2)
                 (B2) (B2) (B2) (B2) (B2) (B2) (B2) (B2) (B2) (B2)
                 (B2) (B2) (B2) (B2) (B2) (B2) (B2) (B2) (B2) (B2)
                 (B2) (B2) (B2) (B2)
 Requested convergence on RMS density matrix=1.00D-08 within 128 cycles.
 Requested convergence on MAX density matrix=1.00D-06.
 Requested convergence on             energy=1.00D-06.
 No special actions if energy rises.
 SCF Done:  E(ROHF) =  -656.389083571     A.U. after    9 cycles
            NFock=  9  Conv=0.51D-08     -V/T= 2.0002
 <Sx>= 0.0000 <Sy>= 0.0000 <Sz>= 0.0000 <S**2>=-0.0000 S=-0.0000
 <L.S>=  0.00000000000    
 Annihilation of the first spin contaminant:
 S**2 before annihilation     0.0000,   after     0.0000

 **********************************************************************

            Population analysis using the SCF Density.

 **********************************************************************

 Orbital symmetries:
       Occupied  (B2) (A1) (A1) (B2) (A1) (B2) (A1) (B1) (A2) (A1)
                 (B2) (A1) (B2) (A1) (B2) (B1) (A1) (B2) (A2) (A1)
                 (B1)
       Virtual   (B2) (A1) (B1) (A1) (A1) (A2) (B2) (B2) (A1) (A1)
                 (B1) (B2) (A2) (B2) (A1) (B1) (A1) (B2) (B1) (A1)
                 (B2) (A2) (A1) (B2) (B2) (A2) (A1) (A1) (B1) (B2)
                 (A2) (A1) (B2) (B1) (A1) (A1) (B2) (A1) (B1) (A2)
                 (B2) (B1) (B2) (A1) (B1) (A2) (A1) (B2) (A2) (B2)
                 (A1) (B2) (B1) (A1) (A2) (A1) (B1) (B2) (A2) (B2)
                 (A1) (B2) (B1) (A1) (A1) (B1) (A1) (B1) (B2) (A1)
                 (B1) (A2) (B2) (A2) (A1) (A2) (B2) (B1) (A1) (B2)
                 (A2) (A1) (B2) (A2) (B2) (B2) (A1) (B1) (B2) (A1)
                 (A2) (B1) (A1) (A1) (B2) (A1) (B2) (B1) (B1) (A2)
                 (A2) (B2) (A1) (A1) (B1) (A2) (B2) (B2) (A1) (B1)
                 (A1) (B1) (A2) (B2) (B1) (A1) (B2) (A1) (A2) (A2)
                 (B2) (A1) (B2) (B2) (B1) (A2) (A1) (B1) (B2) (B1)
                 (B1) (A1) (A2) (B2) (B2) (A2) (A1) (A1) (A2) (B1)
                 (A1) (B2) (B2) (A1) (A2) (A2) (A1) (B1) (B2) (B2)
                 (B1) (A1) (B2) (A1) (A2) (B1) (A1) (B1) (B2) (A1)
                 (A1) (B2) (B1) (B2) (A2) (A1) (A2) (B2) (B1) (A2)
                 (A1) (B2) (B1) (A1) (A2) (B1) (B2) (A1) (A2) (B2)
                 (B1) (A1) (A1) (B2) (B2) (A1) (A2) (B2) (A1) (B1)
                 (A1) (B1) (A1) (B2) (A2) (B2) (A2) (B2) (B1) (A1)
                 (A1) (B2) (B1) (A2) (B1) (A1) (A2) (B2) (A1) (A2)
                 (B1) (B2) (A1) (B2) (A1) (B1) (A1) (B2) (A2) (A1)
                 (B2) (B1) (A1) (B2) (A2) (B1) (A1) (B2) (A1) (B1)
                 (B2) (A1) (B2) (A2) (B1) (A1) (A1) (B1) (A2) (B2)
                 (B1) (A1) (B2) (A2) (A1) (B2) (B2) (A1) (B1) (A2)
                 (B2) (A1) (A1) (B2) (B2) (A2) (B1) (A1) (B2) (A1)
                 (B1) (A1) (B2) (A1)
 The electronic state is 1-A1.
 Alpha  occ. eigenvalues --  -68.79668 -68.79668 -20.55377  -6.14006  -6.14005
 Alpha  occ. eigenvalues --   -4.24732  -4.24730  -4.24678  -4.24677  -4.24676
 Alpha  occ. eigenvalues --   -4.24675  -1.33877  -0.80013  -0.67664  -0.59821
 Alpha  occ. eigenvalues --   -0.58733  -0.58721  -0.48765  -0.48696  -0.44982
 Alpha  occ. eigenvalues --   -0.44965
 Alpha virt. eigenvalues --    0.03615   0.04345   0.04803   0.04809   0.05689
 Alpha virt. eigenvalues --    0.06363   0.06394   0.10261   0.12670   0.13643
 Alpha virt. eigenvalues --    0.15003   0.15266   0.16130   0.16886   0.18669
 Alpha virt. eigenvalues --    0.19361   0.22142   0.23188   0.24756   0.25503
 Alpha virt. eigenvalues --    0.27002   0.27110   0.27152   0.28638   0.32904
 Alpha virt. eigenvalues --    0.33188   0.33856   0.35100   0.35643   0.36620
 Alpha virt. eigenvalues --    0.38843   0.39707   0.41066   0.42437   0.46407
 Alpha virt. eigenvalues --    0.47237   0.48820   0.50952   0.52558   0.52935
 Alpha virt. eigenvalues --    0.54599   0.54669   0.58095   0.60638   0.61921
 Alpha virt. eigenvalues --    0.61966   0.63168   0.63700   0.65861   0.65889
 Alpha virt. eigenvalues --    0.71448   0.72971   0.73888   0.73934   0.74041
 Alpha virt. eigenvalues --    0.79642   0.80089   0.80216   0.81795   0.82884
 Alpha virt. eigenvalues --    0.84368   0.90383   0.90886   0.94195   0.95781
 Alpha virt. eigenvalues --    0.97519   0.98072   0.99756   1.01855   1.02275
 Alpha virt. eigenvalues --    1.02420   1.04168   1.04722   1.05158   1.05355
 Alpha virt. eigenvalues --    1.06120   1.08530   1.09385   1.09555   1.10223
 Alpha virt. eigenvalues --    1.12580   1.12592   1.15865   1.18020   1.18047
 Alpha virt. eigenvalues --    1.23297   1.27496   1.30011   1.30665   1.32461
 Alpha virt. eigenvalues --    1.32931   1.33178   1.38153   1.39809   1.48387
 Alpha virt. eigenvalues --    1.50399   1.50892   1.55484   1.56909   1.58420
 Alpha virt. eigenvalues --    1.61859   1.62637   1.69140   1.72630   1.73205
 Alpha virt. eigenvalues --    1.76493   1.78528   1.84688   1.85351   1.85852
 Alpha virt. eigenvalues --    1.87022   1.87805   1.88676   1.88710   1.90068
 Alpha virt. eigenvalues --    1.90630   1.91853   1.93195   1.93897   1.94423
 Alpha virt. eigenvalues --    1.95303   1.98378   1.98707   2.00504   2.00691
 Alpha virt. eigenvalues --    2.00822   2.06331   2.08444   2.09480   2.09726
 Alpha virt. eigenvalues --    2.11570   2.12090   2.12143   2.13748   2.13817
 Alpha virt. eigenvalues --    2.14160   2.15168   2.16926   2.16963   2.18218
 Alpha virt. eigenvalues --    2.21193   2.31911   2.34360   2.36617   2.37133
 Alpha virt. eigenvalues --    2.42661   2.42822   2.44265   2.44644   2.50259
 Alpha virt. eigenvalues --    2.51793   2.54581   2.55448   2.60368   2.62213
 Alpha virt. eigenvalues --    2.64697   2.68244   2.69429   2.75528   2.76627
 Alpha virt. eigenvalues --    2.78003   2.79230   2.86566   2.88240   2.89427
 Alpha virt. eigenvalues --    2.98794   2.99026   3.00938   3.05741   3.12550
 Alpha virt. eigenvalues --    3.13082   3.14938   3.17791   3.18328   3.18490
 Alpha virt. eigenvalues --    3.18949   3.23722   3.24873   3.31130   3.35311
 Alpha virt. eigenvalues --    3.36096   3.38903   3.44014   3.53410   3.60626
 Alpha virt. eigenvalues --    3.62243   3.62363   3.65873   3.89437   3.95533
 Alpha virt. eigenvalues --    4.07991   4.17752   4.28935   4.42732   4.43471
 Alpha virt. eigenvalues --    4.59047   4.73901   4.74877   4.77630   4.78495
 Alpha virt. eigenvalues --    4.92834   5.17386   5.37897   5.38734   5.46154
 Alpha virt. eigenvalues --    5.47585   5.48200   5.48718   5.51998   5.57207
 Alpha virt. eigenvalues --    5.57424   5.57571   5.58866   5.64137   5.69513
 Alpha virt. eigenvalues --    6.11122   6.12102   6.14388   6.14575   6.39786
 Alpha virt. eigenvalues --    6.42401   6.99048   7.05613   7.23121   7.30371
 Alpha virt. eigenvalues --    7.46229   7.58683   7.68477   8.12181   8.23322
 Alpha virt. eigenvalues --    8.25808   8.32148   8.32585   8.33524   9.77497
 Alpha virt. eigenvalues --    9.83652   9.89641   9.90108   9.92768   9.93073
 Alpha virt. eigenvalues --   10.09058  10.09334  10.10811  10.11314  10.16248
 Alpha virt. eigenvalues --   10.18510  10.79291  11.35082  11.41586  11.61110
 Alpha virt. eigenvalues --   11.62446  11.80325  12.03936  12.56831  18.92095
 Alpha virt. eigenvalues --   18.92170  18.93409  18.94959  19.03384  19.08622
 Alpha virt. eigenvalues --   37.43015  37.50835  38.59005  42.01941
          Condensed to atoms (all electrons):
               1          2          3          4          5          6
     1  O    9.046966   0.177303   0.177303  -0.033616  -0.030882  -0.030882
     2  Si   0.177303  11.229796  -0.002210   0.431845   0.425349   0.425349
     3  Si   0.177303  -0.002210  11.229796  -0.000923  -0.000220  -0.000220
     4  H   -0.033616   0.431845  -0.000923   0.873977  -0.019142  -0.019142
     5  H   -0.030882   0.425349  -0.000220  -0.019142   0.881882  -0.019178
     6  H   -0.030882   0.425349  -0.000220  -0.019142  -0.019178   0.881882
     7  H   -0.033616  -0.000923   0.431845   0.000103  -0.000110  -0.000110
     8  H   -0.030882  -0.000220   0.425349  -0.000110  -0.000146   0.000268
     9  H   -0.030882  -0.000220   0.425349  -0.000110   0.000268  -0.000146
               7          8          9
     1  O   -0.033616  -0.030882  -0.030882
     2  Si  -0.000923  -0.000220  -0.000220
     3  Si   0.431845   0.425349   0.425349
     4  H    0.000103  -0.000110  -0.000110
     5  H   -0.000110  -0.000146   0.000268
     6  H   -0.000110   0.000268  -0.000146
     7  H    0.873977  -0.019142  -0.019142
     8  H   -0.019142   0.881882  -0.019178
     9  H   -0.019142  -0.019178   0.881882
          Atomic-Atomic Spin Densities.
               1          2          3          4          5          6
     1  O    0.000000   0.000000   0.000000   0.000000   0.000000   0.000000
     2  Si   0.000000   0.000000   0.000000   0.000000   0.000000   0.000000
     3  Si   0.000000   0.000000   0.000000   0.000000   0.000000   0.000000
     4  H    0.000000   0.000000   0.000000   0.000000   0.000000   0.000000
     5  H    0.000000   0.000000   0.000000   0.000000   0.000000   0.000000
     6  H    0.000000   0.000000   0.000000   0.000000   0.000000   0.000000
     7  H    0.000000   0.000000   0.000000   0.000000   0.000000   0.000000
     8  H    0.000000   0.000000   0.000000   0.000000   0.000000   0.000000
     9  H    0.000000   0.000000   0.000000   0.000000   0.000000   0.000000
               7          8          9
     1  O    0.000000   0.000000   0.000000
     2  Si   0.000000   0.000000   0.000000
     3  Si   0.000000   0.000000   0.000000
     4  H    0.000000   0.000000   0.000000
     5  H    0.000000   0.000000   0.000000
     6  H    0.000000   0.000000   0.000000
     7  H    0.000000   0.000000   0.000000
     8  H    0.000000   0.000000   0.000000
     9  H    0.000000   0.000000   0.000000
 Mulliken charges and spin densities:
               1          2
     1  O   -1.210815   0.000000
     2  Si   1.313931   0.000000
     3  Si   1.313931   0.000000
     4  H   -0.232881   0.000000
     5  H   -0.237821   0.000000
     6  H   -0.237821   0.000000
     7  H   -0.232881   0.000000
     8  H   -0.237821   0.000000
     9  H   -0.237821   0.000000
 Sum of Mulliken charges =  -0.00000   0.00000
 Mulliken charges and spin densities with hydrogens summed into heavy atoms:
               1          2
     1  O   -1.210815   0.000000
     2  Si   0.605407   0.000000
     3  Si   0.605407   0.000000
 Electronic spatial extent (au):  <R**2>=            479.9843
 Charge=              0.0000 electrons
 Dipole moment (field-independent basis, Debye):
    X=              0.0000    Y=             -0.0000    Z=             -0.1545  Tot=              0.1545
 Quadrupole moment (field-independent basis, Debye-Ang):
   XX=            -36.3037   YY=            -35.0967   ZZ=            -36.3394
   XY=             -0.0000   XZ=             -0.0000   YZ=              0.0000
 Traceless Quadrupole moment (field-independent basis, Debye-Ang):
   XX=             -0.3904   YY=              0.8165   ZZ=             -0.4261
   XY=             -0.0000   XZ=             -0.0000   YZ=              0.0000
 Octapole moment (field-independent basis, Debye-Ang**2):
  XXX=              0.0000  YYY=             -0.0000  ZZZ=             -0.3552  XYY=              0.0000
  XXY=             -0.0000  XXZ=              3.3844  XZZ=              0.0000  YZZ=             -0.0000
  YYZ=             -0.1501  XYZ=             -0.0000
 Hexadecapole moment (field-independent basis, Debye-Ang**3):
 XXXX=            -86.6764 YYYY=           -580.6670 ZZZZ=            -87.1424 XXXY=             -0.0000
 XXXZ=             -0.0000 YYYX=             -0.0000 YYYZ=              0.0000 ZZZX=             -0.0000
 ZZZY=             -0.0000 XXYY=           -122.0058 XXZZ=            -29.3129 YYZZ=           -123.5412
 XXYZ=             -0.0000 YYXZ=              0.0000 ZZXY=             -0.0000
 N-N= 1.583030855561D+02 E-N=-1.880911724221D+03  KE= 6.562699673395D+02
 Symmetry A1   KE= 3.317585639721D+02
 Symmetry A2   KE= 2.611096749734D+01
 Symmetry B1   KE= 3.024687053404D+01
 Symmetry B2   KE= 2.681535653359D+02
 Symmetry A1   SP= 0.000000000000D+00
 Symmetry A2   SP= 0.000000000000D+00
 Symmetry B1   SP= 0.000000000000D+00
 Symmetry B2   SP= 0.000000000000D+00
                          Isotropic Fermi Contact Couplings
        Atom                 a.u.       MegaHertz       Gauss      10(-4) cm-1
     1  O(17)              0.00000      -0.00000      -0.00000      -0.00000
     2  Si(29)             0.00000      -0.00000      -0.00000      -0.00000
     3  Si(29)             0.00000      -0.00000      -0.00000      -0.00000
     4  H(1)               0.00000       0.00000       0.00000       0.00000
     5  H(1)               0.00000       0.00000       0.00000       0.00000
     6  H(1)               0.00000       0.00000       0.00000       0.00000
     7  H(1)               0.00000       0.00000       0.00000       0.00000
     8  H(1)               0.00000       0.00000       0.00000       0.00000
     9  H(1)               0.00000       0.00000       0.00000       0.00000
 --------------------------------------------------------
       Center         ----  Spin Dipole Couplings  ----
                      3XX-RR        3YY-RR        3ZZ-RR
 --------------------------------------------------------
     1   Atom        0.000000      0.000000      0.000000
     2   Atom        0.000000      0.000000      0.000000
     3   Atom        0.000000      0.000000      0.000000
     4   Atom        0.000000      0.000000      0.000000
     5   Atom        0.000000      0.000000      0.000000
     6   Atom        0.000000      0.000000      0.000000
     7   Atom        0.000000      0.000000      0.000000
     8   Atom        0.000000      0.000000      0.000000
     9   Atom        0.000000      0.000000      0.000000
 --------------------------------------------------------
                        XY            XZ            YZ
 --------------------------------------------------------
     1   Atom        0.000000      0.000000      0.000000
     2   Atom        0.000000      0.000000      0.000000
     3   Atom        0.000000      0.000000      0.000000
     4   Atom        0.000000      0.000000      0.000000
     5   Atom        0.000000      0.000000      0.000000
     6   Atom        0.000000      0.000000      0.000000
     7   Atom        0.000000      0.000000      0.000000
     8   Atom        0.000000      0.000000      0.000000
     9   Atom        0.000000      0.000000      0.000000
 --------------------------------------------------------


 ---------------------------------------------------------------------------------
              Anisotropic Spin Dipole Couplings in Principal Axis System
 ---------------------------------------------------------------------------------

       Atom             a.u.   MegaHertz   Gauss  10(-4) cm-1        Axes

              Baa     0.0000    -0.000    -0.000    -0.000  1.0000  0.0000  0.0000
     1 O(17)  Bbb     0.0000    -0.000    -0.000    -0.000 -0.0000  1.0000  0.0000
              Bcc     0.0000    -0.000    -0.000    -0.000  0.0000  0.0000  1.0000
 
              Baa     0.0000    -0.000    -0.000    -0.000  1.0000  0.0000  0.0000
     2 Si(29) Bbb     0.0000    -0.000    -0.000    -0.000 -0.0000  1.0000  0.0000
              Bcc     0.0000    -0.000    -0.000    -0.000  0.0000  0.0000  1.0000
 
              Baa     0.0000    -0.000    -0.000    -0.000  1.0000  0.0000  0.0000
     3 Si(29) Bbb     0.0000    -0.000    -0.000    -0.000 -0.0000  1.0000  0.0000
              Bcc     0.0000    -0.000    -0.000    -0.000  0.0000  0.0000  1.0000
 
              Baa     0.0000     0.000     0.000     0.000  1.0000  0.0000  0.0000
     4 H(1)   Bbb     0.0000     0.000     0.000     0.000 -0.0000  1.0000  0.0000
              Bcc     0.0000     0.000     0.000     0.000  0.0000  0.0000  1.0000
 
              Baa     0.0000     0.000     0.000     0.000  1.0000  0.0000  0.0000
     5 H(1)   Bbb     0.0000     0.000     0.000     0.000 -0.0000  1.0000  0.0000
              Bcc     0.0000     0.000     0.000     0.000  0.0000  0.0000  1.0000
 
              Baa     0.0000     0.000     0.000     0.000  1.0000  0.0000  0.0000
     6 H(1)   Bbb     0.0000     0.000     0.000     0.000 -0.0000  1.0000  0.0000
              Bcc     0.0000     0.000     0.000     0.000  0.0000  0.0000  1.0000
 
              Baa     0.0000     0.000     0.000     0.000  1.0000  0.0000  0.0000
     7 H(1)   Bbb     0.0000     0.000     0.000     0.000 -0.0000  1.0000  0.0000
              Bcc     0.0000     0.000     0.000     0.000  0.0000  0.0000  1.0000
 
              Baa     0.0000     0.000     0.000     0.000  1.0000  0.0000  0.0000
     8 H(1)   Bbb     0.0000     0.000     0.000     0.000 -0.0000  1.0000  0.0000
              Bcc     0.0000     0.000     0.000     0.000  0.0000  0.0000  1.0000
 
              Baa     0.0000     0.000     0.000     0.000  1.0000  0.0000  0.0000
     9 H(1)   Bbb     0.0000     0.000     0.000     0.000 -0.0000  1.0000  0.0000
              Bcc     0.0000     0.000     0.000     0.000  0.0000  0.0000  1.0000
 

 ---------------------------------------------------------------------------------

 1\1\GINC-GAMBA\SP\ROHF\Gen\H6O1Si2\IRIKURA\30-Sep-2023\0\\# rohf/gen g
 eom=check guess=check\\disilyl ether, ROHF/cc-pVTZ-F12\\0,1\O,0,0.,0.,
 0.176895\Si,0,0.,1.617079,-0.030862\Si,0,0.,-1.617079,-0.030862\H,0,0.
 ,2.276567,1.292716\H,0,1.205936,2.030937,-0.784113\H,0,-1.205936,2.030
 937,-0.784113\H,0,0.,-2.276567,1.292716\H,0,-1.205936,-2.030937,-0.784
 113\H,0,1.205936,-2.030937,-0.784113\\Version=ES64L-G16RevB.01\State=1
 -A1\HF=-656.3890836\RMSD=5.139e-09\Dipole=0.,0.,-0.0607935\Quadrupole=
 -0.2902699,0.6070683,-0.3167984,0.,0.,0.\PG=C02V [C2(O1),SGV(H2Si2),X(
 H4)]\\@


 HIGGLEDY-PIGGLEDY
 NIC'LAUS COPERNICUS
 LOOKED AT THE UNIVERSE,
 SPOKE TO THE THRONG;
 GIVE UP YOUR PTOLOMY,
 RISE UP AND FOLLOW ME,
 HELIOCENTRICALLY
 PTOLEMY'S WRONG.
   -- NANCY L. STARK
 Job cpu time:       0 days  0 hours  1 minutes 47.8 seconds.
 Elapsed time:       0 days  0 hours  0 minutes 27.0 seconds.
 File lengths (MBytes):  RWF=     62 Int=      0 D2E=      0 Chk=      8 Scr=      1
 Normal termination of Gaussian 16 at Sat Sep 30 04:36:13 2023.
