 Entering Gaussian System, Link 0=g16
 AtFile(1): pcseg2.gbs
            -H     0
            S   4   1.00
                  0.754732D+02           0.427821D-02
                  0.113575D+02           0.328672D-01
                  0.260081D+01           0.159578D+00
                  0.735503D+00           0.500000D+00
            S   1   1.00
                  0.231761D+00           1.0000000
            S   1   1.00
                  0.741675D-01           1.0000000
            P   1   1.00
                  0.160000D+01           1.0000000
            P   1   1.00
                  0.450000D+00           1.0000000
            D   1   1.00
                  0.125000D+01           1.0000000
            ****
            -C     0
            S   7   1.00
                  0.731999D+04           0.695369D-03
                  0.109818D+04           0.537138D-02
                  0.250014D+03           0.274734D-01
                  0.707586D+02           0.105078D+00
                  0.228595D+02           0.291262D+00
                  0.803936D+01           0.500000D+00
                  0.289309D+01           0.362224D+00
            S   2   1.00
                  0.521640D+01          -0.957844D-01
                  0.556124D+00           0.500000D+00
            S   1   1.00
                  0.228813D+00           1.0000000
            S   1   1.00
                  0.936338D-01           1.0000000
            P   4   1.00
                  0.339855D+02           0.818395D-02
                  0.772957D+01           0.586921D-01
                  0.224954D+01           0.222514D+00
                  0.767681D+00           0.500000D+00
            P   1   1.00
                  0.263283D+00           1.0000000
            P   1   1.00
                  0.848744D-01           1.0000000
            D   1   1.00
                  0.140000D+01           1.0000000
            D   1   1.00
                  0.450000D+00           1.0000000
            F   1   1.00
                  0.950000D+00           1.0000000
            ****
            -O     0
            S   7   1.00
                  0.135887D+05           0.665492D-03
                  0.203847D+04           0.514222D-02
                  0.464041D+03           0.263472D-01
                  0.131339D+03           0.101500D+00
                  0.425340D+02           0.285877D+00
                  0.150429D+02           0.500000D+00
                  0.546616D+01           0.368211D+00
            S   2   1.00
                  0.100915D+02          -0.100084D+00
                  0.110429D+01           0.500000D+00
            S   1   1.00
                  0.448082D+00           1.0000000
            S   1   1.00
                  0.175325D+00           1.0000000
            P   4   1.00
                  0.608220D+02           0.908253D-02
                  0.140332D+02           0.645878D-01
                  0.418244D+01           0.241502D+00
                  0.142490D+01           0.500000D+00
            P   1   1.00
                  0.478741D+00           1.0000000
            P   1   1.00
                  0.146257D+00           1.0000000
            D   1   1.00
                  0.220000D+01           1.0000000
            D   1   1.00
                  0.650000D+00           1.0000000
            F   1   1.00
                  0.110000D+01           1.0000000
            ****
            -N     0
            S   7   1.00
                  0.101643D+05           0.682757D-03
                  0.152481D+04           0.527488D-02
                  0.347119D+03           0.270037D-01
                  0.982389D+02           0.103673D+00
                  0.317799D+02           0.289575D+00
                  0.112240D+02           0.500000D+00
                  0.406611D+01           0.364621D+00
            S   2   1.00
                  0.747898D+01          -0.975681D-01
                  0.805040D+00           0.500000D+00
            S   1   1.00
                  0.324626D+00           1.0000000
            S   1   1.00
                  0.128132D+00           1.0000000
            P   4   1.00
                  0.482704D+02           0.829547D-02
                  0.110815D+02           0.596223D-01
                  0.326643D+01           0.227889D+00
                  0.111680D+01           0.500000D+00
            P   1   1.00
                  0.382049D+00           1.0000000
            P   1   1.00
                  0.121222D+00           1.0000000
            D   1   1.00
                  0.180000D+01           1.0000000
            D   1   1.00
                  0.550000D+00           1.0000000
            F   1   1.00
                  0.102000D+01           1.0000000
            ****
            -F     0
            S   7   1.00
                  0.174507D+05           0.655972D-03
                  0.261768D+04           0.506944D-02
                  0.595857D+03           0.259899D-01
                  0.168651D+03           0.100353D+00
                  0.546654D+02           0.284095D+00
                  0.193717D+02           0.500000D+00
                  0.706202D+01           0.370721D+00
            S   2   1.00
                  0.131197D+02          -0.101997D+00
                  0.145046D+01           0.500000D+00
            S   1   1.00
                  0.588255D+00           1.0000000
            S   1   1.00
                  0.227960D+00           1.0000000
            P   4   1.00
                  0.779407D+02           0.931135D-02
                  0.180425D+02           0.663964D-01
                  0.542342D+01           0.246386D+00
                  0.184876D+01           0.500000D+00
            P   1   1.00
                  0.617455D+00           1.0000000
            P   1   1.00
                  0.185496D+00           1.0000000
            D   1   1.00
                  0.280000D+01           1.0000000
            D   1   1.00
                  0.800000D+00           1.0000000
            F   1   1.00
                  0.120000D+01           1.0000000
            ****
            -Cl     0
            S   8   1.00
                  0.154272D+06           0.222473D-03
                  0.231232D+05           0.172590D-02
                  0.526257D+04           0.899286D-02
                  0.148995D+04           0.367724D-01
                  0.485417D+03           0.121446D+00
                  0.174634D+03           0.304148D+00
                  0.672393D+02           0.500000D+00
                  0.265780D+02           0.360252D+00
            S   3   1.00
                  0.131826D+03          -0.531330D-01
                  0.400703D+02          -0.233346D+00
                  0.789448D+01           0.500000D+00
            S   2   1.00
                  0.427711D+01           0.500000D+00
                  0.196233D+01           0.370517D+00
            S   1   1.00
                  0.520793D+00           1.0000000
            S   1   1.00
                  0.181633D+00           1.0000000
            P   7   1.00
                  0.124440D+04           0.988206D-03
                  0.295109D+03           0.829674D-02
                  0.947224D+02           0.430906D-01
                  0.352588D+02           0.148443D+00
                  0.144211D+02           0.344744D+00
                  0.610371D+01           0.500000D+00
                  0.258886D+01           0.348278D+00
            P   2   1.00
                  0.109447D+02          -0.196768D-01
                  0.104413D+01           0.500000D+00
            P   1   1.00
                  0.376184D+00           1.0000000
            P   1   1.00
                  0.120613D+00           1.0000000
            D   1   1.00
                  0.231000D+01           1.0000000
            D   1   1.00
                  0.520000D+00           1.0000000
            F   1   1.00
                  0.720000D+00           1.0000000
            ****
            -S     0
            S   8   1.00
                  0.134700D+06           0.226231D-03
                  0.201904D+05           0.175488D-02
                  0.459528D+04           0.914190D-02
                  0.130109D+04           0.373551D-01
                  0.423902D+03           0.123121D+00
                  0.152485D+03           0.306801D+00
                  0.586925D+02           0.500000D+00
                  0.231461D+02           0.354358D+00
            S   3   1.00
                  0.116327D+03          -0.491772D-01
                  0.352841D+02          -0.215962D+00
                  0.677831D+01           0.500000D+00
            S   2   1.00
                  0.360404D+01           0.500000D+00
                  0.164871D+01           0.366278D+00
            S   1   1.00
                  0.421821D+00           1.0000000
            S   1   1.00
                  0.147554D+00           1.0000000
            P   7   1.00
                  0.104863D+04           0.105273D-02
                  0.248717D+03           0.879338D-02
                  0.797887D+02           0.453358D-01
                  0.296023D+02           0.154476D+00
                  0.120627D+02           0.352366D+00
                  0.507628D+01           0.500000D+00
                  0.213375D+01           0.346429D+00
            P   2   1.00
                  0.928958D+01          -0.185932D-01
                  0.837819D+00           0.500000D+00
            P   1   1.00
                  0.301495D+00           1.0000000
            P   1   1.00
                  0.974740D-01           1.0000000
            D   1   1.00
                  0.210000D+01           1.0000000
            D   1   1.00
                  0.480000D+00           1.0000000
            F   1   1.00
                  0.660000D+00           1.0000000
            ****
            -Br     0
            S    10   1.00
                  0.233625D+07           0.532336D-04
                  0.349961D+06           0.413715D-03
                  0.796444D+05           0.217123D-02
                  0.225555D+05           0.910109D-02
                  0.735546D+04           0.323789D-01
                  0.265352D+04           0.988755D-01
                  0.103517D+04           0.248138D+00
                  0.422205D+03           0.474328D+00
                  0.180035D+03           0.500000D+00
                  0.793308D+02           0.187769D+00
            S    4   1.00
                  0.620834D+03          -0.226511D-01
                  0.190829D+03          -0.109497D+00
                  0.312505D+02           0.500000D+00
                  0.135270D+02           0.492812D+00
            S    2   1.00
                  0.216097D+02          -0.165418D+00
                  0.372566D+01           0.500000D+00
            S    1   1.00
                  0.169770D+01           1.0000000
            S    1   1.00
                  0.489332D+00           1.0000000
            S    1   1.00
                  0.175712D+00           1.0000000
            P    8   1.00
                  0.960829D+04           0.478974D-03
                  0.227618D+04           0.417853D-02
                  0.736723D+03           0.229315D-01
                  0.281579D+03           0.892653D-01
                  0.118395D+03           0.255288D+00
                  0.527481D+02           0.479074D+00
                  0.245098D+02           0.500000D+00
                  0.112009D+02           0.200944D+00
            P    4   1.00
                  0.587849D+02          -0.189674D-01
                  0.918962D+01           0.264104D+00
                  0.413895D+01           0.500000D+00
                  0.184225D+01           0.319316D+00
            P    1   1.00
                  0.713862D+00           1.0000000
            P    1   1.00
                  0.274232D+00           1.0000000
            P    1   1.00
                  0.944411D-01           1.0000000
            D    7   1.00
                  0.398470D+03           0.204066D-02
                  0.118967D+03           0.175171D-01
                  0.450197D+02           0.829708D-01
                  0.190320D+02           0.236284D+00
                  0.855686D+01           0.428468D+00
                  0.382950D+01           0.500000D+00
                  0.166291D+01           0.349360D+00
            D    1   1.00
                  0.672953D+00           1.0000000
            D    1   1.00
                  0.252000D+00           1.0000000
            F    1   1.00
                  0.530000D+00           1.0000000
            ****
            -Si     0
            S    8   1.00
                  0.996133D+05           0.235546D-03
                  0.149311D+05           0.182707D-02
                  0.339820D+04           0.951425D-02
                  0.962140D+03           0.388172D-01
                  0.313430D+03           0.127328D+00
                  0.112683D+03           0.313522D+00
                  0.433372D+02           0.500000D+00
                  0.170029D+02           0.340347D+00
            S    3   1.00
                  0.884208D+02          -0.404451D-01
                  0.266756D+02          -0.178059D+00
                  0.479640D+01           0.500000D+00
            S    2   1.00
                  0.239385D+01           0.500000D+00
                  0.108333D+01           0.338016D+00
            S    1   1.00
                  0.252420D+00           1.0000000
            S    1   1.00
                  0.891210D-01           1.0000000
            P    7   1.00
                  0.709901D+03           0.123028D-02
                  0.168426D+03           0.101366D-01
                  0.539946D+02           0.511840D-01
                  0.198646D+02           0.169967D+00
                  0.801369D+01           0.370717D+00
                  0.331870D+01           0.500000D+00
                  0.136112D+01           0.344128D+00
            P    2   1.00
                  0.622158D+01          -0.166609D-01
                  0.503049D+00           0.500000D+00
            P    1   1.00
                  0.179848D+00           1.0000000
            P    1   1.00
                  0.591912D-01           1.0000000
            D    1   1.00
                  0.168000D+01           1.0000000
            D    1   1.00
                  0.380000D+00           1.0000000
            F    1   1.00
                  0.540000D+00           1.0000000
            ****
            -P     0
            S    8   1.00
                  0.116416D+06           0.230715D-03
                  0.174500D+05           0.178960D-02
                  0.397149D+04           0.932116D-02
                  0.112447D+04           0.380591D-01
                  0.366347D+03           0.125148D+00
                  0.131757D+03           0.310022D+00
                  0.506988D+02           0.500000D+00
                  0.199436D+02           0.347528D+00
            S    3   1.00
                  0.101878D+03          -0.446755D-01
                  0.308249D+02          -0.196376D+00
                  0.573688D+01           0.500000D+00
            S    2   1.00
                  0.296868D+01           0.500000D+00
                  0.135315D+01           0.355098D+00
            S    1   1.00
                  0.332196D+00           1.0000000
            S    1   1.00
                  0.116229D+00           1.0000000
            P    7   1.00
                  0.873928D+03           0.112375D-02
                  0.207298D+03           0.933330D-02
                  0.664628D+02           0.477213D-01
                  0.245665D+02           0.160733D+00
                  0.996820D+01           0.359760D+00
                  0.416536D+01           0.500000D+00
                  0.173022D+01           0.346593D+00
            P    2   1.00
                  0.772530D+01          -0.175718D-01
                  0.657252D+00           0.500000D+00
            P    1   1.00
                  0.239903D+00           1.0000000
            P    1   1.00
                  0.800988D-01           1.0000000
            D    1   1.00
                  0.189000D+01           1.0000000
            D    1   1.00
                  0.430000D+00           1.0000000
            F    1   1.00
                  0.600000D+00           1.0000000
            ****
            
 Initial command:
 /usr/local/apps/g16_b01_avx/g16/l1.exe "/wrk/irikura/Gau-183825.inp" -scrdir="/wrk/irikura/"
 Entering Link 1 = /usr/local/apps/g16_b01_avx/g16/l1.exe PID=    183827.
  
 Copyright (c) 1988-2017, Gaussian, Inc.  All Rights Reserved.
  
 This is part of the Gaussian(R) 16 program.  It is based on
 the Gaussian(R) 09 system (copyright 2009, Gaussian, Inc.),
 the Gaussian(R) 03 system (copyright 2003, Gaussian, Inc.),
 the Gaussian(R) 98 system (copyright 1998, Gaussian, Inc.),
 the Gaussian(R) 94 system (copyright 1995, Gaussian, Inc.),
 the Gaussian 92(TM) system (copyright 1992, Gaussian, Inc.),
 the Gaussian 90(TM) system (copyright 1990, Gaussian, Inc.),
 the Gaussian 88(TM) system (copyright 1988, Gaussian, Inc.),
 the Gaussian 86(TM) system (copyright 1986, Carnegie Mellon
 University), and the Gaussian 82(TM) system (copyright 1983,
 Carnegie Mellon University). Gaussian is a federally registered
 trademark of Gaussian, Inc.
  
 This software contains proprietary and confidential information,
 including trade secrets, belonging to Gaussian, Inc.
  
 This software is provided under written license and may be
 used, copied, transmitted, or stored only in accord with that
 written license.
  
 The following legend is applicable only to US Government
 contracts under FAR:
  
                    RESTRICTED RIGHTS LEGEND
  
 Use, reproduction and disclosure by the US Government is
 subject to restrictions as set forth in subparagraphs (a)
 and (c) of the Commercial Computer Software - Restricted
 Rights clause in FAR 52.227-19.
  
 Gaussian, Inc.
 340 Quinnipiac St., Bldg. 40, Wallingford CT 06492
  
  
 ---------------------------------------------------------------
 Warning -- This program may not be used in any manner that
 competes with the business of Gaussian, Inc. or will provide
 assistance to any competitor of Gaussian, Inc.  The licensee
 of this program is prohibited from giving any competitor of
 Gaussian, Inc. access to this program.  By using this program,
 the user acknowledges that Gaussian, Inc. is engaged in the
 business of creating and licensing software in the field of
 computational chemistry and represents and warrants to the
 licensee that it is not a competitor of Gaussian, Inc. and that
 it will not use this program in any manner prohibited above.
 ---------------------------------------------------------------
  

 Cite this work as:
 Gaussian 16, Revision B.01,
 M. J. Frisch, G. W. Trucks, H. B. Schlegel, G. E. Scuseria, 
 M. A. Robb, J. R. Cheeseman, G. Scalmani, V. Barone, 
 G. A. Petersson, H. Nakatsuji, X. Li, M. Caricato, A. V. Marenich, 
 J. Bloino, B. G. Janesko, R. Gomperts, B. Mennucci, H. P. Hratchian, 
 J. V. Ortiz, A. F. Izmaylov, J. L. Sonnenberg, D. Williams-Young, 
 F. Ding, F. Lipparini, F. Egidi, J. Goings, B. Peng, A. Petrone, 
 T. Henderson, D. Ranasinghe, V. G. Zakrzewski, J. Gao, N. Rega, 
 G. Zheng, W. Liang, M. Hada, M. Ehara, K. Toyota, R. Fukuda, 
 J. Hasegawa, M. Ishida, T. Nakajima, Y. Honda, O. Kitao, H. Nakai, 
 T. Vreven, K. Throssell, J. A. Montgomery, Jr., J. E. Peralta, 
 F. Ogliaro, M. J. Bearpark, J. J. Heyd, E. N. Brothers, K. N. Kudin, 
 V. N. Staroverov, T. A. Keith, R. Kobayashi, J. Normand, 
 K. Raghavachari, A. P. Rendell, J. C. Burant, S. S. Iyengar, 
 J. Tomasi, M. Cossi, J. M. Millam, M. Klene, C. Adamo, R. Cammi, 
 J. W. Ochterski, R. L. Martin, K. Morokuma, O. Farkas, 
 J. B. Foresman, and D. J. Fox, Gaussian, Inc., Wallingford CT, 2016.
 
 ******************************************
 Gaussian 16:  ES64L-G16RevB.01 20-Dec-2017
                16-Sep-2023 
 ******************************************
 %mem=1000mw
 %nprocs=12
 Will use up to   12 processors via shared memory.
 ---------------------------------------
 # b3lyp/gen opt freq CPHF(Grid=OneStep)
 ---------------------------------------
 1/18=20,19=15,26=3,38=1/1,3;
 2/9=110,12=2,17=6,18=5,40=1/2;
 3/5=7,11=2,25=1,30=1,71=1,74=-5/1,2,3;
 4//1;
 5/5=2,38=5/2;
 6/7=2,8=2,9=2,10=2,28=1/1;
 7//1,2,3,16;
 1/18=20,19=15,26=3/3(2);
 2/9=110/2;
 99//99;
 2/9=110/2;
 3/5=7,6=1,11=2,25=1,30=1,71=1,74=-5,82=7/1,2,3;
 4/5=5,16=3,69=1/1;
 5/5=2,38=5/2;
 7//1,2,3,16;
 1/18=20,19=15,26=3/3(-5);
 2/9=110/2;
 6/7=2,8=2,9=2,10=2,19=2,28=1/1;
 99/9=1/99;
 ----------------------------
 disilyl ether, B3LYP/pcseg-2
 ----------------------------
 Symbolic Z-matrix:
 Charge =  0 Multiplicity = 1
 O                     0.        0.26201   0. 
 Si                    1.60126  -0.05865   0. 
 Si                   -1.60126  -0.05865   0. 
 H                     2.34216   1.22452   0. 
 H                     1.97117  -0.83779   1.20814 
 H                     1.97117  -0.83779  -1.20814 
 H                    -2.34216   1.22452   0. 
 H                    -1.97117  -0.83779  -1.20814 
 H                    -1.97117  -0.83779   1.20814 
 

 GradGradGradGradGradGradGradGradGradGradGradGradGradGradGradGradGradGrad
 Berny optimization.
 Initialization pass.
                           ----------------------------
                           !    Initial Parameters    !
                           ! (Angstroms and Degrees)  !
 --------------------------                            --------------------------
 ! Name  Definition              Value          Derivative Info.                !
 --------------------------------------------------------------------------------
 ! R1    R(1,2)                  1.6331         estimate D2E/DX2                !
 ! R2    R(1,3)                  1.6331         estimate D2E/DX2                !
 ! R3    R(2,4)                  1.4817         estimate D2E/DX2                !
 ! R4    R(2,5)                  1.4844         estimate D2E/DX2                !
 ! R5    R(2,6)                  1.4844         estimate D2E/DX2                !
 ! R6    R(3,7)                  1.4817         estimate D2E/DX2                !
 ! R7    R(3,8)                  1.4844         estimate D2E/DX2                !
 ! R8    R(3,9)                  1.4844         estimate D2E/DX2                !
 ! A1    A(2,1,3)              157.3523         estimate D2E/DX2                !
 ! A2    A(1,2,4)              108.678          estimate D2E/DX2                !
 ! A3    A(1,2,5)              110.3288         estimate D2E/DX2                !
 ! A4    A(1,2,6)              110.3288         estimate D2E/DX2                !
 ! A5    A(4,2,5)              109.2654         estimate D2E/DX2                !
 ! A6    A(4,2,6)              109.2654         estimate D2E/DX2                !
 ! A7    A(5,2,6)              108.9539         estimate D2E/DX2                !
 ! A8    A(1,3,7)              108.678          estimate D2E/DX2                !
 ! A9    A(1,3,8)              110.3288         estimate D2E/DX2                !
 ! A10   A(1,3,9)              110.3288         estimate D2E/DX2                !
 ! A11   A(7,3,8)              109.2654         estimate D2E/DX2                !
 ! A12   A(7,3,9)              109.2654         estimate D2E/DX2                !
 ! A13   A(8,3,9)              108.9539         estimate D2E/DX2                !
 ! D1    D(3,1,2,4)            180.0            estimate D2E/DX2                !
 ! D2    D(3,1,2,5)            -60.2204         estimate D2E/DX2                !
 ! D3    D(3,1,2,6)             60.2204         estimate D2E/DX2                !
 ! D4    D(2,1,3,7)            180.0            estimate D2E/DX2                !
 ! D5    D(2,1,3,8)            -60.2204         estimate D2E/DX2                !
 ! D6    D(2,1,3,9)             60.2204         estimate D2E/DX2                !
 --------------------------------------------------------------------------------
 Trust Radius=3.00D-01 FncErr=1.00D-07 GrdErr=1.00D-06 EigMax=2.50D+02 EigMin=1.00D-04
 Number of steps in this run=     37 maximum allowed number of steps=    100.
 GradGradGradGradGradGradGradGradGradGradGradGradGradGradGradGradGradGrad

                          Input orientation:                          
 ---------------------------------------------------------------------
 Center     Atomic      Atomic             Coordinates (Angstroms)
 Number     Number       Type             X           Y           Z
 ---------------------------------------------------------------------
      1          8           0        0.000000    0.262008    0.000000
      2         14           0        1.601262   -0.058649    0.000000
      3         14           0       -1.601262   -0.058649    0.000000
      4          1           0        2.342156    1.224521    0.000000
      5          1           0        1.971172   -0.837786    1.208138
      6          1           0        1.971172   -0.837786   -1.208138
      7          1           0       -2.342156    1.224521    0.000000
      8          1           0       -1.971172   -0.837786   -1.208138
      9          1           0       -1.971172   -0.837786    1.208138
 ---------------------------------------------------------------------
                    Distance matrix (angstroms):
                    1          2          3          4          5
     1  O    0.000000
     2  Si   1.633053   0.000000
     3  Si   1.633053   3.202524   0.000000
     4  H    2.532218   1.481705   4.146935   0.000000
     5  H    2.560208   1.484414   3.850836   2.418747   0.000000
     6  H    2.560208   1.484414   3.850836   2.418747   2.416276
     7  H    2.532218   4.146935   1.481705   4.684312   4.931278
     8  H    2.560208   3.850836   1.484414   4.931278   4.623902
     9  H    2.560208   3.850836   1.484414   4.931278   3.942344
                    6          7          8          9
     6  H    0.000000
     7  H    4.931278   0.000000
     8  H    3.942344   2.418747   0.000000
     9  H    4.623902   2.418747   2.416276   0.000000
 Stoichiometry    H6OSi2
 Framework group  C2V[C2(O),SGV(H2Si2),X(H4)]
 Deg. of freedom     7
 Full point group                 C2V     NOp   4
 Largest Abelian subgroup         C2V     NOp   4
 Largest concise Abelian subgroup C2V     NOp   4
                         Standard orientation:                         
 ---------------------------------------------------------------------
 Center     Atomic      Atomic             Coordinates (Angstroms)
 Number     Number       Type             X           Y           Z
 ---------------------------------------------------------------------
      1          8           0        0.000000    0.000000    0.272680
      2         14           0        0.000000    1.601262   -0.047977
      3         14           0       -0.000000   -1.601262   -0.047977
      4          1           0        0.000000    2.342156    1.235193
      5          1           0        1.208138    1.971172   -0.827114
      6          1           0       -1.208138    1.971172   -0.827114
      7          1           0       -0.000000   -2.342156    1.235193
      8          1           0       -1.208138   -1.971172   -0.827114
      9          1           0        1.208138   -1.971172   -0.827114
 ---------------------------------------------------------------------
 Rotational constants (GHZ):          38.7963947           2.8702822           2.8499155
 General basis read from cards:  (5D, 7F)
 There are    69 symmetry adapted cartesian basis functions of A1  symmetry.
 There are    34 symmetry adapted cartesian basis functions of A2  symmetry.
 There are    39 symmetry adapted cartesian basis functions of B1  symmetry.
 There are    61 symmetry adapted cartesian basis functions of B2  symmetry.
 There are    60 symmetry adapted basis functions of A1  symmetry.
 There are    32 symmetry adapted basis functions of A2  symmetry.
 There are    36 symmetry adapted basis functions of B1  symmetry.
 There are    54 symmetry adapted basis functions of B2  symmetry.
   182 basis functions,   299 primitive gaussians,   203 cartesian basis functions
    21 alpha electrons       21 beta electrons
       nuclear repulsion energy       158.5141888607 Hartrees.
 NAtoms=    9 NActive=    9 NUniq=    4 SFac= 4.00D+00 NAtFMM=   60 NAOKFM=F Big=F
 Integral buffers will be    131072 words long.
 Raffenetti 2 integral format.
 Two-electron integral symmetry is turned on.
 One-electron integrals computed using PRISM.
 NBasis=   182 RedAO= T EigKep=  2.45D-03  NBF=    60    32    36    54
 NBsUse=   182 1.00D-06 EigRej= -1.00D+00 NBFU=    60    32    36    54
 ExpMin= 5.92D-02 ExpMax= 9.96D+04 ExpMxC= 9.62D+02 IAcc=3 IRadAn=         5 AccDes= 0.00D+00
 Harris functional with IExCor=  402 and IRadAn=       5 diagonalized for initial guess.
 HarFok:  IExCor=  402 AccDes= 0.00D+00 IRadAn=         5 IDoV= 1 UseB2=F ITyADJ=14
 ICtDFT=  3500011 ScaDFX=  1.000000  1.000000  1.000000  1.000000
 FoFCou: FMM=F IPFlag=           0 FMFlag=      100000 FMFlg1=           0
         NFxFlg=           0 DoJE=T BraDBF=F KetDBF=T FulRan=T
         wScrn=  0.000000 ICntrl=       500 IOpCl=  0 I1Cent=   200000004 NGrid=           0
         NMat0=    1 NMatS0=      1 NMatT0=    0 NMatD0=    1 NMtDS0=    0 NMtDT0=    0
 Petite list used in FoFCou.
 Initial guess orbital symmetries:
       Occupied  (B2) (A1) (A1) (B2) (A1) (A1) (B2) (A1) (B2) (B1)
                 (A2) (A1) (B2) (A1) (B2) (A1) (B1) (B2) (A2) (A1)
                 (B1)
       Virtual   (A1) (B2) (A1) (A1) (A2) (B2) (B1) (B2) (B1) (A1)
                 (A2) (B2) (A1) (B2) (A1) (B2) (B1) (A2) (A1) (B2)
                 (A1) (B1) (A1) (B2) (A2) (B2) (B1) (A1) (A1) (B2)
                 (A2) (B1) (A1) (B1) (A2) (B2) (A1) (A2) (B2) (A1)
                 (B1) (B2) (B1) (A1) (B2) (A1) (B2) (A2) (A2) (A1)
                 (A1) (B2) (B1) (B2) (B1) (A1) (B2) (A1) (A2) (B2)
                 (A1) (A2) (B1) (B2) (A1) (A2) (A1) (B1) (B2) (B2)
                 (A1) (B1) (A1) (B1) (A2) (B2) (A2) (B2) (B1) (A1)
                 (A1) (B2) (B2) (B1) (A1) (A2) (A1) (B2) (A2) (A1)
                 (B2) (B1) (A1) (B1) (B2) (A1) (B2) (A2) (B1) (A2)
                 (A2) (A1) (B2) (B1) (B2) (B1) (A2) (A1) (A1) (B1)
                 (A1) (B2) (A1) (A2) (B2) (B1) (A1) (B1) (B2) (A2)
                 (A1) (A2) (A2) (B1) (B2) (B2) (A1) (B1) (A1) (A2)
                 (B2) (B2) (A1) (A2) (A1) (B1) (B1) (B2) (A2) (B2)
                 (A1) (B1) (B2) (A2) (A1) (B1) (B2) (A1) (A2) (A1)
                 (B2) (B1) (B2) (A1) (A1) (B1) (A2) (B2) (A1) (B2)
                 (A1)
 The electronic state of the initial guess is 1-A1.
 Keep R1 ints in memory in symmetry-blocked form, NReq=173551111.
 Requested convergence on RMS density matrix=1.00D-08 within 128 cycles.
 Requested convergence on MAX density matrix=1.00D-06.
 Requested convergence on             energy=1.00D-06.
 No special actions if energy rises.
 Integral accuracy reduced to 1.0D-05 until final iterations.
 Initial convergence to 1.0D-05 achieved.  Increase integral accuracy.
 SCF Done:  E(RB3LYP) =  -658.006201174     A.U. after   11 cycles
            NFock= 11  Conv=0.14D-08     -V/T= 2.0012

 **********************************************************************

            Population analysis using the SCF Density.

 **********************************************************************

 Orbital symmetries:
       Occupied  (B2) (A1) (A1) (B2) (A1) (A1) (B2) (B1) (A2) (A1)
                 (B2) (A1) (B2) (A1) (B2) (A1) (B1) (B2) (A2) (A1)
                 (B1)
       Virtual   (A1) (A1) (B2) (A1) (B2) (A2) (B1) (B2) (B1) (A1)
                 (A2) (B2) (A1) (A1) (B2) (A2) (B1) (B2) (A1) (B2)
                 (A1) (B1) (A1) (B2) (A2) (B2) (B1) (A1) (A1) (B2)
                 (A2) (B1) (A1) (B1) (A2) (B2) (A1) (A2) (B2) (A1)
                 (B1) (B2) (B1) (A1) (B2) (A1) (B2) (A2) (A2) (A1)
                 (A1) (B2) (B1) (B2) (B1) (A1) (B2) (A1) (A2) (B2)
                 (A1) (A2) (B1) (B2) (A1) (A2) (A1) (B1) (B2) (B2)
                 (B1) (A1) (B1) (A2) (A1) (B2) (A2) (B2) (B1) (A1)
                 (A1) (B2) (B2) (A2) (A1) (B1) (A1) (B2) (A2) (A1)
                 (B1) (B2) (A1) (B1) (B2) (A1) (B2) (A2) (B1) (A2)
                 (A2) (A1) (B2) (B1) (B2) (A2) (B1) (A1) (A1) (B1)
                 (A1) (B2) (A1) (A2) (B2) (B1) (A1) (B2) (B1) (A2)
                 (A1) (A2) (A2) (B1) (B2) (B2) (A1) (B1) (A1) (A2)
                 (B2) (B2) (A2) (A1) (B1) (A1) (B1) (B2) (A2) (B2)
                 (A1) (B1) (B2) (A2) (A1) (B1) (B2) (A1) (A2) (A1)
                 (B2) (B1) (B2) (A1) (A1) (B1) (A2) (B2) (A1) (B2)
                 (A1)
 The electronic state is 1-A1.
 Alpha  occ. eigenvalues --  -66.11082 -66.11082 -19.12874  -5.29134  -5.29134
 Alpha  occ. eigenvalues --   -3.65034  -3.65033  -3.64828  -3.64828  -3.64823
 Alpha  occ. eigenvalues --   -3.64823  -1.00292  -0.60365  -0.50850  -0.43993
 Alpha  occ. eigenvalues --   -0.41663  -0.41624  -0.35359  -0.35357  -0.31472
 Alpha  occ. eigenvalues --   -0.31360
 Alpha virt. eigenvalues --   -0.01781   0.02164   0.02956   0.04058   0.04535
 Alpha virt. eigenvalues --    0.04871   0.05319   0.06221   0.10406   0.10651
 Alpha virt. eigenvalues --    0.12805   0.12936   0.19131   0.22481   0.23541
 Alpha virt. eigenvalues --    0.25963   0.26310   0.26501   0.27247   0.28764
 Alpha virt. eigenvalues --    0.32375   0.33649   0.36304   0.38344   0.40445
 Alpha virt. eigenvalues --    0.41690   0.59282   0.60729   0.64895   0.65871
 Alpha virt. eigenvalues --    0.66498   0.68172   0.69506   0.73613   0.73628
 Alpha virt. eigenvalues --    0.74292   0.75598   0.81409   0.81775   0.85583
 Alpha virt. eigenvalues --    0.87847   0.92080   0.98256   0.98911   1.02137
 Alpha virt. eigenvalues --    1.02623   1.05185   1.05342   1.14300   1.17279
 Alpha virt. eigenvalues --    1.18834   1.20036   1.21692   1.22590   1.29517
 Alpha virt. eigenvalues --    1.29796   1.32332   1.33577   1.36521   1.37745
 Alpha virt. eigenvalues --    1.53287   1.54456   1.56737   1.61450   1.65340
 Alpha virt. eigenvalues --    1.69183   1.69566   1.70347   1.71729   1.79390
 Alpha virt. eigenvalues --    1.85293   1.85371   1.86962   1.87213   1.87461
 Alpha virt. eigenvalues --    1.91420   1.94525   1.95155   2.05461   2.07632
 Alpha virt. eigenvalues --    2.19215   2.26840   2.42625   2.45406   2.48956
 Alpha virt. eigenvalues --    2.48968   2.55755   3.05637   3.14082   3.17437
 Alpha virt. eigenvalues --    3.20261   3.20674   3.34056   3.36254   3.40113
 Alpha virt. eigenvalues --    3.44506   3.44758   3.50860   3.76218   3.76221
 Alpha virt. eigenvalues --    3.78446   3.78680   3.78842   3.78937   3.83940
 Alpha virt. eigenvalues --    3.86220   3.86772   3.87502   3.89183   3.96298
 Alpha virt. eigenvalues --    3.96784   3.97257   4.03043   4.04332   4.07076
 Alpha virt. eigenvalues --    4.08801   4.09584   4.11187   4.11676   4.14087
 Alpha virt. eigenvalues --    4.15435   4.19402   4.20743   4.20902   4.23569
 Alpha virt. eigenvalues --    4.29307   4.33991   4.35870   4.37788   4.39474
 Alpha virt. eigenvalues --    4.40607   4.48214   4.51979   4.51993   4.53184
 Alpha virt. eigenvalues --    4.54544   4.60951   4.63668   4.65986   4.67877
 Alpha virt. eigenvalues --    4.68832   4.70310   4.80768   4.83885   4.90355
 Alpha virt. eigenvalues --    4.92696   4.99534   4.99849   5.08386   5.08714
 Alpha virt. eigenvalues --    5.11534   5.12438   5.13551   5.24096   6.09692
 Alpha virt. eigenvalues --    6.10603   6.59482   6.63827   6.99231  15.78911
 Alpha virt. eigenvalues --   15.86303
          Condensed to atoms (all electrons):
               1          2          3          4          5          6
     1  O    8.280171   0.313022   0.313022  -0.032488  -0.031663  -0.031663
     2  Si   0.313022  11.706598  -0.026000   0.395052   0.388321   0.388321
     3  Si   0.313022  -0.026000  11.706598   0.000754  -0.001208  -0.001208
     4  H   -0.032488   0.395052   0.000754   0.871356  -0.040388  -0.040388
     5  H   -0.031663   0.388321  -0.001208  -0.040388   0.887263  -0.041464
     6  H   -0.031663   0.388321  -0.001208  -0.040388  -0.041464   0.887263
     7  H   -0.032488   0.000754   0.395052   0.000849  -0.000437  -0.000437
     8  H   -0.031663  -0.001208   0.388321  -0.000437  -0.000567   0.002731
     9  H   -0.031663  -0.001208   0.388321  -0.000437   0.002731  -0.000567
               7          8          9
     1  O   -0.032488  -0.031663  -0.031663
     2  Si   0.000754  -0.001208  -0.001208
     3  Si   0.395052   0.388321   0.388321
     4  H    0.000849  -0.000437  -0.000437
     5  H   -0.000437  -0.000567   0.002731
     6  H   -0.000437   0.002731  -0.000567
     7  H    0.871356  -0.040388  -0.040388
     8  H   -0.040388   0.887263  -0.041464
     9  H   -0.040388  -0.041464   0.887263
 Mulliken charges:
               1
     1  O   -0.714589
     2  Si   0.836346
     3  Si   0.836346
     4  H   -0.153874
     5  H   -0.162589
     6  H   -0.162589
     7  H   -0.153874
     8  H   -0.162589
     9  H   -0.162589
 Sum of Mulliken charges =  -0.00000
 Mulliken charges with hydrogens summed into heavy atoms:
               1
     1  O   -0.714589
     2  Si   0.357294
     3  Si   0.357294
 Electronic spatial extent (au):  <R**2>=            474.9886
 Charge=             -0.0000 electrons
 Dipole moment (field-independent basis, Debye):
    X=             -0.0000    Y=              0.0000    Z=             -0.2684  Tot=              0.2684
 Quadrupole moment (field-independent basis, Debye-Ang):
   XX=            -36.4413   YY=            -34.6862   ZZ=            -36.5519
   XY=             -0.0000   XZ=              0.0000   YZ=             -0.0000
 Traceless Quadrupole moment (field-independent basis, Debye-Ang):
   XX=             -0.5482   YY=              1.2069   ZZ=             -0.6587
   XY=             -0.0000   XZ=              0.0000   YZ=             -0.0000
 Octapole moment (field-independent basis, Debye-Ang**2):
  XXX=              0.0000  YYY=              0.0000  ZZZ=              0.7342  XYY=              0.0000
  XXY=             -0.0000  XXZ=              3.5843  XZZ=              0.0000  YZZ=              0.0000
  YYZ=             -0.2823  XYZ=             -0.0000
 Hexadecapole moment (field-independent basis, Debye-Ang**3):
 XXXX=            -90.1069 YYYY=           -569.4948 ZZZZ=            -91.6564 XXXY=             -0.0000
 XXXZ=              0.0000 YYYX=             -0.0000 YYYZ=              0.0000 ZZZX=             -0.0000
 ZZZY=              0.0000 XXYY=           -119.8161 XXZZ=            -30.9124 YYZZ=           -121.7316
 XXYZ=              0.0000 YYXZ=              0.0000 ZZXY=             -0.0000
 N-N= 1.585141888607D+02 E-N=-1.882714063583D+03  KE= 6.571852640902D+02
 Symmetry A1   KE= 3.319683637512D+02
 Symmetry A2   KE= 2.632592330214D+01
 Symmetry B1   KE= 3.051690990690D+01
 Symmetry B2   KE= 2.683740671300D+02
 Calling FoFJK, ICntrl=      2127 FMM=F ISym2X=1 I1Cent= 0 IOpClX= 0 NMat=1 NMatS=1 NMatT=0.
 ***** Axes restored to original set *****
 -------------------------------------------------------------------
 Center     Atomic                   Forces (Hartrees/Bohr)
 Number     Number              X              Y              Z
 -------------------------------------------------------------------
      1        8           0.000000000   -0.001029272   -0.000000000
      2       14           0.001779655    0.000686515   -0.000000000
      3       14          -0.001779655    0.000686515   -0.000000000
      4        1          -0.000589505   -0.001122339    0.000000000
      5        1          -0.000540632    0.000475230   -0.000934045
      6        1          -0.000540632    0.000475230    0.000934045
      7        1           0.000589505   -0.001122339    0.000000000
      8        1           0.000540632    0.000475230    0.000934045
      9        1           0.000540632    0.000475230   -0.000934045
 -------------------------------------------------------------------
 Cartesian Forces:  Max     0.001779655 RMS     0.000796123

 GradGradGradGradGradGradGradGradGradGradGradGradGradGradGradGradGradGrad
 Berny optimization.
 FormGI is forming the generalized inverse of G from B-inverse, IUseBI=4.
 Internal  Forces:  Max     0.001266724 RMS     0.000627795
 Search for a local minimum.
 Step number   1 out of a maximum of   37
 All quantities printed in internal units (Hartrees-Bohrs-Radians)
 Mixed Optimization -- En-DIIS/RFO-DIIS
 Second derivative matrix not updated -- first step.
 ITU=  0
     Eigenvalues ---    0.03902   0.03902   0.11231   0.11231   0.11369
     Eigenvalues ---    0.11369   0.16000   0.16000   0.16000   0.16000
     Eigenvalues ---    0.16000   0.16000   0.17566   0.17566   0.17566
     Eigenvalues ---    0.17566   0.17693   0.17693   0.25000   0.45323
     Eigenvalues ---    0.45323
 RFO step:  Lambda=-6.28402147D-05 EMin= 3.90194651D-02
 Linear search not attempted -- first point.
 Iteration  1 RMS(Cart)=  0.00463590 RMS(Int)=  0.00000901
 Iteration  2 RMS(Cart)=  0.00000909 RMS(Int)=  0.00000458
 Iteration  3 RMS(Cart)=  0.00000000 RMS(Int)=  0.00000458
 ClnCor:  largest displacement from symmetrization is 4.09D-11 for atom     6.
 Variable       Old X    -DE/DX   Delta X   Delta X   Delta X     New X
                                 (Linear)    (Quad)   (Total)
    R1        3.08602   0.00001   0.00000   0.00001   0.00001   3.08603
    R2        3.08602   0.00001   0.00000   0.00001   0.00001   3.08603
    R3        2.80002  -0.00127   0.00000  -0.00716  -0.00716   2.79286
    R4        2.80514  -0.00114   0.00000  -0.00651  -0.00651   2.79862
    R5        2.80514  -0.00114   0.00000  -0.00651  -0.00651   2.79862
    R6        2.80002  -0.00127   0.00000  -0.00716  -0.00716   2.79286
    R7        2.80514  -0.00114   0.00000  -0.00651  -0.00651   2.79862
    R8        2.80514  -0.00114   0.00000  -0.00651  -0.00651   2.79862
    A1        2.74632   0.00055   0.00000   0.00221   0.00221   2.74853
    A2        1.89679   0.00040   0.00000   0.00298   0.00298   1.89977
    A3        1.92560  -0.00050   0.00000  -0.00336  -0.00336   1.92224
    A4        1.92560  -0.00050   0.00000  -0.00336  -0.00336   1.92224
    A5        1.90704   0.00026   0.00000   0.00206   0.00206   1.90911
    A6        1.90704   0.00026   0.00000   0.00206   0.00206   1.90911
    A7        1.90160   0.00009   0.00000  -0.00029  -0.00030   1.90131
    A8        1.89679   0.00040   0.00000   0.00298   0.00298   1.89977
    A9        1.92560  -0.00050   0.00000  -0.00336  -0.00336   1.92224
   A10        1.92560  -0.00050   0.00000  -0.00336  -0.00336   1.92224
   A11        1.90704   0.00026   0.00000   0.00206   0.00206   1.90911
   A12        1.90704   0.00026   0.00000   0.00206   0.00206   1.90911
   A13        1.90160   0.00009   0.00000  -0.00029  -0.00030   1.90131
    D1        3.14159  -0.00000   0.00000   0.00000   0.00000   3.14159
    D2       -1.05104   0.00026   0.00000   0.00235   0.00235  -1.04870
    D3        1.05104  -0.00026   0.00000  -0.00235  -0.00235   1.04870
    D4        3.14159   0.00000   0.00000   0.00000   0.00000   3.14159
    D5       -1.05104   0.00026   0.00000   0.00235   0.00235  -1.04870
    D6        1.05104  -0.00026   0.00000  -0.00235  -0.00235   1.04870
         Item               Value     Threshold  Converged?
 Maximum Force            0.001267     0.000450     NO 
 RMS     Force            0.000628     0.000300     NO 
 Maximum Displacement     0.009334     0.001800     NO 
 RMS     Displacement     0.004635     0.001200     NO 
 Predicted change in Energy=-3.142253D-05
 GradGradGradGradGradGradGradGradGradGradGradGradGradGradGradGradGradGrad

                          Input orientation:                          
 ---------------------------------------------------------------------
 Center     Atomic      Atomic             Coordinates (Angstroms)
 Number     Number       Type             X           Y           Z
 ---------------------------------------------------------------------
      1          8           0       -0.000000    0.261684    0.000000
      2         14           0        1.601623   -0.057201    0.000000
      3         14           0       -1.601623   -0.057201   -0.000000
      4          1           0        2.343016    1.221304    0.000000
      5          1           0        1.966233   -0.836821    1.205205
      6          1           0        1.966233   -0.836821   -1.205205
      7          1           0       -2.343016    1.221304   -0.000000
      8          1           0       -1.966233   -0.836821   -1.205205
      9          1           0       -1.966233   -0.836821    1.205205
 ---------------------------------------------------------------------
                    Distance matrix (angstroms):
                    1          2          3          4          5
     1  O    0.000000
     2  Si   1.633059   0.000000
     3  Si   1.633059   3.203245   0.000000
     4  H    2.531915   1.477918   4.146655   0.000000
     5  H    2.554467   1.480968   3.845766   2.414615   0.000000
     6  H    2.554467   1.480968   3.845766   2.414615   2.410410
     7  H    2.531915   4.146655   1.477918   4.686032   4.925243
     8  H    2.554467   3.845766   1.480968   4.925243   4.612414
     9  H    2.554467   3.845766   1.480968   4.925243   3.932466
                    6          7          8          9
     6  H    0.000000
     7  H    4.925243   0.000000
     8  H    3.932466   2.414615   0.000000
     9  H    4.612414   2.414615   2.410410   0.000000
 Stoichiometry    H6OSi2
 Framework group  C2V[C2(O),SGV(H2Si2),X(H4)]
 Deg. of freedom     7
 Full point group                 C2V     NOp   4
 Largest Abelian subgroup         C2V     NOp   4
 Largest concise Abelian subgroup C2V     NOp   4
                         Standard orientation:                         
 ---------------------------------------------------------------------
 Center     Atomic      Atomic             Coordinates (Angstroms)
 Number     Number       Type             X           Y           Z
 ---------------------------------------------------------------------
      1          8           0        0.000000   -0.000000    0.271513
      2         14           0        0.000000    1.601623   -0.047372
      3         14           0       -0.000000   -1.601623   -0.047372
      4          1           0        0.000000    2.343016    1.231134
      5          1           0        1.205205    1.966233   -0.826992
      6          1           0       -1.205205    1.966233   -0.826992
      7          1           0       -0.000000   -2.343016    1.231134
      8          1           0       -1.205205   -1.966233   -0.826992
      9          1           0        1.205205   -1.966233   -0.826992
 ---------------------------------------------------------------------
 Rotational constants (GHZ):          38.9851689           2.8708397           2.8505616
 Basis read from rwf:  (5D, 7F)
 There are    69 symmetry adapted cartesian basis functions of A1  symmetry.
 There are    34 symmetry adapted cartesian basis functions of A2  symmetry.
 There are    39 symmetry adapted cartesian basis functions of B1  symmetry.
 There are    61 symmetry adapted cartesian basis functions of B2  symmetry.
 There are    60 symmetry adapted basis functions of A1  symmetry.
 There are    32 symmetry adapted basis functions of A2  symmetry.
 There are    36 symmetry adapted basis functions of B1  symmetry.
 There are    54 symmetry adapted basis functions of B2  symmetry.
   182 basis functions,   299 primitive gaussians,   203 cartesian basis functions
    21 alpha electrons       21 beta electrons
       nuclear repulsion energy       158.6086205660 Hartrees.
 NAtoms=    9 NActive=    9 NUniq=    4 SFac= 4.00D+00 NAtFMM=   60 NAOKFM=F Big=F
 Integral buffers will be    131072 words long.
 Raffenetti 2 integral format.
 Two-electron integral symmetry is turned on.
 One-electron integrals computed using PRISM.
 NBasis=   182 RedAO= T EigKep=  2.43D-03  NBF=    60    32    36    54
 NBsUse=   182 1.00D-06 EigRej= -1.00D+00 NBFU=    60    32    36    54
 Initial guess from the checkpoint file:  "/wrk/irikura/Gau-183827.chk"
 B after Tr=     0.000000   -0.000000   -0.000000
         Rot=    1.000000    0.000000   -0.000000    0.000000 Ang=   0.00 deg.
 Initial guess orbital symmetries:
       Occupied  (B2) (A1) (A1) (B2) (A1) (A1) (B2) (B1) (A2) (A1)
                 (B2) (A1) (B2) (A1) (B2) (A1) (B1) (B2) (A2) (A1)
                 (B1)
       Virtual   (A1) (A1) (B2) (A1) (B2) (A2) (B1) (B2) (B1) (A1)
                 (A2) (B2) (A1) (A1) (B2) (A2) (B1) (B2) (A1) (B2)
                 (A1) (B1) (A1) (B2) (A2) (B2) (B1) (A1) (A1) (B2)
                 (A2) (B1) (A1) (B1) (A2) (B2) (A1) (A2) (B2) (A1)
                 (B1) (B2) (B1) (A1) (B2) (A1) (B2) (A2) (A2) (A1)
                 (A1) (B2) (B1) (B2) (B1) (A1) (B2) (A1) (A2) (B2)
                 (A1) (A2) (B1) (B2) (A1) (A2) (A1) (B1) (B2) (B2)
                 (B1) (A1) (B1) (A2) (A1) (B2) (A2) (B2) (B1) (A1)
                 (A1) (B2) (B2) (A2) (A1) (B1) (A1) (B2) (A2) (A1)
                 (B1) (B2) (A1) (B1) (B2) (A1) (B2) (A2) (B1) (A2)
                 (A2) (A1) (B2) (B1) (B2) (A2) (B1) (A1) (A1) (B1)
                 (A1) (B2) (A1) (A2) (B2) (B1) (A1) (B2) (B1) (A2)
                 (A1) (A2) (A2) (B1) (B2) (B2) (A1) (B1) (A1) (A2)
                 (B2) (B2) (A2) (A1) (B1) (A1) (B1) (B2) (A2) (B2)
                 (A1) (B1) (B2) (A2) (A1) (B1) (B2) (A1) (A2) (A1)
                 (B2) (B1) (B2) (A1) (A1) (B1) (A2) (B2) (A1) (B2)
                 (A1)
 Keep R1 ints in memory in symmetry-blocked form, NReq=173551111.
 Requested convergence on RMS density matrix=1.00D-08 within 128 cycles.
 Requested convergence on MAX density matrix=1.00D-06.
 Requested convergence on             energy=1.00D-06.
 No special actions if energy rises.
 SCF Done:  E(RB3LYP) =  -658.006232374     A.U. after    7 cycles
            NFock=  7  Conv=0.34D-08     -V/T= 2.0012
 Calling FoFJK, ICntrl=      2127 FMM=F ISym2X=1 I1Cent= 0 IOpClX= 0 NMat=1 NMatS=1 NMatT=0.
 ***** Axes restored to original set *****
 -------------------------------------------------------------------
 Center     Atomic                   Forces (Hartrees/Bohr)
 Number     Number              X              Y              Z
 -------------------------------------------------------------------
      1        8           0.000000000   -0.000385317   -0.000000000
      2       14           0.000105364    0.000246994   -0.000000000
      3       14          -0.000105364    0.000246994    0.000000000
      4        1           0.000020017    0.000049404    0.000000000
      5        1          -0.000005906   -0.000051870    0.000072952
      6        1          -0.000005906   -0.000051870   -0.000072952
      7        1          -0.000020017    0.000049404    0.000000000
      8        1           0.000005906   -0.000051870   -0.000072952
      9        1           0.000005906   -0.000051870    0.000072952
 -------------------------------------------------------------------
 Cartesian Forces:  Max     0.000385317 RMS     0.000110647

 GradGradGradGradGradGradGradGradGradGradGradGradGradGradGradGradGradGrad
 Berny optimization.
 Using GEDIIS/GDIIS optimizer.
 FormGI is forming the generalized inverse of G from B-inverse, IUseBI=4.
 Internal  Forces:  Max     0.000583518 RMS     0.000121890
 Search for a local minimum.
 Step number   2 out of a maximum of   37
 All quantities printed in internal units (Hartrees-Bohrs-Radians)
 Mixed Optimization -- En-DIIS/RFO-DIIS
 Swapping is turned off.
 Update second derivatives using D2CorX and points    1    2
 DE= -3.12D-05 DEPred=-3.14D-05 R= 9.93D-01
 TightC=F SS=  1.41D+00  RLast= 1.95D-02 DXNew= 5.0454D-01 5.8415D-02
 Trust test= 9.93D-01 RLast= 1.95D-02 DXMaxT set to 3.00D-01
 ITU=  1  0
     Eigenvalues ---    0.03902   0.03902   0.11041   0.11261   0.11361
     Eigenvalues ---    0.11361   0.15434   0.16000   0.16000   0.16000
     Eigenvalues ---    0.16000   0.16005   0.17566   0.17566   0.17566
     Eigenvalues ---    0.17624   0.17693   0.18254   0.25748   0.45323
     Eigenvalues ---    0.45349
 En-DIIS/RFO-DIIS/Sim-DIIS IScMMF=       -3 using points:     2    1
 RFO step:  Lambda=-1.65326611D-06.
 DidBck=F Rises=F RFO-DIIS coefs:    1.01606   -0.01606
 Iteration  1 RMS(Cart)=  0.00111496 RMS(Int)=  0.00000072
 Iteration  2 RMS(Cart)=  0.00000129 RMS(Int)=  0.00000013
 Iteration  3 RMS(Cart)=  0.00000000 RMS(Int)=  0.00000013
 ClnCor:  largest displacement from symmetrization is 9.21D-12 for atom     6.
 Variable       Old X    -DE/DX   Delta X   Delta X   Delta X     New X
                                 (Linear)    (Quad)   (Total)
    R1        3.08603   0.00007   0.00000   0.00016   0.00016   3.08620
    R2        3.08603   0.00007   0.00000   0.00016   0.00016   3.08620
    R3        2.79286   0.00005  -0.00011   0.00022   0.00011   2.79297
    R4        2.79862   0.00009  -0.00010   0.00041   0.00031   2.79893
    R5        2.79862   0.00009  -0.00010   0.00041   0.00031   2.79893
    R6        2.79286   0.00005  -0.00011   0.00022   0.00011   2.79297
    R7        2.79862   0.00009  -0.00010   0.00041   0.00031   2.79893
    R8        2.79862   0.00009  -0.00010   0.00041   0.00031   2.79893
    A1        2.74853   0.00058   0.00004   0.00233   0.00237   2.75090
    A2        1.89977   0.00001   0.00005   0.00012   0.00017   1.89994
    A3        1.92224  -0.00005  -0.00005  -0.00034  -0.00040   1.92184
    A4        1.92224  -0.00005  -0.00005  -0.00034  -0.00040   1.92184
    A5        1.90911   0.00003   0.00003   0.00024   0.00027   1.90938
    A6        1.90911   0.00003   0.00003   0.00024   0.00027   1.90938
    A7        1.90131   0.00002  -0.00000   0.00009   0.00008   1.90139
    A8        1.89977   0.00001   0.00005   0.00012   0.00017   1.89994
    A9        1.92224  -0.00005  -0.00005  -0.00034  -0.00040   1.92184
   A10        1.92224  -0.00005  -0.00005  -0.00034  -0.00040   1.92184
   A11        1.90911   0.00003   0.00003   0.00024   0.00027   1.90938
   A12        1.90911   0.00003   0.00003   0.00024   0.00027   1.90938
   A13        1.90131   0.00002  -0.00000   0.00009   0.00008   1.90139
    D1        3.14159  -0.00000   0.00000  -0.00000   0.00000   3.14159
    D2       -1.04870   0.00002   0.00004   0.00016   0.00020  -1.04850
    D3        1.04870  -0.00002  -0.00004  -0.00016  -0.00020   1.04850
    D4        3.14159  -0.00000   0.00000   0.00000   0.00000   3.14159
    D5       -1.04870   0.00002   0.00004   0.00016   0.00020  -1.04850
    D6        1.04870  -0.00002  -0.00004  -0.00016  -0.00020   1.04850
         Item               Value     Threshold  Converged?
 Maximum Force            0.000584     0.000450     NO 
 RMS     Force            0.000122     0.000300     YES
 Maximum Displacement     0.003595     0.001800     NO 
 RMS     Displacement     0.001115     0.001200     YES
 Predicted change in Energy=-8.266316D-07
 GradGradGradGradGradGradGradGradGradGradGradGradGradGradGradGradGradGrad

                          Input orientation:                          
 ---------------------------------------------------------------------
 Center     Atomic      Atomic             Coordinates (Angstroms)
 Number     Number       Type             X           Y           Z
 ---------------------------------------------------------------------
      1          8           0       -0.000000    0.259782   -0.000000
      2         14           0        1.602083   -0.057221    0.000000
      3         14           0       -1.602083   -0.057221   -0.000000
      4          1           0        2.342208    1.222085    0.000000
      5          1           0        1.967051   -0.836725    1.205373
      6          1           0        1.967051   -0.836725   -1.205373
      7          1           0       -2.342208    1.222085   -0.000000
      8          1           0       -1.967051   -0.836725   -1.205373
      9          1           0       -1.967051   -0.836725    1.205373
 ---------------------------------------------------------------------
                    Distance matrix (angstroms):
                    1          2          3          4          5
     1  O    0.000000
     2  Si   1.633145   0.000000
     3  Si   1.633145   3.204167   0.000000
     4  H    2.532186   1.477974   4.146572   0.000000
     5  H    2.554318   1.481132   3.846982   2.415029   0.000000
     6  H    2.554318   1.481132   3.846982   2.415029   2.410746
     7  H    2.532186   4.146572   1.477974   4.684416   4.925580
     8  H    2.554318   3.846982   1.481132   4.925580   4.613985
     9  H    2.554318   3.846982   1.481132   4.925580   3.934102
                    6          7          8          9
     6  H    0.000000
     7  H    4.925580   0.000000
     8  H    3.934102   2.415029   0.000000
     9  H    4.613985   2.415029   2.410746   0.000000
 Stoichiometry    H6OSi2
 Framework group  C2V[C2(O),SGV(H2Si2),X(H4)]
 Deg. of freedom     7
 Full point group                 C2V     NOp   4
 Largest Abelian subgroup         C2V     NOp   4
 Largest concise Abelian subgroup C2V     NOp   4
                         Standard orientation:                         
 ---------------------------------------------------------------------
 Center     Atomic      Atomic             Coordinates (Angstroms)
 Number     Number       Type             X           Y           Z
 ---------------------------------------------------------------------
      1          8           0        0.000000   -0.000000    0.269941
      2         14           0        0.000000    1.602083   -0.047062
      3         14           0       -0.000000   -1.602083   -0.047062
      4          1           0        0.000000    2.342208    1.232244
      5          1           0        1.205373    1.967051   -0.826566
      6          1           0       -1.205373    1.967051   -0.826566
      7          1           0       -0.000000   -2.342208    1.232244
      8          1           0       -1.205373   -1.967051   -0.826566
      9          1           0        1.205373   -1.967051   -0.826566
 ---------------------------------------------------------------------
 Rotational constants (GHZ):          39.0178610           2.8693798           2.8493492
 Basis read from rwf:  (5D, 7F)
 There are    69 symmetry adapted cartesian basis functions of A1  symmetry.
 There are    34 symmetry adapted cartesian basis functions of A2  symmetry.
 There are    39 symmetry adapted cartesian basis functions of B1  symmetry.
 There are    61 symmetry adapted cartesian basis functions of B2  symmetry.
 There are    60 symmetry adapted basis functions of A1  symmetry.
 There are    32 symmetry adapted basis functions of A2  symmetry.
 There are    36 symmetry adapted basis functions of B1  symmetry.
 There are    54 symmetry adapted basis functions of B2  symmetry.
   182 basis functions,   299 primitive gaussians,   203 cartesian basis functions
    21 alpha electrons       21 beta electrons
       nuclear repulsion energy       158.5901838077 Hartrees.
 NAtoms=    9 NActive=    9 NUniq=    4 SFac= 4.00D+00 NAtFMM=   60 NAOKFM=F Big=F
 Integral buffers will be    131072 words long.
 Raffenetti 2 integral format.
 Two-electron integral symmetry is turned on.
 One-electron integrals computed using PRISM.
 NBasis=   182 RedAO= T EigKep=  2.43D-03  NBF=    60    32    36    54
 NBsUse=   182 1.00D-06 EigRej= -1.00D+00 NBFU=    60    32    36    54
 Initial guess from the checkpoint file:  "/wrk/irikura/Gau-183827.chk"
 B after Tr=     0.000000   -0.000000    0.000000
         Rot=    1.000000    0.000000   -0.000000    0.000000 Ang=   0.00 deg.
 Initial guess orbital symmetries:
       Occupied  (B2) (A1) (A1) (B2) (A1) (A1) (B2) (B1) (A2) (A1)
                 (B2) (A1) (B2) (A1) (B2) (A1) (B1) (B2) (A2) (A1)
                 (B1)
       Virtual   (A1) (A1) (B2) (A1) (B2) (A2) (B1) (B2) (B1) (A1)
                 (A2) (B2) (A1) (A1) (B2) (A2) (B1) (B2) (A1) (B2)
                 (A1) (B1) (A1) (B2) (A2) (B2) (B1) (A1) (A1) (B2)
                 (A2) (B1) (A1) (B1) (A2) (B2) (A1) (A2) (B2) (A1)
                 (B1) (B2) (B1) (A1) (B2) (A1) (B2) (A2) (A2) (A1)
                 (A1) (B2) (B1) (B2) (B1) (A1) (B2) (A1) (A2) (B2)
                 (A1) (A2) (B1) (B2) (A1) (A2) (A1) (B1) (B2) (B2)
                 (A1) (B1) (B1) (A2) (A1) (B2) (A2) (B2) (B1) (A1)
                 (A1) (B2) (B2) (A2) (B1) (A1) (A1) (B2) (A2) (A1)
                 (B1) (B2) (A1) (B1) (B2) (A1) (B2) (A2) (B1) (A2)
                 (A2) (A1) (B2) (B1) (B2) (A2) (B1) (A1) (A1) (B1)
                 (A1) (B2) (A1) (A2) (B2) (B1) (A1) (B2) (B1) (A2)
                 (A1) (A2) (A2) (B1) (B2) (B2) (A1) (B1) (A1) (A2)
                 (B2) (B2) (A1) (A2) (B1) (A1) (B1) (B2) (A2) (B2)
                 (A1) (B1) (B2) (A2) (A1) (B1) (B2) (A1) (A2) (A1)
                 (B2) (B1) (B2) (A1) (A1) (B1) (A2) (B2) (A1) (B2)
                 (A1)
 Keep R1 ints in memory in symmetry-blocked form, NReq=173551111.
 Requested convergence on RMS density matrix=1.00D-08 within 128 cycles.
 Requested convergence on MAX density matrix=1.00D-06.
 Requested convergence on             energy=1.00D-06.
 No special actions if energy rises.
 SCF Done:  E(RB3LYP) =  -658.006233876     A.U. after    6 cycles
            NFock=  6  Conv=0.36D-08     -V/T= 2.0012
 Calling FoFJK, ICntrl=      2127 FMM=F ISym2X=1 I1Cent= 0 IOpClX= 0 NMat=1 NMatS=1 NMatT=0.
 ***** Axes restored to original set *****
 -------------------------------------------------------------------
 Center     Atomic                   Forces (Hartrees/Bohr)
 Number     Number              X              Y              Z
 -------------------------------------------------------------------
      1        8           0.000000000   -0.000357246   -0.000000000
      2       14          -0.000012252    0.000171709    0.000000000
      3       14           0.000012252    0.000171709    0.000000000
      4        1           0.000015379    0.000026584    0.000000000
      5        1           0.000007656   -0.000009835    0.000022375
      6        1           0.000007656   -0.000009835   -0.000022375
      7        1          -0.000015379    0.000026584    0.000000000
      8        1          -0.000007656   -0.000009835   -0.000022375
      9        1          -0.000007656   -0.000009835    0.000022375
 -------------------------------------------------------------------
 Cartesian Forces:  Max     0.000357246 RMS     0.000084196

 GradGradGradGradGradGradGradGradGradGradGradGradGradGradGradGradGradGrad
 Berny optimization.
 Using GEDIIS/GDIIS optimizer.
 FormGI is forming the generalized inverse of G from B-inverse, IUseBI=4.
 Internal  Forces:  Max     0.000560818 RMS     0.000108819
 Search for a local minimum.
 Step number   3 out of a maximum of   37
 All quantities printed in internal units (Hartrees-Bohrs-Radians)
 Mixed Optimization -- En-DIIS/RFO-DIIS
 Swapping is turned off.
 Update second derivatives using D2CorX and points    1    2    3
 DE= -1.50D-06 DEPred=-8.27D-07 R= 1.82D+00
 TightC=F SS=  1.41D+00  RLast= 2.69D-03 DXNew= 5.0454D-01 8.0714D-03
 Trust test= 1.82D+00 RLast= 2.69D-03 DXMaxT set to 3.00D-01
 ITU=  1  1  0
     Eigenvalues ---    0.02574   0.03902   0.03902   0.11265   0.11361
     Eigenvalues ---    0.11361   0.11857   0.16000   0.16000   0.16000
     Eigenvalues ---    0.16000   0.16006   0.17062   0.17566   0.17566
     Eigenvalues ---    0.17566   0.17693   0.17799   0.24174   0.45323
     Eigenvalues ---    0.51836
 En-DIIS/RFO-DIIS/Sim-DIIS IScMMF=       -3 using points:     3    2    1
 RFO step:  Lambda=-1.15777022D-05.
 DidBck=F Rises=F RFO-DIIS coefs:    3.00000   -1.99353   -0.00647
 Iteration  1 RMS(Cart)=  0.01084973 RMS(Int)=  0.00005711
 Iteration  2 RMS(Cart)=  0.00010484 RMS(Int)=  0.00000101
 Iteration  3 RMS(Cart)=  0.00000000 RMS(Int)=  0.00000101
 ClnCor:  largest displacement from symmetrization is 2.31D-10 for atom     6.
 Variable       Old X    -DE/DX   Delta X   Delta X   Delta X     New X
                                 (Linear)    (Quad)   (Total)
    R1        3.08620  -0.00002   0.00032   0.00002   0.00034   3.08654
    R2        3.08620  -0.00002   0.00032   0.00002   0.00034   3.08654
    R3        2.79297   0.00003   0.00017   0.00019   0.00035   2.79332
    R4        2.79893   0.00003   0.00058   0.00037   0.00095   2.79989
    R5        2.79893   0.00003   0.00058   0.00037   0.00095   2.79989
    R6        2.79297   0.00003   0.00017   0.00019   0.00035   2.79332
    R7        2.79893   0.00003   0.00058   0.00037   0.00095   2.79989
    R8        2.79893   0.00003   0.00058   0.00037   0.00095   2.79989
    A1        2.75090   0.00056   0.00476   0.01579   0.02055   2.77145
    A2        1.89994  -0.00000   0.00036   0.00045   0.00081   1.90075
    A3        1.92184   0.00000  -0.00081  -0.00084  -0.00166   1.92019
    A4        1.92184   0.00000  -0.00081  -0.00084  -0.00166   1.92019
    A5        1.90938  -0.00000   0.00056   0.00047   0.00103   1.91041
    A6        1.90938  -0.00000   0.00056   0.00047   0.00103   1.91041
    A7        1.90139   0.00000   0.00016   0.00030   0.00046   1.90185
    A8        1.89994  -0.00000   0.00036   0.00045   0.00081   1.90075
    A9        1.92184   0.00000  -0.00081  -0.00084  -0.00166   1.92019
   A10        1.92184   0.00000  -0.00081  -0.00084  -0.00166   1.92019
   A11        1.90938  -0.00000   0.00056   0.00047   0.00103   1.91041
   A12        1.90938  -0.00000   0.00056   0.00047   0.00103   1.91041
   A13        1.90139   0.00000   0.00016   0.00030   0.00046   1.90185
    D1        3.14159   0.00000  -0.00000   0.00000   0.00000   3.14159
    D2       -1.04850  -0.00000   0.00042   0.00035   0.00077  -1.04773
    D3        1.04850   0.00000  -0.00042  -0.00035  -0.00077   1.04773
    D4        3.14159  -0.00000  -0.00000  -0.00000   0.00000   3.14159
    D5       -1.04850  -0.00000   0.00042   0.00035   0.00077  -1.04773
    D6        1.04850   0.00000  -0.00042  -0.00035  -0.00077   1.04773
         Item               Value     Threshold  Converged?
 Maximum Force            0.000561     0.000450     NO 
 RMS     Force            0.000109     0.000300     YES
 Maximum Displacement     0.032812     0.001800     NO 
 RMS     Displacement     0.010830     0.001200     NO 
 Predicted change in Energy=-5.790898D-06
 GradGradGradGradGradGradGradGradGradGradGradGradGradGradGradGradGradGrad

                          Input orientation:                          
 ---------------------------------------------------------------------
 Center     Atomic      Atomic             Coordinates (Angstroms)
 Number     Number       Type             X           Y           Z
 ---------------------------------------------------------------------
      1          8           0        0.000000    0.242419   -0.000000
      2         14           0        1.605432   -0.058143    0.000000
      3         14           0       -1.605432   -0.058143   -0.000000
      4          1           0        2.333513    1.228271    0.000000
      5          1           0        1.976001   -0.835017    1.205981
      6          1           0        1.976001   -0.835017   -1.205981
      7          1           0       -2.333513    1.228271   -0.000000
      8          1           0       -1.976001   -0.835017   -1.205981
      9          1           0       -1.976001   -0.835017    1.205981
 ---------------------------------------------------------------------
                    Distance matrix (angstroms):
                    1          2          3          4          5
     1  O    0.000000
     2  Si   1.633325   0.000000
     3  Si   1.633325   3.210865   0.000000
     4  H    2.533217   1.478162   4.143688   0.000000
     5  H    2.553397   1.481636   3.858054   2.416477   0.000000
     6  H    2.553397   1.481636   3.858054   2.416477   2.411962
     7  H    2.533217   4.143688   1.478162   4.667026   4.927824
     8  H    2.553397   3.858054   1.481636   4.927824   4.629889
     9  H    2.553397   3.858054   1.481636   4.927824   3.952001
                    6          7          8          9
     6  H    0.000000
     7  H    4.927824   0.000000
     8  H    3.952001   2.416477   0.000000
     9  H    4.629889   2.416477   2.411962   0.000000
 Stoichiometry    H6OSi2
 Framework group  C2V[C2(O),SGV(H2Si2),X(H4)]
 Deg. of freedom     7
 Full point group                 C2V     NOp   4
 Largest Abelian subgroup         C2V     NOp   4
 Largest concise Abelian subgroup C2V     NOp   4
                         Standard orientation:                         
 ---------------------------------------------------------------------
 Center     Atomic      Atomic             Coordinates (Angstroms)
 Number     Number       Type             X           Y           Z
 ---------------------------------------------------------------------
      1          8           0       -0.000000    0.000000    0.256042
      2         14           0        0.000000    1.605432   -0.044520
      3         14           0       -0.000000   -1.605432   -0.044520
      4          1           0        0.000000    2.333513    1.241894
      5          1           0        1.205981    1.976001   -0.821394
      6          1           0       -1.205981    1.976001   -0.821394
      7          1           0       -0.000000   -2.333513    1.241894
      8          1           0       -1.205981   -1.976001   -0.821394
      9          1           0        1.205981   -1.976001   -0.821394
 ---------------------------------------------------------------------
 Rotational constants (GHZ):          39.3504026           2.8585499           2.8406047
 Basis read from rwf:  (5D, 7F)
 There are    69 symmetry adapted cartesian basis functions of A1  symmetry.
 There are    34 symmetry adapted cartesian basis functions of A2  symmetry.
 There are    39 symmetry adapted cartesian basis functions of B1  symmetry.
 There are    61 symmetry adapted cartesian basis functions of B2  symmetry.
 There are    60 symmetry adapted basis functions of A1  symmetry.
 There are    32 symmetry adapted basis functions of A2  symmetry.
 There are    36 symmetry adapted basis functions of B1  symmetry.
 There are    54 symmetry adapted basis functions of B2  symmetry.
   182 basis functions,   299 primitive gaussians,   203 cartesian basis functions
    21 alpha electrons       21 beta electrons
       nuclear repulsion energy       158.4854673501 Hartrees.
 NAtoms=    9 NActive=    9 NUniq=    4 SFac= 4.00D+00 NAtFMM=   60 NAOKFM=F Big=F
 Integral buffers will be    131072 words long.
 Raffenetti 2 integral format.
 Two-electron integral symmetry is turned on.
 One-electron integrals computed using PRISM.
 NBasis=   182 RedAO= T EigKep=  2.38D-03  NBF=    60    32    36    54
 NBsUse=   182 1.00D-06 EigRej= -1.00D+00 NBFU=    60    32    36    54
 Initial guess from the checkpoint file:  "/wrk/irikura/Gau-183827.chk"
 B after Tr=     0.000000   -0.000000   -0.000000
         Rot=    1.000000    0.000000    0.000000    0.000000 Ang=   0.00 deg.
 Initial guess orbital symmetries:
       Occupied  (B2) (A1) (A1) (B2) (A1) (A1) (B2) (B1) (A2) (A1)
                 (B2) (A1) (B2) (A1) (B2) (A1) (B1) (B2) (A2) (A1)
                 (B1)
       Virtual   (A1) (A1) (B2) (A1) (B2) (A2) (B1) (B2) (B1) (A1)
                 (A2) (B2) (A1) (A1) (B2) (A2) (B1) (B2) (A1) (B2)
                 (A1) (B1) (A1) (B2) (A2) (B2) (B1) (A1) (A1) (B2)
                 (A2) (B1) (A1) (B1) (A2) (B2) (A1) (A2) (B2) (A1)
                 (B1) (B2) (B1) (A1) (B2) (A1) (B2) (A2) (A2) (A1)
                 (A1) (B2) (B1) (B2) (B1) (A1) (B2) (A1) (A2) (B2)
                 (A1) (A2) (B1) (B2) (A1) (A2) (A1) (B1) (B2) (B2)
                 (A1) (B1) (B1) (A2) (A1) (B2) (A2) (B2) (B1) (A1)
                 (A1) (B2) (B2) (A2) (A1) (B1) (A1) (B2) (A2) (A1)
                 (B1) (B2) (A1) (B1) (B2) (A1) (B2) (A2) (B1) (A2)
                 (A2) (A1) (B2) (B1) (B2) (A2) (B1) (A1) (A1) (B1)
                 (A1) (B2) (A1) (A2) (B2) (B1) (A1) (B2) (B1) (A2)
                 (A1) (A2) (A2) (B1) (B2) (B2) (A1) (B1) (A1) (A2)
                 (B2) (B2) (A1) (A2) (B1) (A1) (B1) (B2) (A2) (B2)
                 (A1) (B1) (B2) (A2) (A1) (B1) (B2) (A1) (A2) (A1)
                 (B2) (B1) (B2) (A1) (A1) (B1) (A2) (B2) (A1) (B2)
                 (A1)
 ExpMin= 5.92D-02 ExpMax= 9.96D+04 ExpMxC= 9.62D+02 IAcc=3 IRadAn=         5 AccDes= 0.00D+00
 Harris functional with IExCor=  402 and IRadAn=       5 diagonalized for initial guess.
 HarFok:  IExCor=  402 AccDes= 0.00D+00 IRadAn=         5 IDoV= 1 UseB2=F ITyADJ=14
 ICtDFT=  3500011 ScaDFX=  1.000000  1.000000  1.000000  1.000000
 FoFCou: FMM=F IPFlag=           0 FMFlag=      100000 FMFlg1=           0
         NFxFlg=           0 DoJE=T BraDBF=F KetDBF=T FulRan=T
         wScrn=  0.000000 ICntrl=       500 IOpCl=  0 I1Cent=   200000004 NGrid=           0
         NMat0=    1 NMatS0=      1 NMatT0=    0 NMatD0=    1 NMtDS0=    0 NMtDT0=    0
 Petite list used in FoFCou.
 Keep R1 ints in memory in symmetry-blocked form, NReq=173551111.
 Requested convergence on RMS density matrix=1.00D-08 within 128 cycles.
 Requested convergence on MAX density matrix=1.00D-06.
 Requested convergence on             energy=1.00D-06.
 No special actions if energy rises.
 Integral accuracy reduced to 1.0D-05 until final iterations.
 Initial convergence to 1.0D-05 achieved.  Increase integral accuracy.
 SCF Done:  E(RB3LYP) =  -658.006242131     A.U. after    8 cycles
            NFock=  8  Conv=0.17D-08     -V/T= 2.0012
 Calling FoFJK, ICntrl=      2127 FMM=F ISym2X=1 I1Cent= 0 IOpClX= 0 NMat=1 NMatS=1 NMatT=0.
 ***** Axes restored to original set *****
 -------------------------------------------------------------------
 Center     Atomic                   Forces (Hartrees/Bohr)
 Number     Number              X              Y              Z
 -------------------------------------------------------------------
      1        8          -0.000000000   -0.000244086   -0.000000000
      2       14          -0.000582577   -0.000108020   -0.000000000
      3       14           0.000582577   -0.000108020    0.000000000
      4        1           0.000028571   -0.000041964    0.000000000
      5        1           0.000069021    0.000136014   -0.000143788
      6        1           0.000069021    0.000136014    0.000143788
      7        1          -0.000028571   -0.000041964    0.000000000
      8        1          -0.000069021    0.000136014    0.000143788
      9        1          -0.000069021    0.000136014   -0.000143788
 -------------------------------------------------------------------
 Cartesian Forces:  Max     0.000582577 RMS     0.000186847

 GradGradGradGradGradGradGradGradGradGradGradGradGradGradGradGradGradGrad
 Berny optimization.
 Using GEDIIS/GDIIS optimizer.
 FormGI is forming the generalized inverse of G from B-inverse, IUseBI=4.
 Internal  Forces:  Max     0.000431318 RMS     0.000184958
 Search for a local minimum.
 Step number   4 out of a maximum of   37
 All quantities printed in internal units (Hartrees-Bohrs-Radians)
 Mixed Optimization -- En-DIIS/RFO-DIIS
 Swapping is turned off.
 Update second derivatives using D2CorX and points    1    2    3    4
 DE= -8.25D-06 DEPred=-5.79D-06 R= 1.43D+00
 TightC=F SS=  1.41D+00  RLast= 2.11D-02 DXNew= 5.0454D-01 6.3330D-02
 Trust test= 1.43D+00 RLast= 2.11D-02 DXMaxT set to 3.00D-01
 ITU=  1  1  1  0
     Eigenvalues ---    0.01160   0.03902   0.03902   0.11279   0.11361
     Eigenvalues ---    0.11361   0.12087   0.16000   0.16000   0.16000
     Eigenvalues ---    0.16000   0.16023   0.17412   0.17566   0.17566
     Eigenvalues ---    0.17566   0.17693   0.18298   0.26490   0.45323
     Eigenvalues ---    0.64154
 En-DIIS/RFO-DIIS/Sim-DIIS IScMMF=       -3 using points:     4    3    2    1
 RFO step:  Lambda=-9.83973253D-06.
 DIIS inversion failure, remove point   4.
 DIIS inversion failure, remove point   3.
 RFO-DIIS uses    2 points instead of    4
 DidBck=F Rises=F RFO-DIIS coefs:    2.25012   -1.25012    0.00000    0.00000
 Iteration  1 RMS(Cart)=  0.01448102 RMS(Int)=  0.00009780
 Iteration  2 RMS(Cart)=  0.00018444 RMS(Int)=  0.00000146
 Iteration  3 RMS(Cart)=  0.00000000 RMS(Int)=  0.00000146
 ClnCor:  largest displacement from symmetrization is 1.92D-10 for atom     6.
 Variable       Old X    -DE/DX   Delta X   Delta X   Delta X     New X
                                 (Linear)    (Quad)   (Total)
    R1        3.08654  -0.00043   0.00043  -0.00100  -0.00058   3.08596
    R2        3.08654  -0.00043   0.00043  -0.00100  -0.00058   3.08596
    R3        2.79332  -0.00002   0.00044  -0.00054  -0.00009   2.79323
    R4        2.79989  -0.00017   0.00119  -0.00128  -0.00009   2.79980
    R5        2.79989  -0.00017   0.00119  -0.00128  -0.00009   2.79980
    R6        2.79332  -0.00002   0.00044  -0.00054  -0.00009   2.79323
    R7        2.79989  -0.00017   0.00119  -0.00128  -0.00009   2.79980
    R8        2.79989  -0.00017   0.00119  -0.00128  -0.00009   2.79980
    A1        2.77145   0.00040   0.02569   0.00085   0.02654   2.79799
    A2        1.90075  -0.00002   0.00102   0.00011   0.00113   1.90188
    A3        1.92019   0.00019  -0.00207   0.00096  -0.00111   1.91907
    A4        1.92019   0.00019  -0.00207   0.00096  -0.00111   1.91907
    A5        1.91041  -0.00015   0.00129  -0.00092   0.00038   1.91079
    A6        1.91041  -0.00015   0.00129  -0.00092   0.00038   1.91079
    A7        1.90185  -0.00007   0.00057  -0.00022   0.00036   1.90220
    A8        1.90075  -0.00002   0.00102   0.00011   0.00113   1.90188
    A9        1.92019   0.00019  -0.00207   0.00096  -0.00111   1.91907
   A10        1.92019   0.00019  -0.00207   0.00096  -0.00111   1.91907
   A11        1.91041  -0.00015   0.00129  -0.00092   0.00038   1.91079
   A12        1.91041  -0.00015   0.00129  -0.00092   0.00038   1.91079
   A13        1.90185  -0.00007   0.00057  -0.00022   0.00036   1.90220
    D1        3.14159   0.00000   0.00000   0.00000   0.00000   3.14159
    D2       -1.04773  -0.00008   0.00096  -0.00047   0.00048  -1.04725
    D3        1.04773   0.00008  -0.00096   0.00047  -0.00048   1.04725
    D4        3.14159  -0.00000   0.00000   0.00000   0.00000   3.14159
    D5       -1.04773  -0.00008   0.00096  -0.00047   0.00048  -1.04725
    D6        1.04773   0.00008  -0.00096   0.00047  -0.00048   1.04725
         Item               Value     Threshold  Converged?
 Maximum Force            0.000431     0.000450     YES
 RMS     Force            0.000185     0.000300     YES
 Maximum Displacement     0.043290     0.001800     NO 
 RMS     Displacement     0.014436     0.001200     NO 
 Predicted change in Energy=-4.921304D-06
 GradGradGradGradGradGradGradGradGradGradGradGradGradGradGradGradGradGrad

                          Input orientation:                          
 ---------------------------------------------------------------------
 Center     Atomic      Atomic             Coordinates (Angstroms)
 Number     Number       Type             X           Y           Z
 ---------------------------------------------------------------------
      1          8           0       -0.000000    0.219511   -0.000000
      2         14           0        1.608977   -0.059668    0.000000
      3         14           0       -1.608977   -0.059668   -0.000000
      4          1           0        2.321359    1.235450    0.000000
      5          1           0        1.988134   -0.832117    1.206096
[...]
                           1         2         3
     Eigenvalues --    43.77973 640.12568 642.03362
           X            0.00000   0.00000   1.00000
           Y            1.00000   0.00000  -0.00000
           Z           -0.00000   1.00000  -0.00000
 This molecule is an asymmetric top.
 Rotational symmetry number  2.
 Rotational temperatures (Kelvin)      1.97840     0.13531     0.13491
 Rotational constants (GHZ):          41.22321     2.81935     2.81098
 Zero-point vibrational energy     143866.1 (Joules/Mol)
                                   34.38481 (Kcal/Mol)
 Warning -- explicit consideration of   4 degrees of freedom as
           vibrations may cause significant error
 Vibrational temperatures:     30.69    52.98    68.70   809.58  1036.88
          (Kelvin)           1046.34  1080.03  1086.06  1392.99  1393.30
                             1396.29  1400.04  1400.43  1483.74  1672.37
                             3199.14  3199.30  3204.39  3210.42  3216.77
                             3225.79
 
 Zero-point correction=                           0.054796 (Hartree/Particle)
 Thermal correction to Energy=                    0.061062
 Thermal correction to Enthalpy=                  0.062006
 Thermal correction to Gibbs Free Energy=         0.023485
 Sum of electronic and zero-point Energies=           -657.951469
 Sum of electronic and thermal Energies=              -657.945203
 Sum of electronic and thermal Enthalpies=            -657.944259
 Sum of electronic and thermal Free Energies=         -657.982780
 
                     E (Thermal)             CV                S
                      KCal/Mol        Cal/Mol-Kelvin    Cal/Mol-Kelvin
 Total                   38.317             18.708             81.074
 Electronic               0.000              0.000              0.000
 Translational            0.889              2.981             38.977
 Rotational               0.889              2.981             23.024
 Vibrational             36.539             12.746             19.073
 Vibration     1          0.593              1.985              6.506
 Vibration     2          0.594              1.982              5.423
 Vibration     3          0.595              1.978              4.908
 Vibration     4          0.918              1.112              0.518
                       Q            Log10(Q)             Ln(Q)
 Total Bot       0.157687D-10        -10.802205        -24.872997
 Total V=0       0.252371D+15         14.402039         33.161920
 Vib (Bot)       0.242589D-22        -22.615129        -52.073259
 Vib (Bot)    1  0.971029D+01          0.987232          2.273186
 Vib (Bot)    2  0.562031D+01          0.749761          1.726388
 Vib (Bot)    3  0.433013D+01          0.636501          1.465597
 Vib (Bot)    4  0.275491D+00         -0.559893         -1.289202
 Vib (V=0)       0.388253D+03          2.589115          5.961658
 Vib (V=0)    1  0.102232D+02          1.009585          2.324655
 Vib (V=0)    2  0.614251D+01          0.788346          1.815234
 Vib (V=0)    3  0.485890D+01          0.686538          1.580812
 Vib (V=0)    4  0.107087D+01          0.029738          0.068473
 Electronic      0.100000D+01          0.000000          0.000000
 Translational   0.270745D+08          7.432560         17.114102
 Rotational      0.240084D+05          4.380364         10.086160
 ***** Axes restored to original set *****
 -------------------------------------------------------------------
 Center     Atomic                   Forces (Hartrees/Bohr)
 Number     Number              X              Y              Z
 -------------------------------------------------------------------
      1        8          -0.000000000   -0.000001782   -0.000000000
      2       14          -0.000005130    0.000003186   -0.000000000
      3       14           0.000005130    0.000003186   -0.000000000
      4        1           0.000000044    0.000000234    0.000000000
      5        1           0.000000270   -0.000001265    0.000000435
      6        1           0.000000270   -0.000001265   -0.000000435
      7        1          -0.000000044    0.000000234    0.000000000
      8        1          -0.000000270   -0.000001265   -0.000000435
      9        1          -0.000000270   -0.000001265    0.000000435
 -------------------------------------------------------------------
 Cartesian Forces:  Max     0.000005130 RMS     0.000001760
 FormGI is forming the generalized inverse of G from B-inverse, IUseBI=4.

 GradGradGradGradGradGradGradGradGradGradGradGradGradGradGradGradGradGrad
 Berny optimization.
 Internal  Forces:  Max     0.000004622 RMS     0.000001420
 Search for a local minimum.
 Step number   1 out of a maximum of    2
 All quantities printed in internal units (Hartrees-Bohrs-Radians)
 Second derivative matrix not updated -- analytic derivatives used.
 ITU=  0
     Eigenvalues ---    0.00001   0.00060   0.00198   0.07418   0.07427
     Eigenvalues ---    0.07484   0.07495   0.12323   0.13173   0.13202
     Eigenvalues ---    0.13601   0.13822   0.14178   0.18148   0.18161
     Eigenvalues ---    0.18257   0.18266   0.18759   0.18892   0.33861
     Eigenvalues ---    0.36265
 Angle between quadratic step and forces=  69.26 degrees.
 Linear search not attempted -- first point.
 Iteration  1 RMS(Cart)=  0.00004502 RMS(Int)=  0.00000000
 Iteration  2 RMS(Cart)=  0.00000000 RMS(Int)=  0.00000000
 ClnCor:  largest displacement from symmetrization is 2.00D-10 for atom     8.
 Variable       Old X    -DE/DX   Delta X   Delta X   Delta X     New X
                                 (Linear)    (Quad)   (Total)
    R1        3.08095  -0.00000   0.00000  -0.00002  -0.00002   3.08094
    R2        3.08095  -0.00000   0.00000  -0.00002  -0.00002   3.08094
    R3        2.79448   0.00000   0.00000   0.00000   0.00000   2.79449
    R4        2.79842   0.00000   0.00000   0.00001   0.00001   2.79843
    R5        2.79842   0.00000   0.00000   0.00001   0.00001   2.79843
    R6        2.79448   0.00000   0.00000   0.00000   0.00000   2.79449
    R7        2.79842   0.00000   0.00000   0.00001   0.00001   2.79843
    R8        2.79842   0.00000   0.00000   0.00001   0.00001   2.79843
    A1        2.88604  -0.00000   0.00000   0.00009   0.00009   2.88613
    A2        1.90528   0.00000   0.00000   0.00001   0.00001   1.90528
    A3        1.91985  -0.00000   0.00000  -0.00000  -0.00000   1.91985
    A4        1.91985  -0.00000   0.00000  -0.00000  -0.00000   1.91985
    A5        1.90778   0.00000   0.00000   0.00001   0.00001   1.90778
    A6        1.90778   0.00000   0.00000   0.00001   0.00001   1.90778
    A7        1.90321  -0.00000   0.00000  -0.00002  -0.00002   1.90320
    A8        1.90528   0.00000   0.00000   0.00001   0.00001   1.90528
    A9        1.91985  -0.00000   0.00000  -0.00000  -0.00000   1.91985
   A10        1.91985  -0.00000   0.00000  -0.00000  -0.00000   1.91985
   A11        1.90778   0.00000   0.00000   0.00001   0.00001   1.90778
   A12        1.90778   0.00000   0.00000   0.00001   0.00001   1.90778
   A13        1.90321  -0.00000   0.00000  -0.00002  -0.00002   1.90320
    D1        3.14159   0.00000   0.00000   0.00000   0.00000   3.14159
    D2       -1.04836   0.00000   0.00000   0.00001   0.00001  -1.04835
    D3        1.04836  -0.00000   0.00000  -0.00001  -0.00001   1.04835
    D4        3.14159  -0.00000   0.00000  -0.00000   0.00000   3.14159
    D5       -1.04836   0.00000   0.00000   0.00001   0.00001  -1.04835
    D6        1.04836  -0.00000   0.00000  -0.00001  -0.00001   1.04835
         Item               Value     Threshold  Converged?
 Maximum Force            0.000005     0.000450     YES
 RMS     Force            0.000001     0.000300     YES
 Maximum Displacement     0.000136     0.001800     YES
 RMS     Displacement     0.000045     0.001200     YES
 Predicted change in Energy=-1.284101D-10
 Optimization completed.
    -- Stationary point found.
                           ----------------------------
                           !   Optimized Parameters   !
                           ! (Angstroms and Degrees)  !
 --------------------------                            --------------------------
 ! Name  Definition              Value          Derivative Info.                !
 --------------------------------------------------------------------------------
 ! R1    R(1,2)                  1.6304         -DE/DX =    0.0                 !
 ! R2    R(1,3)                  1.6304         -DE/DX =    0.0                 !
 ! R3    R(2,4)                  1.4788         -DE/DX =    0.0                 !
 ! R4    R(2,5)                  1.4809         -DE/DX =    0.0                 !
 ! R5    R(2,6)                  1.4809         -DE/DX =    0.0                 !
 ! R6    R(3,7)                  1.4788         -DE/DX =    0.0                 !
 ! R7    R(3,8)                  1.4809         -DE/DX =    0.0                 !
 ! R8    R(3,9)                  1.4809         -DE/DX =    0.0                 !
 ! A1    A(2,1,3)              165.3578         -DE/DX =    0.0                 !
 ! A2    A(1,2,4)              109.1642         -DE/DX =    0.0                 !
 ! A3    A(1,2,5)              109.9994         -DE/DX =    0.0                 !
 ! A4    A(1,2,6)              109.9994         -DE/DX =    0.0                 !
 ! A5    A(4,2,5)              109.3075         -DE/DX =    0.0                 !
 ! A6    A(4,2,6)              109.3075         -DE/DX =    0.0                 !
 ! A7    A(5,2,6)              109.046          -DE/DX =    0.0                 !
 ! A8    A(1,3,7)              109.1642         -DE/DX =    0.0                 !
 ! A9    A(1,3,8)              109.9994         -DE/DX =    0.0                 !
 ! A10   A(1,3,9)              109.9994         -DE/DX =    0.0                 !
 ! A11   A(7,3,8)              109.3075         -DE/DX =    0.0                 !
 ! A12   A(7,3,9)              109.3075         -DE/DX =    0.0                 !
 ! A13   A(8,3,9)              109.046          -DE/DX =    0.0                 !
 ! D1    D(3,1,2,4)            180.0            -DE/DX =    0.0                 !
 ! D2    D(3,1,2,5)            -60.0669         -DE/DX =    0.0                 !
 ! D3    D(3,1,2,6)             60.0669         -DE/DX =    0.0                 !
 ! D4    D(2,1,3,7)            180.0            -DE/DX =    0.0                 !
 ! D5    D(2,1,3,8)            -60.0669         -DE/DX =    0.0                 !
 ! D6    D(2,1,3,9)             60.0669         -DE/DX =    0.0                 !
 --------------------------------------------------------------------------------
 GradGradGradGradGradGradGradGradGradGradGradGradGradGradGradGradGradGrad


 ----------------------------------------------------------------------

 Electric dipole moment (input orientation):
 (Debye = 10**-18 statcoulomb cm , SI units = C m)
                  (au)            (Debye)         (10**-30 SI)
   Tot        0.637868D-01      0.162130D+00      0.540807D+00
   x          0.000000D+00      0.000000D+00      0.000000D+00
   y         -0.637868D-01     -0.162130D+00     -0.540807D+00
   z          0.000000D+00      0.000000D+00      0.000000D+00

 Dipole polarizability, Alpha (input orientation).
 (esu units = cm**3 , SI units = C**2 m**2 J**-1)
 Alpha(0;0):
               (au)            (10**-24 esu)      (10**-40 SI)
   iso        0.530693D+02      0.786407D+01      0.874995D+01
   aniso      0.432833D+01      0.641392D+00      0.713645D+00
   xx         0.559545D+02      0.829160D+01      0.922565D+01
   yx         0.000000D+00      0.000000D+00      0.000000D+00
   yy         0.516700D+02      0.765670D+01      0.851923D+01
   zx         0.000000D+00      0.000000D+00      0.000000D+00
   zy         0.000000D+00      0.000000D+00      0.000000D+00
   zz         0.515836D+02      0.764390D+01      0.850499D+01

 ----------------------------------------------------------------------

 Dipole orientation:
     8         -0.00000000         -0.00000000         -0.26676986
    14          3.05583663         -0.00000000          0.12583536
    14         -3.05583663          0.00000000          0.12583536
     1          4.30208853         -0.00000000         -2.37536425
     1          3.83791457          2.27888934          1.54927277
     1          3.83791457         -2.27888934          1.54927277
     1         -4.30208853          0.00000000         -2.37536425
     1         -3.83791457         -2.27888934          1.54927277
     1         -3.83791457          2.27888934          1.54927277

 Electric dipole moment (dipole orientation):
 (Debye = 10**-18 statcoulomb cm , SI units = C m)
                  (au)            (Debye)         (10**-30 SI)
   Tot        0.637868D-01      0.162130D+00      0.540807D+00
   x          0.000000D+00      0.000000D+00      0.000000D+00
   y          0.000000D+00      0.000000D+00      0.000000D+00
   z          0.637868D-01      0.162130D+00      0.540807D+00

 Dipole polarizability, Alpha (dipole orientation).
 (esu units = cm**3 , SI units = C**2 m**2 J**-1)
 Alpha(0;0):
               (au)            (10**-24 esu)      (10**-40 SI)
   iso        0.530693D+02      0.786407D+01      0.874995D+01
   aniso      0.432833D+01      0.641392D+00      0.713645D+00
   xx         0.559545D+02      0.829160D+01      0.922565D+01
   yx         0.000000D+00      0.000000D+00      0.000000D+00
   yy         0.515836D+02      0.764390D+01      0.850499D+01
   zx         0.000000D+00      0.000000D+00      0.000000D+00
   zy         0.000000D+00      0.000000D+00      0.000000D+00
   zz         0.516700D+02      0.765670D+01      0.851923D+01

 ----------------------------------------------------------------------
 1\1\GINC-GAMBA\Freq\RB3LYP\Gen\H6O1Si2\IRIKURA\16-Sep-2023\0\\#N Geom=
 AllCheck Guess=TCheck SCRF=Check GenChk RB3LYP/ChkBas Freq\\disilyl et
 her, B3LYP/pcseg-2\\0,1\O,0.,0.1411685306,0.\Si,1.617079106,-0.0665892
 044,0.\Si,-1.617079106,-0.0665892044,0.\H,2.2765672094,1.2569886307,0.
 \H,2.0309369253,-0.8198398458,1.2059363029\H,2.0309369253,-0.819839845
 8,-1.2059363029\H,-2.2765672094,1.2569886307,0.\H,-2.0309369253,-0.819
 8398458,-1.2059363029\H,-2.0309369253,-0.8198398458,1.2059363029\\Vers
 ion=ES64L-G16RevB.01\State=1-A1\HF=-658.0062647\RMSD=2.980e-09\RMSF=1.
 760e-06\ZeroPoint=0.0547957\Thermal=0.0610615\Dipole=0.,-0.0637868,0.\
 DipoleDeriv=-2.828252,0.,0.,0.,-0.6727363,0.,0.,0.,-0.6814103,2.342915
 6,-0.0390375,0.,-0.1356179,1.1861014,0.,0.,0.,1.1987943,2.3429156,0.03
 90375,0.,0.1356179,1.1861014,0.,0.,0.,1.1987943,-0.3065135,-0.0127622,
 0.,-0.0472078,-0.3123632,0.,0.,0.,-0.2476953,-0.311138,-0.0065171,0.00
 39814,0.027793,-0.268685,0.0323493,-0.0372728,0.03556,-0.3051969,-0.31
 1138,-0.0065171,-0.0039814,0.027793,-0.268685,-0.0323493,0.0372728,-0.
 03556,-0.3051969,-0.3065135,0.0127622,0.,0.0472078,-0.3123632,0.,0.,0.
 ,-0.2476953,-0.311138,0.0065171,0.0039814,-0.027793,-0.268685,-0.03234
 93,-0.0372728,-0.03556,-0.3051969,-0.311138,0.0065171,-0.0039814,-0.02
 7793,-0.268685,0.0323493,0.0372728,0.03556,-0.3051969\Polar=55.9544716
 ,0.,51.6699679,0.,0.,51.5836079\Quadrupole=0.8599104,-0.4355243,-0.424
 3861,0.,0.,0.\PG=C02V [C2(O1),SGV(H2Si2),X(H4)]\NImag=0\\0.64550617,0.
 ,0.04809757,0.,0.,0.04326179,-0.27808059,0.02854761,0.,0.42880085,0.03
 069327,-0.03830405,0.,-0.00867667,0.32667187,0.,0.,-0.03593129,0.,0.,0
 .32262262,-0.27808059,-0.02854761,0.,-0.04306207,0.00056326,0.,0.42880
 085,-0.03069327,-0.03830405,0.,-0.00056326,0.00017928,0.,0.00867667,0.
 32667187,0.,0.,-0.03593129,0.,0.,0.00086041,0.,0.,0.32262262,-0.017114
 01,-0.01146674,0.,-0.05128087,-0.05360753,0.,0.00472802,-0.00079448,0.
 ,0.05624502,-0.00138342,0.00616984,0.,-0.05776008,-0.14997161,0.,0.001
 22473,-0.00044066,0.,0.06344898,0.15353001,0.,0.,0.00489153,0.,0.,-0.0
 3111171,0.,0.,-0.00019688,0.,0.,0.02181536,-0.01377924,0.00815450,-0.0
 1211136,-0.03624287,0.01663263,-0.02766742,0.00569019,0.00151604,-0.00
 087196,0.00471530,-0.00263835,0.00328975,0.03687776,0.00459959,0.00404
 271,0.00160820,0.01834514,-0.06824317,0.05938181,-0.00149343,-0.000824
 24,0.00037460,0.00128991,-0.00480099,0.01104253,-0.02249943,0.06351941
 ,-0.00358292,0.00041262,0.00470443,-0.03092620,0.05981810,-0.12739937,
 0.00151059,0.00045421,-0.00072221,-0.00023332,0.00083558,0.00214205,0.
 03548483,-0.06686620,0.12923044,-0.01377924,0.00815450,0.01211136,-0.0
 3624287,0.01663263,0.02766742,0.00569019,0.00151604,0.00087196,0.00471
 530,-0.00263836,-0.00328975,0.00457332,-0.00080697,-0.00170393,0.03687
 776,0.00459959,0.00404271,-0.00160820,0.01834514,-0.06824317,-0.059381
 81,-0.00149343,-0.00082424,-0.00037460,0.00128991,-0.00480099,-0.01104
 253,-0.00080697,0.00588222,0.00547230,-0.02249943,0.06351941,0.0035829
 2,-0.00041262,0.00470443,0.03092620,-0.05981810,-0.12739937,-0.0015105
 9,-0.00045421,-0.00072221,0.00023332,-0.00083558,0.00214205,0.00170393
 ,-0.00547230,-0.00833819,-0.03548483,0.06686620,0.12923044,-0.01711401
 ,0.01146674,0.,0.00472802,0.00079448,0.,-0.05128087,0.05360753,0.,-0.0
 0035295,-0.00014910,0.,-0.00082791,0.00015458,-0.00021372,-0.00082791,
 0.00015458,0.00021372,0.05624502,0.00138342,0.00616984,0.,-0.00122473,
 -0.00044066,0.,0.05776008,-0.14997161,0.,0.00014910,0.00014168,0.,0.00
 005220,0.00008635,0.00000080,0.00005220,0.00008635,-0.00000080,-0.0634
 4898,0.15353001,0.,0.,0.00489153,0.,0.,-0.00019688,0.,0.,-0.03111171,0
 .,0.,0.00008176,0.00009227,-0.00001328,0.00011792,-0.00009227,0.000013
 28,0.00011792,0.,0.,0.02181536,-0.01377924,-0.00815450,-0.01211136,0.0
 0569019,-0.00151604,-0.00087196,-0.03624287,-0.01663263,-0.02766742,-0
 .00082791,-0.00005220,0.00009227,-0.00065309,0.00022640,-0.00012768,-0
 .00035347,0.00018421,0.00020764,0.00471530,0.00263835,0.00328975,0.036
 87776,-0.00459959,0.00404271,-0.00160820,0.00149343,-0.00082424,-0.000
 37460,-0.01834514,-0.06824317,-0.05938181,-0.00015458,0.00008635,0.000
 01328,-0.00022640,0.00018455,-0.00003603,-0.00018421,0.00015315,0.0000
 9138,-0.00128991,-0.00480099,-0.01104253,0.02249943,0.06351941,-0.0035
 8292,-0.00041262,0.00470443,0.00151059,-0.00045421,-0.00072221,-0.0309
 2620,-0.05981810,-0.12739937,-0.00021372,-0.00000080,0.00011792,-0.000
 12768,0.00003603,0.00008864,-0.00020764,0.00009138,0.00017629,-0.00023
 332,-0.00083558,0.00214205,0.03548483,0.06686620,0.12923044,-0.0137792
 4,-0.00815450,0.01211136,0.00569019,-0.00151604,0.00087196,-0.03624287
 ,-0.01663263,0.02766742,-0.00082791,-0.00005220,-0.00009227,-0.0003534
 7,0.00018421,-0.00020764,-0.00065309,0.00022640,0.00012768,0.00471530,
 0.00263836,-0.00328975,0.00457332,0.00080697,-0.00170393,0.03687776,-0
 .00459959,0.00404271,0.00160820,0.00149343,-0.00082424,0.00037460,-0.0
 1834514,-0.06824317,0.05938181,-0.00015458,0.00008635,-0.00001328,-0.0
 0018421,0.00015315,-0.00009138,-0.00022640,0.00018455,0.00003603,-0.00
 128991,-0.00480099,0.01104253,0.00080697,0.00588222,-0.00547230,0.0224
 9943,0.06351941,0.00358292,0.00041262,0.00470443,-0.00151059,0.0004542
 1,-0.00072221,0.03092620,0.05981810,-0.12739937,0.00021372,0.00000080,
 0.00011792,0.00020764,-0.00009138,0.00017629,0.00012768,-0.00003603,0.
 00008864,0.00023332,0.00083558,0.00214205,0.00170393,0.00547230,-0.008
 33819,-0.03548483,-0.06686620,0.12923044\\0.,0.00000178,0.,0.00000513,
 -0.00000319,0.,-0.00000513,-0.00000319,0.,-0.00000004,-0.00000023,0.,-
 0.00000027,0.00000126,-0.00000044,-0.00000027,0.00000126,0.00000044,0.
 00000004,-0.00000023,0.,0.00000027,0.00000126,0.00000044,0.00000027,0.
 00000126,-0.00000044\\\@


 EVERYTHING'S GOT A MORAL, IF ONLY YOU CAN FIND IT.

                                    -- LEWIS CARROL, ALICE IN WONDERLAND
 Job cpu time:       0 days  0 hours  8 minutes 39.4 seconds.
 Elapsed time:       0 days  0 hours  0 minutes 43.4 seconds.
 File lengths (MBytes):  RWF=     23 Int=      0 D2E=      0 Chk=      4 Scr=      1
 Normal termination of Gaussian 16 at Sat Sep 16 07:54:44 2023.
