 Entering Gaussian System, Link 0=g16
 AtFile(1): pcseg2.gbs
            -H     0
            S   4   1.00
                  0.754732D+02           0.427821D-02
                  0.113575D+02           0.328672D-01
                  0.260081D+01           0.159578D+00
                  0.735503D+00           0.500000D+00
            S   1   1.00
                  0.231761D+00           1.0000000
            S   1   1.00
                  0.741675D-01           1.0000000
            P   1   1.00
                  0.160000D+01           1.0000000
            P   1   1.00
                  0.450000D+00           1.0000000
            D   1   1.00
                  0.125000D+01           1.0000000
            ****
            -C     0
            S   7   1.00
                  0.731999D+04           0.695369D-03
                  0.109818D+04           0.537138D-02
                  0.250014D+03           0.274734D-01
                  0.707586D+02           0.105078D+00
                  0.228595D+02           0.291262D+00
                  0.803936D+01           0.500000D+00
                  0.289309D+01           0.362224D+00
            S   2   1.00
                  0.521640D+01          -0.957844D-01
                  0.556124D+00           0.500000D+00
            S   1   1.00
                  0.228813D+00           1.0000000
            S   1   1.00
                  0.936338D-01           1.0000000
            P   4   1.00
                  0.339855D+02           0.818395D-02
                  0.772957D+01           0.586921D-01
                  0.224954D+01           0.222514D+00
                  0.767681D+00           0.500000D+00
            P   1   1.00
                  0.263283D+00           1.0000000
            P   1   1.00
                  0.848744D-01           1.0000000
            D   1   1.00
                  0.140000D+01           1.0000000
            D   1   1.00
                  0.450000D+00           1.0000000
            F   1   1.00
                  0.950000D+00           1.0000000
            ****
            -O     0
            S   7   1.00
                  0.135887D+05           0.665492D-03
                  0.203847D+04           0.514222D-02
                  0.464041D+03           0.263472D-01
                  0.131339D+03           0.101500D+00
                  0.425340D+02           0.285877D+00
                  0.150429D+02           0.500000D+00
                  0.546616D+01           0.368211D+00
            S   2   1.00
                  0.100915D+02          -0.100084D+00
                  0.110429D+01           0.500000D+00
            S   1   1.00
                  0.448082D+00           1.0000000
            S   1   1.00
                  0.175325D+00           1.0000000
            P   4   1.00
                  0.608220D+02           0.908253D-02
                  0.140332D+02           0.645878D-01
                  0.418244D+01           0.241502D+00
                  0.142490D+01           0.500000D+00
            P   1   1.00
                  0.478741D+00           1.0000000
            P   1   1.00
                  0.146257D+00           1.0000000
            D   1   1.00
                  0.220000D+01           1.0000000
            D   1   1.00
                  0.650000D+00           1.0000000
            F   1   1.00
                  0.110000D+01           1.0000000
            ****
            -N     0
            S   7   1.00
                  0.101643D+05           0.682757D-03
                  0.152481D+04           0.527488D-02
                  0.347119D+03           0.270037D-01
                  0.982389D+02           0.103673D+00
                  0.317799D+02           0.289575D+00
                  0.112240D+02           0.500000D+00
                  0.406611D+01           0.364621D+00
            S   2   1.00
                  0.747898D+01          -0.975681D-01
                  0.805040D+00           0.500000D+00
            S   1   1.00
                  0.324626D+00           1.0000000
            S   1   1.00
                  0.128132D+00           1.0000000
            P   4   1.00
                  0.482704D+02           0.829547D-02
                  0.110815D+02           0.596223D-01
                  0.326643D+01           0.227889D+00
                  0.111680D+01           0.500000D+00
            P   1   1.00
                  0.382049D+00           1.0000000
            P   1   1.00
                  0.121222D+00           1.0000000
            D   1   1.00
                  0.180000D+01           1.0000000
            D   1   1.00
                  0.550000D+00           1.0000000
            F   1   1.00
                  0.102000D+01           1.0000000
            ****
            -F     0
            S   7   1.00
                  0.174507D+05           0.655972D-03
                  0.261768D+04           0.506944D-02
                  0.595857D+03           0.259899D-01
                  0.168651D+03           0.100353D+00
                  0.546654D+02           0.284095D+00
                  0.193717D+02           0.500000D+00
                  0.706202D+01           0.370721D+00
            S   2   1.00
                  0.131197D+02          -0.101997D+00
                  0.145046D+01           0.500000D+00
            S   1   1.00
                  0.588255D+00           1.0000000
            S   1   1.00
                  0.227960D+00           1.0000000
            P   4   1.00
                  0.779407D+02           0.931135D-02
                  0.180425D+02           0.663964D-01
                  0.542342D+01           0.246386D+00
                  0.184876D+01           0.500000D+00
            P   1   1.00
                  0.617455D+00           1.0000000
            P   1   1.00
                  0.185496D+00           1.0000000
            D   1   1.00
                  0.280000D+01           1.0000000
            D   1   1.00
                  0.800000D+00           1.0000000
            F   1   1.00
                  0.120000D+01           1.0000000
            ****
            -Cl     0
            S   8   1.00
                  0.154272D+06           0.222473D-03
                  0.231232D+05           0.172590D-02
                  0.526257D+04           0.899286D-02
                  0.148995D+04           0.367724D-01
                  0.485417D+03           0.121446D+00
                  0.174634D+03           0.304148D+00
                  0.672393D+02           0.500000D+00
                  0.265780D+02           0.360252D+00
            S   3   1.00
                  0.131826D+03          -0.531330D-01
                  0.400703D+02          -0.233346D+00
                  0.789448D+01           0.500000D+00
            S   2   1.00
                  0.427711D+01           0.500000D+00
                  0.196233D+01           0.370517D+00
            S   1   1.00
                  0.520793D+00           1.0000000
            S   1   1.00
                  0.181633D+00           1.0000000
            P   7   1.00
                  0.124440D+04           0.988206D-03
                  0.295109D+03           0.829674D-02
                  0.947224D+02           0.430906D-01
                  0.352588D+02           0.148443D+00
                  0.144211D+02           0.344744D+00
                  0.610371D+01           0.500000D+00
                  0.258886D+01           0.348278D+00
            P   2   1.00
                  0.109447D+02          -0.196768D-01
                  0.104413D+01           0.500000D+00
            P   1   1.00
                  0.376184D+00           1.0000000
            P   1   1.00
                  0.120613D+00           1.0000000
            D   1   1.00
                  0.231000D+01           1.0000000
            D   1   1.00
                  0.520000D+00           1.0000000
            F   1   1.00
                  0.720000D+00           1.0000000
            ****
            -S     0
            S   8   1.00
                  0.134700D+06           0.226231D-03
                  0.201904D+05           0.175488D-02
                  0.459528D+04           0.914190D-02
                  0.130109D+04           0.373551D-01
                  0.423902D+03           0.123121D+00
                  0.152485D+03           0.306801D+00
                  0.586925D+02           0.500000D+00
                  0.231461D+02           0.354358D+00
            S   3   1.00
                  0.116327D+03          -0.491772D-01
                  0.352841D+02          -0.215962D+00
                  0.677831D+01           0.500000D+00
            S   2   1.00
                  0.360404D+01           0.500000D+00
                  0.164871D+01           0.366278D+00
            S   1   1.00
                  0.421821D+00           1.0000000
            S   1   1.00
                  0.147554D+00           1.0000000
            P   7   1.00
                  0.104863D+04           0.105273D-02
                  0.248717D+03           0.879338D-02
                  0.797887D+02           0.453358D-01
                  0.296023D+02           0.154476D+00
                  0.120627D+02           0.352366D+00
                  0.507628D+01           0.500000D+00
                  0.213375D+01           0.346429D+00
            P   2   1.00
                  0.928958D+01          -0.185932D-01
                  0.837819D+00           0.500000D+00
            P   1   1.00
                  0.301495D+00           1.0000000
            P   1   1.00
                  0.974740D-01           1.0000000
            D   1   1.00
                  0.210000D+01           1.0000000
            D   1   1.00
                  0.480000D+00           1.0000000
            F   1   1.00
                  0.660000D+00           1.0000000
            ****
            -Si     0
            S    8   1.00
                  0.996133D+05           0.235546D-03
                  0.149311D+05           0.182707D-02
                  0.339820D+04           0.951425D-02
                  0.962140D+03           0.388172D-01
                  0.313430D+03           0.127328D+00
                  0.112683D+03           0.313522D+00
                  0.433372D+02           0.500000D+00
                  0.170029D+02           0.340347D+00
            S    3   1.00
                  0.884208D+02          -0.404451D-01
                  0.266756D+02          -0.178059D+00
                  0.479640D+01           0.500000D+00
            S    2   1.00
                  0.239385D+01           0.500000D+00
                  0.108333D+01           0.338016D+00
            S    1   1.00
                  0.252420D+00           1.0000000
            S    1   1.00
                  0.891210D-01           1.0000000
            P    7   1.00
                  0.709901D+03           0.123028D-02
                  0.168426D+03           0.101366D-01
                  0.539946D+02           0.511840D-01
                  0.198646D+02           0.169967D+00
                  0.801369D+01           0.370717D+00
                  0.331870D+01           0.500000D+00
                  0.136112D+01           0.344128D+00
            P    2   1.00
                  0.622158D+01          -0.166609D-01
                  0.503049D+00           0.500000D+00
            P    1   1.00
                  0.179848D+00           1.0000000
            P    1   1.00
                  0.591912D-01           1.0000000
            D    1   1.00
                  0.168000D+01           1.0000000
            D    1   1.00
                  0.380000D+00           1.0000000
            F    1   1.00
                  0.540000D+00           1.0000000
            ****
            -P     0
            S    8   1.00
                  0.116416D+06           0.230715D-03
                  0.174500D+05           0.178960D-02
                  0.397149D+04           0.932116D-02
                  0.112447D+04           0.380591D-01
                  0.366347D+03           0.125148D+00
                  0.131757D+03           0.310022D+00
                  0.506988D+02           0.500000D+00
                  0.199436D+02           0.347528D+00
            S    3   1.00
                  0.101878D+03          -0.446755D-01
                  0.308249D+02          -0.196376D+00
                  0.573688D+01           0.500000D+00
            S    2   1.00
                  0.296868D+01           0.500000D+00
                  0.135315D+01           0.355098D+00
            S    1   1.00
                  0.332196D+00           1.0000000
            S    1   1.00
                  0.116229D+00           1.0000000
            P    7   1.00
                  0.873928D+03           0.112375D-02
                  0.207298D+03           0.933330D-02
                  0.664628D+02           0.477213D-01
                  0.245665D+02           0.160733D+00
                  0.996820D+01           0.359760D+00
                  0.416536D+01           0.500000D+00
                  0.173022D+01           0.346593D+00
            P    2   1.00
                  0.772530D+01          -0.175718D-01
                  0.657252D+00           0.500000D+00
            P    1   1.00
                  0.239903D+00           1.0000000
            P    1   1.00
                  0.800988D-01           1.0000000
            D    1   1.00
                  0.189000D+01           1.0000000
            D    1   1.00
                  0.430000D+00           1.0000000
            F    1   1.00
                  0.600000D+00           1.0000000
            ****
            
 Initial command:
 /usr/local/apps/g16_b01_avx/g16/l1.exe "/wrk/irikura/Gau-1176.inp" -scrdir="/wrk/irikura/"
 Entering Link 1 = /usr/local/apps/g16_b01_avx/g16/l1.exe PID=      1178.
  
 Copyright (c) 1988-2017, Gaussian, Inc.  All Rights Reserved.
  
 This is part of the Gaussian(R) 16 program.  It is based on
 the Gaussian(R) 09 system (copyright 2009, Gaussian, Inc.),
 the Gaussian(R) 03 system (copyright 2003, Gaussian, Inc.),
 the Gaussian(R) 98 system (copyright 1998, Gaussian, Inc.),
 the Gaussian(R) 94 system (copyright 1995, Gaussian, Inc.),
 the Gaussian 92(TM) system (copyright 1992, Gaussian, Inc.),
 the Gaussian 90(TM) system (copyright 1990, Gaussian, Inc.),
 the Gaussian 88(TM) system (copyright 1988, Gaussian, Inc.),
 the Gaussian 86(TM) system (copyright 1986, Carnegie Mellon
 University), and the Gaussian 82(TM) system (copyright 1983,
 Carnegie Mellon University). Gaussian is a federally registered
 trademark of Gaussian, Inc.
  
 This software contains proprietary and confidential information,
 including trade secrets, belonging to Gaussian, Inc.
  
 This software is provided under written license and may be
 used, copied, transmitted, or stored only in accord with that
 written license.
  
 The following legend is applicable only to US Government
 contracts under FAR:
  
                    RESTRICTED RIGHTS LEGEND
  
 Use, reproduction and disclosure by the US Government is
 subject to restrictions as set forth in subparagraphs (a)
 and (c) of the Commercial Computer Software - Restricted
 Rights clause in FAR 52.227-19.
  
 Gaussian, Inc.
 340 Quinnipiac St., Bldg. 40, Wallingford CT 06492
  
  
 ---------------------------------------------------------------
 Warning -- This program may not be used in any manner that
 competes with the business of Gaussian, Inc. or will provide
 assistance to any competitor of Gaussian, Inc.  The licensee
 of this program is prohibited from giving any competitor of
 Gaussian, Inc. access to this program.  By using this program,
 the user acknowledges that Gaussian, Inc. is engaged in the
 business of creating and licensing software in the field of
 computational chemistry and represents and warrants to the
 licensee that it is not a competitor of Gaussian, Inc. and that
 it will not use this program in any manner prohibited above.
 ---------------------------------------------------------------
  

 Cite this work as:
 Gaussian 16, Revision B.01,
 M. J. Frisch, G. W. Trucks, H. B. Schlegel, G. E. Scuseria, 
 M. A. Robb, J. R. Cheeseman, G. Scalmani, V. Barone, 
 G. A. Petersson, H. Nakatsuji, X. Li, M. Caricato, A. V. Marenich, 
 J. Bloino, B. G. Janesko, R. Gomperts, B. Mennucci, H. P. Hratchian, 
 J. V. Ortiz, A. F. Izmaylov, J. L. Sonnenberg, D. Williams-Young, 
 F. Ding, F. Lipparini, F. Egidi, J. Goings, B. Peng, A. Petrone, 
 T. Henderson, D. Ranasinghe, V. G. Zakrzewski, J. Gao, N. Rega, 
 G. Zheng, W. Liang, M. Hada, M. Ehara, K. Toyota, R. Fukuda, 
 J. Hasegawa, M. Ishida, T. Nakajima, Y. Honda, O. Kitao, H. Nakai, 
 T. Vreven, K. Throssell, J. A. Montgomery, Jr., J. E. Peralta, 
 F. Ogliaro, M. J. Bearpark, J. J. Heyd, E. N. Brothers, K. N. Kudin, 
 V. N. Staroverov, T. A. Keith, R. Kobayashi, J. Normand, 
 K. Raghavachari, A. P. Rendell, J. C. Burant, S. S. Iyengar, 
 J. Tomasi, M. Cossi, J. M. Millam, M. Klene, C. Adamo, R. Cammi, 
 J. W. Ochterski, R. L. Martin, K. Morokuma, O. Farkas, 
 J. B. Foresman, and D. J. Fox, Gaussian, Inc., Wallingford CT, 2016.
 
 ******************************************
 Gaussian 16:  ES64L-G16RevB.01 20-Dec-2017
                27-Feb-2022 
 ******************************************
 %mem=500mw
 %nprocs=8
 Will use up to    8 processors via shared memory.
 --------------------
 # b3lyp/gen opt freq
 --------------------
 1/18=20,19=15,26=3,38=1/1,3;
 2/9=110,12=2,17=6,18=5,40=1/2;
 3/5=7,11=2,25=1,30=1,71=1,74=-5/1,2,3;
 4//1;
 5/5=2,38=5/2;
 6/7=2,8=2,9=2,10=2,28=1/1;
 7//1,2,3,16;
 1/18=20,19=15,26=3/3(2);
 2/9=110/2;
 99//99;
 2/9=110/2;
 3/5=7,6=1,11=2,25=1,30=1,71=1,74=-5,82=7/1,2,3;
 4/5=5,16=3,69=1/1;
 5/5=2,38=5/2;
 7//1,2,3,16;
 1/18=20,19=15,26=3/3(-5);
 2/9=110/2;
 6/7=2,8=2,9=2,10=2,19=2,28=1/1;
 99/9=1/99;
 --------------------------------
 dimethylformamide, B3LYP/pcseg-2
 --------------------------------
 Symbolic Z-matrix:
 Charge =  0 Multiplicity = 1
 C                     0.69434  -0.82683   0. 
 O                     0.20773  -1.93878   0. 
 N                     0.        0.34762   0. 
 C                    -1.45356   0.33441   0. 
 C                     0.66988   1.63247   0. 
 H                     1.78805  -0.65527   0. 
 H                    -1.77969  -0.70395   0. 
 H                    -1.84574   0.83968   0.88931 
 H                    -1.84574   0.83968  -0.88931 
 H                     1.75078   1.48147   0. 
 H                     0.40327   2.21745  -0.88777 
 H                     0.40327   2.21745   0.88777 
 

 GradGradGradGradGradGradGradGradGradGradGradGradGradGradGradGradGradGrad
 Berny optimization.
 Initialization pass.
                           ----------------------------
                           !    Initial Parameters    !
                           ! (Angstroms and Degrees)  !
 --------------------------                            --------------------------
 ! Name  Definition              Value          Derivative Info.                !
 --------------------------------------------------------------------------------
 ! R1    R(1,2)                  1.2138         estimate D2E/DX2                !
 ! R2    R(1,3)                  1.3643         estimate D2E/DX2                !
 ! R3    R(1,6)                  1.1071         estimate D2E/DX2                !
 ! R4    R(3,4)                  1.4536         estimate D2E/DX2                !
 ! R5    R(3,5)                  1.449          estimate D2E/DX2                !
 ! R6    R(4,7)                  1.0884         estimate D2E/DX2                !
 ! R7    R(4,8)                  1.0954         estimate D2E/DX2                !
 ! R8    R(4,9)                  1.0954         estimate D2E/DX2                !
 ! R9    R(5,10)                 1.0914         estimate D2E/DX2                !
 ! R10   R(5,11)                 1.0961         estimate D2E/DX2                !
 ! R11   R(5,12)                 1.0961         estimate D2E/DX2                !
 ! A1    A(2,1,3)              125.7728         estimate D2E/DX2                !
 ! A2    A(2,1,6)              122.5502         estimate D2E/DX2                !
 ! A3    A(3,1,6)              111.677          estimate D2E/DX2                !
 ! A4    A(1,3,4)              120.0713         estimate D2E/DX2                !
 ! A5    A(1,3,5)              121.8722         estimate D2E/DX2                !
 ! A6    A(4,3,5)              118.0565         estimate D2E/DX2                !
 ! A7    A(3,4,7)              107.957          estimate D2E/DX2                !
 ! A8    A(3,4,8)              110.7208         estimate D2E/DX2                !
 ! A9    A(3,4,9)              110.7208         estimate D2E/DX2                !
 ! A10   A(7,4,8)              109.4371         estimate D2E/DX2                !
 ! A11   A(7,4,9)              109.4371         estimate D2E/DX2                !
 ! A12   A(8,4,9)              108.5508         estimate D2E/DX2                !
 ! A13   A(3,5,10)             109.5833         estimate D2E/DX2                !
 ! A14   A(3,5,11)             111.1488         estimate D2E/DX2                !
 ! A15   A(3,5,12)             111.1488         estimate D2E/DX2                !
 ! A16   A(10,5,11)            108.3446         estimate D2E/DX2                !
 ! A17   A(10,5,12)            108.3446         estimate D2E/DX2                !
 ! A18   A(11,5,12)            108.1807         estimate D2E/DX2                !
 ! D1    D(2,1,3,4)              0.0            estimate D2E/DX2                !
 ! D2    D(2,1,3,5)            180.0            estimate D2E/DX2                !
 ! D3    D(6,1,3,4)            180.0            estimate D2E/DX2                !
 ! D4    D(6,1,3,5)              0.0            estimate D2E/DX2                !
 ! D5    D(1,3,4,7)              0.0            estimate D2E/DX2                !
 ! D6    D(1,3,4,8)            119.7755         estimate D2E/DX2                !
 ! D7    D(1,3,4,9)           -119.7755         estimate D2E/DX2                !
 ! D8    D(5,3,4,7)            180.0            estimate D2E/DX2                !
 ! D9    D(5,3,4,8)            -60.2245         estimate D2E/DX2                !
 ! D10   D(5,3,4,9)             60.2245         estimate D2E/DX2                !
 ! D11   D(1,3,5,10)             0.0            estimate D2E/DX2                !
 ! D12   D(1,3,5,11)           119.7227         estimate D2E/DX2                !
 ! D13   D(1,3,5,12)          -119.7227         estimate D2E/DX2                !
 ! D14   D(4,3,5,10)           180.0            estimate D2E/DX2                !
 ! D15   D(4,3,5,11)           -60.2773         estimate D2E/DX2                !
 ! D16   D(4,3,5,12)            60.2773         estimate D2E/DX2                !
 --------------------------------------------------------------------------------
 Trust Radius=3.00D-01 FncErr=1.00D-07 GrdErr=1.00D-06 EigMax=2.50D+02 EigMin=1.00D-04
 Number of steps in this run=     55 maximum allowed number of steps=    100.
 GradGradGradGradGradGradGradGradGradGradGradGradGradGradGradGradGradGrad

                          Input orientation:                          
 ---------------------------------------------------------------------
 Center     Atomic      Atomic             Coordinates (Angstroms)
 Number     Number       Type             X           Y           Z
 ---------------------------------------------------------------------
      1          6           0        0.694343   -0.826829    0.000000
      2          8           0        0.207729   -1.938776    0.000000
      3          7           0        0.000000    0.347621    0.000000
      4          6           0       -1.453556    0.334414    0.000000
      5          6           0        0.669875    1.632473    0.000000
      6          1           0        1.788050   -0.655268    0.000000
      7          1           0       -1.779686   -0.703952    0.000000
      8          1           0       -1.845743    0.839678    0.889307
      9          1           0       -1.845743    0.839678   -0.889307
     10          1           0        1.750781    1.481474    0.000000
     11          1           0        0.403271    2.217449   -0.887767
     12          1           0        0.403271    2.217449    0.887767
 ---------------------------------------------------------------------
                    Distance matrix (angstroms):
                    1          2          3          4          5
     1  C    0.000000
     2  O    1.213762   0.000000
     3  N    1.364348   2.295814   0.000000
     4  C    2.441712   2.815539   1.453616   0.000000
     5  C    2.459424   3.601027   1.448992   2.488758   0.000000
     6  H    1.107081   2.035880   2.050100   3.389319   2.546385
     7  H    2.477079   2.339788   2.067145   1.088377   3.385149
     8  H    3.165462   3.567551   2.107072   1.095431   2.783474
     9  H    3.165462   3.567551   2.107072   1.095431   2.783474
    10  H    2.538567   3.752215   2.085871   3.403457   1.091402
    11  H    3.184412   4.254477   2.108795   2.789580   1.096086
    12  H    3.184412   4.254477   2.108795   2.789580   1.096086
                    6          7          8          9         10
     6  H    0.000000
     7  H    3.568068   0.000000
     8  H    4.028670   1.782701   0.000000
     9  H    4.028670   1.782701   1.778614   0.000000
    10  H    2.137067   4.152142   3.760020   3.760020   0.000000
    11  H    3.310324   3.753400   3.180300   2.637484   1.773576
    12  H    3.310324   3.753400   2.637484   3.180300   1.773576
                   11         12
    11  H    0.000000
    12  H    1.775534   0.000000
 Stoichiometry    C3H7NO
 Framework group  CS[SG(C3H3NO),X(H4)]
 Deg. of freedom    19
 Full point group                 CS      NOp   2
 Largest Abelian subgroup         CS      NOp   2
 Largest concise Abelian subgroup CS      NOp   2
                         Standard orientation:                         
 ---------------------------------------------------------------------
 Center     Atomic      Atomic             Coordinates (Angstroms)
 Number     Number       Type             X           Y           Z
 ---------------------------------------------------------------------
      1          6           0        0.694343   -0.826829    0.000000
      2          8           0        0.207728   -1.938776    0.000000
      3          7           0        0.000000    0.347621    0.000000
      4          6           0       -1.453556    0.334415    0.000000
      5          6           0        0.669875    1.632473    0.000000
      6          1           0        1.788050   -0.655269    0.000000
      7          1           0       -1.779686   -0.703951    0.000000
      8          1           0       -1.845743    0.839679    0.889307
      9          1           0       -1.845743    0.839679   -0.889307
     10          1           0        1.750781    1.481473    0.000000
     11          1           0        0.403272    2.217449   -0.887767
     12          1           0        0.403272    2.217449    0.887767
 ---------------------------------------------------------------------
 Rotational constants (GHZ):           8.9053793           4.1834296           2.9521630
 General basis read from cards:  (5D, 7F)
 There are   183 symmetry adapted cartesian basis functions of A'  symmetry.
 There are    97 symmetry adapted cartesian basis functions of A"  symmetry.
 There are   158 symmetry adapted basis functions of A'  symmetry.
 There are    90 symmetry adapted basis functions of A"  symmetry.
   248 basis functions,   381 primitive gaussians,   280 cartesian basis functions
    20 alpha electrons       20 beta electrons
       nuclear repulsion energy       181.4342532013 Hartrees.
 NAtoms=   12 NActive=   12 NUniq=   10 SFac= 1.44D+00 NAtFMM=   60 NAOKFM=F Big=F
 Integral buffers will be    131072 words long.
 Raffenetti 2 integral format.
 Two-electron integral symmetry is turned on.
 One-electron integrals computed using PRISM.
 NBasis=   248 RedAO= T EigKep=  5.61D-04  NBF=   158    90
 NBsUse=   248 1.00D-06 EigRej= -1.00D+00 NBFU=   158    90
 ExpMin= 7.42D-02 ExpMax= 1.36D+04 ExpMxC= 4.64D+02 IAcc=3 IRadAn=         5 AccDes= 0.00D+00
 Harris functional with IExCor=  402 and IRadAn=       5 diagonalized for initial guess.
 HarFok:  IExCor=  402 AccDes= 0.00D+00 IRadAn=         5 IDoV= 1 UseB2=F ITyADJ=14
 ICtDFT=  3500011 ScaDFX=  1.000000  1.000000  1.000000  1.000000
 FoFCou: FMM=F IPFlag=           0 FMFlag=      100000 FMFlg1=           0
         NFxFlg=           0 DoJE=T BraDBF=F KetDBF=T FulRan=T
         wScrn=  0.000000 ICntrl=       500 IOpCl=  0 I1Cent=   200000004 NGrid=           0
         NMat0=    1 NMatS0=      1 NMatT0=    0 NMatD0=    1 NMtDS0=    0 NMtDT0=    0
 Petite list used in FoFCou.
 Initial guess orbital symmetries:
       Occupied  (A') (A') (A') (A') (A') (A') (A') (A') (A') (A')
                 (A') (A') (A") (A') (A") (A') (A') (A") (A') (A")
       Virtual   (A") (A') (A') (A') (A') (A") (A') (A') (A") (A')
                 (A') (A") (A') (A") (A') (A') (A') (A") (A') (A')
                 (A') (A") (A') (A') (A") (A') (A') (A') (A") (A')
                 (A') (A') (A") (A') (A') (A') (A') (A") (A') (A")
                 (A') (A") (A') (A') (A") (A') (A") (A") (A') (A")
                 (A') (A') (A") (A') (A") (A') (A") (A") (A') (A')
                 (A') (A') (A') (A') (A") (A") (A') (A") (A') (A")
                 (A') (A') (A') (A') (A") (A') (A") (A") (A') (A")
                 (A') (A') (A') (A') (A') (A') (A") (A') (A') (A")
                 (A") (A') (A') (A") (A') (A') (A') (A') (A') (A")
                 (A') (A") (A') (A") (A') (A') (A') (A') (A') (A')
                 (A") (A") (A") (A') (A") (A") (A") (A') (A') (A')
                 (A") (A') (A") (A') (A') (A") (A') (A') (A') (A")
                 (A") (A") (A') (A") (A") (A') (A") (A') (A') (A")
                 (A') (A") (A') (A') (A") (A') (A") (A') (A") (A')
                 (A') (A") (A') (A") (A') (A') (A") (A') (A") (A")
                 (A') (A") (A') (A") (A') (A") (A') (A') (A") (A')
                 (A") (A') (A') (A") (A') (A') (A') (A") (A') (A')
                 (A") (A') (A') (A") (A') (A') (A') (A") (A') (A")
                 (A') (A") (A') (A") (A') (A") (A') (A") (A') (A')
                 (A') (A") (A") (A') (A") (A') (A") (A') (A") (A')
                 (A") (A') (A') (A') (A") (A") (A") (A') (A') (A')
                 (A') (A") (A') (A') (A') (A') (A') (A')
 The electronic state of the initial guess is 1-A'.
 Requested convergence on RMS density matrix=1.00D-08 within 128 cycles.
 Requested convergence on MAX density matrix=1.00D-06.
 Requested convergence on             energy=1.00D-06.
 No special actions if energy rises.
 Integral accuracy reduced to 1.0D-05 until final iterations.
 Initial convergence to 1.0D-05 achieved.  Increase integral accuracy.
 SCF Done:  E(RB3LYP) =  -248.618603531     A.U. after   13 cycles
            NFock= 13  Conv=0.44D-08     -V/T= 2.0039

 **********************************************************************

            Population analysis using the SCF Density.

 **********************************************************************

 Orbital symmetries:
       Occupied  (A') (A') (A') (A') (A') (A') (A') (A') (A') (A')
                 (A') (A") (A') (A') (A") (A') (A') (A") (A') (A")
       Virtual   (A') (A") (A') (A') (A") (A') (A") (A') (A') (A')
                 (A") (A') (A') (A") (A') (A') (A") (A') (A') (A')
                 (A') (A") (A') (A') (A") (A') (A') (A") (A') (A')
                 (A') (A') (A") (A') (A') (A') (A') (A") (A') (A")
                 (A') (A") (A') (A') (A") (A') (A") (A") (A") (A')
                 (A') (A') (A") (A') (A") (A') (A") (A") (A') (A')
                 (A') (A') (A') (A') (A") (A") (A') (A") (A') (A")
                 (A') (A') (A') (A") (A') (A') (A") (A') (A") (A")
                 (A') (A') (A') (A') (A') (A') (A") (A') (A") (A')
                 (A") (A') (A') (A") (A') (A') (A') (A') (A') (A')
                 (A") (A") (A') (A") (A') (A') (A') (A') (A') (A")
                 (A') (A") (A") (A') (A") (A") (A") (A') (A') (A')
                 (A") (A') (A") (A') (A') (A") (A') (A') (A') (A")
                 (A") (A") (A") (A') (A") (A') (A') (A") (A') (A")
                 (A') (A") (A') (A') (A") (A") (A') (A") (A') (A')
                 (A') (A") (A') (A") (A') (A') (A") (A') (A") (A")
                 (A') (A') (A") (A") (A') (A") (A') (A") (A') (A')
                 (A") (A') (A') (A") (A') (A') (A') (A") (A') (A')
                 (A") (A') (A') (A") (A') (A') (A') (A") (A') (A")
                 (A') (A") (A") (A') (A') (A") (A') (A") (A') (A')
                 (A") (A') (A') (A") (A") (A') (A") (A') (A") (A")
                 (A') (A') (A') (A') (A") (A") (A") (A') (A') (A')
                 (A') (A") (A') (A') (A') (A') (A') (A')
 The electronic state is 1-A'.
 Alpha  occ. eigenvalues --  -19.09166 -14.35456 -10.26950 -10.22155 -10.20774
 Alpha  occ. eigenvalues --   -1.04038  -0.94718  -0.74077  -0.70936  -0.57701
 Alpha  occ. eigenvalues --   -0.52458  -0.48785  -0.47530  -0.42100  -0.41871
 Alpha  occ. eigenvalues --   -0.41268  -0.39563  -0.38637  -0.26578  -0.25558
 Alpha virt. eigenvalues --    0.00225   0.00748   0.03439   0.04669   0.06162
 Alpha virt. eigenvalues --    0.06768   0.09758   0.09841   0.10403   0.12370
 Alpha virt. eigenvalues --    0.13379   0.14106   0.17680   0.17687   0.22350
 Alpha virt. eigenvalues --    0.24553   0.25726   0.27219   0.28295   0.29386
 Alpha virt. eigenvalues --    0.30988   0.32625   0.32673   0.34311   0.34469
 Alpha virt. eigenvalues --    0.35501   0.37054   0.38882   0.39921   0.43326
 Alpha virt. eigenvalues --    0.45705   0.46444   0.48461   0.49786   0.54174
 Alpha virt. eigenvalues --    0.55386   0.60155   0.65765   0.69361   0.69815
 Alpha virt. eigenvalues --    0.75346   0.79990   0.82238   0.84134   0.90926
 Alpha virt. eigenvalues --    0.92327   0.92809   0.93621   0.97561   0.98318
 Alpha virt. eigenvalues --    1.01772   1.03693   1.03848   1.05185   1.06074
 Alpha virt. eigenvalues --    1.06750   1.08584   1.10775   1.12091   1.16049
 Alpha virt. eigenvalues --    1.17924   1.20992   1.21691   1.26531   1.28513
 Alpha virt. eigenvalues --    1.28880   1.31348   1.33589   1.35828   1.41051
 Alpha virt. eigenvalues --    1.43362   1.48205   1.49984   1.54667   1.55525
 Alpha virt. eigenvalues --    1.61328   1.63491   1.66265   1.67088   1.73103
 Alpha virt. eigenvalues --    1.73124   1.74871   1.76550   1.82256   1.86684
 Alpha virt. eigenvalues --    1.87845   1.89513   1.92033   2.00195   2.04353
 Alpha virt. eigenvalues --    2.09446   2.13384   2.15636   2.16760   2.19589
 Alpha virt. eigenvalues --    2.22701   2.26289   2.34043   2.39342   2.48117
 Alpha virt. eigenvalues --    2.49051   2.51270   2.53382   2.55965   2.60420
 Alpha virt. eigenvalues --    2.69334   2.85690   3.04720   3.07071   3.12463
 Alpha virt. eigenvalues --    3.12698   3.19701   3.20837   3.22431   3.25495
 Alpha virt. eigenvalues --    3.26887   3.30741   3.33988   3.38035   3.40185
 Alpha virt. eigenvalues --    3.40628   3.46250   3.47364   3.54324   3.57866
 Alpha virt. eigenvalues --    3.65149   3.65397   3.71028   3.71800   3.73421
 Alpha virt. eigenvalues --    3.74663   3.81589   3.82681   3.84259   3.86068
 Alpha virt. eigenvalues --    3.86521   3.88879   3.88950   3.94779   3.98545
 Alpha virt. eigenvalues --    3.99325   4.00099   4.06525   4.09475   4.12645
 Alpha virt. eigenvalues --    4.14269   4.14497   4.19076   4.19784   4.24986
 Alpha virt. eigenvalues --    4.27126   4.27127   4.28422   4.32734   4.37492
 Alpha virt. eigenvalues --    4.38324   4.39248   4.41424   4.42117   4.45987
 Alpha virt. eigenvalues --    4.46118   4.49445   4.51128   4.54508   4.57668
 Alpha virt. eigenvalues --    4.58869   4.60520   4.61723   4.64066   4.67014
 Alpha virt. eigenvalues --    4.67899   4.68853   4.72867   4.72872   4.73601
 Alpha virt. eigenvalues --    4.79206   4.83707   4.86759   4.90025   4.92243
 Alpha virt. eigenvalues --    4.96608   4.99974   5.06473   5.08027   5.17683
 Alpha virt. eigenvalues --    5.20250   5.26342   5.28531   5.29563   5.32779
 Alpha virt. eigenvalues --    5.36924   5.37884   5.53688   5.53775   5.58614
 Alpha virt. eigenvalues --    5.61987   5.62205   5.64598   5.68642   5.72872
 Alpha virt. eigenvalues --    5.77929   5.78631   5.81667   5.81744   5.82057
 Alpha virt. eigenvalues --    5.84324   5.84690   5.87685   5.91528   5.95378
 Alpha virt. eigenvalues --    5.96241   5.97341   6.00190   6.09621   6.11011
 Alpha virt. eigenvalues --    6.14361   6.16035   6.16535   6.20576   6.27087
 Alpha virt. eigenvalues --    6.37807   6.51415   6.53816   6.57974   6.67623
 Alpha virt. eigenvalues --    6.90218   7.12438   7.33749
          Condensed to atoms (all electrons):
               1          2          3          4          5          6
     1  C    4.312674   0.596937   0.384735  -0.046763  -0.048362   0.425098
     2  O    0.596937   8.035868  -0.122371  -0.018785   0.005802  -0.062114
     3  N    0.384735  -0.122371   6.817256   0.268559   0.316270  -0.115507
     4  C   -0.046763  -0.018785   0.268559   4.503965  -0.050833   0.006403
     5  C   -0.048362   0.005802   0.316270  -0.050833   4.453488  -0.014675
     6  H    0.425098  -0.062114  -0.115507   0.006403  -0.014675   0.763525
     7  H   -0.013347   0.027736  -0.035222   0.419190   0.008333   0.003891
     8  H    0.003009   0.000143  -0.043898   0.423863  -0.005529  -0.000492
     9  H    0.003009   0.000143  -0.043898   0.423863  -0.005529  -0.000492
    10  H   -0.009023   0.000320  -0.031488   0.009798   0.404325   0.017127
    11  H    0.000496  -0.000020  -0.051957  -0.002778   0.423777  -0.001170
    12  H    0.000496  -0.000020  -0.051957  -0.002778   0.423777  -0.001170
               7          8          9         10         11         12
     1  C   -0.013347   0.003009   0.003009  -0.009023   0.000496   0.000496
     2  O    0.027736   0.000143   0.000143   0.000320  -0.000020  -0.000020
     3  N   -0.035222  -0.043898  -0.043898  -0.031488  -0.051957  -0.051957
     4  C    0.419190   0.423863   0.423863   0.009798  -0.002778  -0.002778
     5  C    0.008333  -0.005529  -0.005529   0.404325   0.423777   0.423777
     6  H    0.003891  -0.000492  -0.000492   0.017127  -0.001170  -0.001170
     7  H    0.553164  -0.017883  -0.017883   0.000233  -0.000153  -0.000153
     8  H   -0.017883   0.653791  -0.047465  -0.000073  -0.004593   0.009188
     9  H   -0.017883  -0.047465   0.653791  -0.000073   0.009188  -0.004593
    10  H    0.000233  -0.000073  -0.000073   0.630287  -0.022601  -0.022601
    11  H   -0.000153  -0.004593   0.009188  -0.022601   0.670573  -0.056937
    12  H   -0.000153   0.009188  -0.004593  -0.022601  -0.056937   0.670573
 Mulliken charges:
               1
     1  C    0.391040
     2  O   -0.463638
     3  N   -0.290522
     4  C    0.066298
     5  C    0.089156
     6  H   -0.020425
     7  H    0.072096
     8  H    0.029940
     9  H    0.029940
    10  H    0.023768
    11  H    0.036174
    12  H    0.036174
 Sum of Mulliken charges =  -0.00000
 Mulliken charges with hydrogens summed into heavy atoms:
               1
     1  C    0.370615
     2  O   -0.463638
     3  N   -0.290522
     4  C    0.198274
     5  C    0.185271
 Electronic spatial extent (au):  <R**2>=            444.9308
 Charge=             -0.0000 electrons
 Dipole moment (field-independent basis, Debye):
    X=              0.1833    Y=              4.0967    Z=              0.0000  Tot=              4.1008
 Quadrupole moment (field-independent basis, Debye-Ang):
   XX=            -28.0186   YY=            -37.7334   ZZ=            -31.3510
   XY=              0.5879   XZ=              0.0000   YZ=              0.0000
 Traceless Quadrupole moment (field-independent basis, Debye-Ang):
   XX=              4.3491   YY=             -5.3657   ZZ=              1.0166
   XY=              0.5879   XZ=              0.0000   YZ=              0.0000
 Octapole moment (field-independent basis, Debye-Ang**2):
  XXX=              1.8380  YYY=             16.6431  ZZZ=             -0.0000  XYY=             -0.6554
  XXY=             -1.5373  XXZ=             -0.0000  XZZ=             -0.6257  YZZ=             -0.2971
  YYZ=              0.0000  XYZ=              0.0000
 Hexadecapole moment (field-independent basis, Debye-Ang**3):
 XXXX=           -194.0366 YYYY=           -374.7965 ZZZZ=            -45.8807 XXXY=              3.9331
 XXXZ=              0.0000 YYYX=             10.3807 YYYZ=             -0.0000 ZZZX=             -0.0000
 ZZZY=              0.0000 XXYY=            -89.0834 XXZZ=            -41.4842 YYZZ=            -62.0437
 XXYZ=              0.0000 YYXZ=              0.0000 ZZXY=             -0.4196
 N-N= 1.814342532013D+02 E-N=-9.433154497708D+02  KE= 2.476440159659D+02
 Symmetry A'   KE= 2.363839219862D+02
 Symmetry A"   KE= 1.126009397968D+01
 Calling FoFJK, ICntrl=      2127 FMM=F ISym2X=1 I1Cent= 0 IOpClX= 0 NMat=1 NMatS=1 NMatT=0.
 ***** Axes restored to original set *****
 -------------------------------------------------------------------
 Center     Atomic                   Forces (Hartrees/Bohr)
 Number     Number              X              Y              Z
 -------------------------------------------------------------------
      1        6           0.000359478    0.004920248   -0.000000000
      2        8           0.000457401    0.000133187   -0.000000000
      3        7           0.000059859   -0.002421376    0.000000000
      4        6           0.000397793   -0.000144790    0.000000000
      5        6           0.000606545    0.000098343    0.000000000
      6        1          -0.002035040   -0.000809394   -0.000000000
      7        1          -0.000166153    0.001817114   -0.000000000
      8        1           0.000767508   -0.000739455   -0.001542089
      9        1           0.000767508   -0.000739455    0.001542089
     10        1          -0.001757634    0.000279240    0.000000000
     11        1           0.000271368   -0.001196832    0.001514279
     12        1           0.000271368   -0.001196832   -0.001514279
 -------------------------------------------------------------------
 Cartesian Forces:  Max     0.004920248 RMS     0.001257286

 GradGradGradGradGradGradGradGradGradGradGradGradGradGradGradGradGradGrad
 Berny optimization.
 FormGI is forming the generalized inverse of G from B-inverse, IUseBI=4.
 Internal  Forces:  Max     0.004273287 RMS     0.001134760
 Search for a local minimum.
 Step number   1 out of a maximum of   55
 All quantities printed in internal units (Hartrees-Bohrs-Radians)
 Mixed Optimization -- RFO/linear search
 Second derivative matrix not updated -- first step.
 ITU=  0
     Eigenvalues ---    0.00983   0.01044   0.01314   0.02163   0.02163
     Eigenvalues ---    0.07378   0.07451   0.07556   0.07729   0.16000
     Eigenvalues ---    0.16000   0.16000   0.16000   0.16000   0.16000
     Eigenvalues ---    0.16000   0.22000   0.25000   0.25000   0.32911
     Eigenvalues ---    0.34119   0.34119   0.34192   0.34192   0.34651
     Eigenvalues ---    0.35001   0.37775   0.38377   0.52078   0.98201
 RFO step:  Lambda=-1.66014847D-04 EMin= 9.82543521D-03
 Linear search not attempted -- first point.
 Iteration  1 RMS(Cart)=  0.00701176 RMS(Int)=  0.00002186
 Iteration  2 RMS(Cart)=  0.00002543 RMS(Int)=  0.00000285
 Iteration  3 RMS(Cart)=  0.00000000 RMS(Int)=  0.00000285
 ClnCor:  largest displacement from symmetrization is 5.87D-12 for atom     1.
 Variable       Old X    -DE/DX   Delta X   Delta X   Delta X     New X
                                 (Linear)    (Quad)   (Total)
    R1        2.29368  -0.00031   0.00000  -0.00031  -0.00031   2.29337
    R2        2.57824  -0.00427   0.00000  -0.00820  -0.00820   2.57004
    R3        2.09208  -0.00214   0.00000  -0.00649  -0.00649   2.08559
    R4        2.74694  -0.00177   0.00000  -0.00468  -0.00468   2.74226
    R5        2.73820  -0.00207   0.00000  -0.00539  -0.00539   2.73281
    R6        2.05673  -0.00168   0.00000  -0.00481  -0.00481   2.05193
    R7        2.07006  -0.00187   0.00000  -0.00546  -0.00546   2.06460
    R8        2.07006  -0.00187   0.00000  -0.00546  -0.00546   2.06460
    R9        2.06245  -0.00178   0.00000  -0.00513  -0.00513   2.05732
   R10        2.07130  -0.00193   0.00000  -0.00566  -0.00566   2.06565
   R11        2.07130  -0.00193   0.00000  -0.00566  -0.00566   2.06565
    A1        2.19515   0.00022   0.00000   0.00101   0.00101   2.19616
    A2        2.13890  -0.00062   0.00000  -0.00367  -0.00367   2.13524
    A3        1.94913   0.00040   0.00000   0.00266   0.00266   1.95179
    A4        2.09564   0.00166   0.00000   0.00665   0.00665   2.10229
    A5        2.12707  -0.00103   0.00000  -0.00412  -0.00412   2.12295
    A6        2.06047  -0.00063   0.00000  -0.00254  -0.00254   2.05794
    A7        1.88421   0.00118   0.00000   0.00844   0.00844   1.89264
    A8        1.93244  -0.00034   0.00000  -0.00267  -0.00267   1.92977
    A9        1.93244  -0.00034   0.00000  -0.00267  -0.00267   1.92977
   A10        1.91004  -0.00026   0.00000  -0.00058  -0.00058   1.90946
   A11        1.91004  -0.00026   0.00000  -0.00058  -0.00058   1.90946
   A12        1.89457   0.00001   0.00000  -0.00192  -0.00193   1.89264
   A13        1.91259   0.00021   0.00000   0.00176   0.00177   1.91436
   A14        1.93991  -0.00034   0.00000  -0.00236  -0.00237   1.93755
   A15        1.93991  -0.00034   0.00000  -0.00236  -0.00237   1.93755
   A16        1.89097   0.00014   0.00000   0.00128   0.00128   1.89225
   A17        1.89097   0.00014   0.00000   0.00128   0.00128   1.89225
   A18        1.88811   0.00022   0.00000   0.00057   0.00056   1.88867
    D1        0.00000  -0.00000   0.00000  -0.00000   0.00000   0.00000
    D2        3.14159   0.00000   0.00000   0.00000   0.00000   3.14159
    D3        3.14159  -0.00000   0.00000  -0.00000   0.00000   3.14159
    D4        0.00000   0.00000   0.00000   0.00000   0.00000   0.00000
    D5        0.00000  -0.00000   0.00000  -0.00000   0.00000   0.00000
    D6        2.09048   0.00022   0.00000   0.00297   0.00296   2.09344
    D7       -2.09048  -0.00022   0.00000  -0.00297  -0.00296  -2.09344
    D8        3.14159  -0.00000   0.00000  -0.00000   0.00000   3.14159
    D9       -1.05112   0.00022   0.00000   0.00297   0.00296  -1.04815
   D10        1.05112  -0.00022   0.00000  -0.00297  -0.00296   1.04815
   D11        0.00000   0.00000   0.00000  -0.00000   0.00000   0.00000
   D12        2.08956   0.00009   0.00000   0.00124   0.00124   2.09080
   D13       -2.08956  -0.00009   0.00000  -0.00124  -0.00124  -2.09080
   D14        3.14159   0.00000   0.00000   0.00000   0.00000   3.14159
   D15       -1.05204   0.00009   0.00000   0.00124   0.00124  -1.05080
   D16        1.05204  -0.00009   0.00000  -0.00124  -0.00124   1.05080
         Item               Value     Threshold  Converged?
 Maximum Force            0.004273     0.000450     NO 
 RMS     Force            0.001135     0.000300     NO 
 Maximum Displacement     0.016180     0.001800     NO 
 RMS     Displacement     0.007008     0.001200     NO 
 Predicted change in Energy=-8.304507D-05
 GradGradGradGradGradGradGradGradGradGradGradGradGradGradGradGradGradGrad

                          Input orientation:                          
 ---------------------------------------------------------------------
 Center     Atomic      Atomic             Coordinates (Angstroms)
 Number     Number       Type             X           Y           Z
 ---------------------------------------------------------------------
      1          6           0        0.696549   -0.822670    0.000000
      2          8           0        0.215933   -1.937043    0.000000
      3          7           0       -0.000636    0.345042    0.000000
      4          6           0       -1.451742    0.335243    0.000000
      5          6           0        0.667662    1.627501    0.000000
      6          1           0        1.786580   -0.649827    0.000000
      7          1           0       -1.788248   -0.697131    0.000000
      8          1           0       -1.839008    0.843243    0.886346
      9          1           0       -1.839008    0.843243   -0.886346
     10          1           0        1.746172    1.479000    0.000000
     11          1           0        0.399169    2.209405   -0.885523
     12          1           0        0.399169    2.209405    0.885523
 ---------------------------------------------------------------------
                    Distance matrix (angstroms):
                    1          2          3          4          5
     1  C    0.000000
     2  O    1.213598   0.000000
     3  N    1.360007   2.292339   0.000000
     4  C    2.440475   2.818586   1.451140   0.000000
     5  C    2.450341   3.593054   1.446140   2.482298   0.000000
     6  H    1.103649   2.030728   2.045459   3.384833   2.537361
     7  H    2.487967   2.356719   2.069223   1.085833   3.381628
     8  H    3.160684   3.569087   2.100815   1.092542   2.772014
     9  H    3.160684   3.569087   2.100815   1.092542   2.772014
    10  H    2.529702   3.743125   2.082594   3.396297   1.088686
    11  H    3.172706   4.243909   2.102342   2.778940   1.093092
    12  H    3.172706   4.243909   2.102342   2.778940   1.093092
                    6          7          8          9         10
     6  H    0.000000
     7  H    3.575141   0.000000
     8  H    4.019919   1.777903   0.000000
     9  H    4.019919   1.777903   1.772692   0.000000
    10  H    2.129211   4.150623   3.747441   3.747441   0.000000
    11  H    3.299131   3.743915   3.164705   2.622182   1.769762
    12  H    3.299131   3.743915   2.622182   3.164705   1.769762
                   11         12
    11  H    0.000000
    12  H    1.771046   0.000000
 Stoichiometry    C3H7NO
 Framework group  CS[SG(C3H3NO),X(H4)]
 Deg. of freedom    19
 Full point group                 CS      NOp   2
 Largest Abelian subgroup         CS      NOp   2
 Largest concise Abelian subgroup CS      NOp   2
                         Standard orientation:                         
 ---------------------------------------------------------------------
 Center     Atomic      Atomic             Coordinates (Angstroms)
 Number     Number       Type             X           Y           Z
 ---------------------------------------------------------------------
      1          6           0        0.689720   -0.827006    0.000000
      2          8           0        0.202004   -1.938290    0.000000
      3          7           0        0.000000    0.345131    0.000000
      4          6           0       -1.451140    0.344590    0.000000
      5          6           0        0.676466    1.623300    0.000000
      6          1           0        1.780831   -0.661121    0.000000
      7          1           0       -1.794226   -0.685616    0.000000
      8          1           0       -1.835156    0.855051    0.886346
      9          1           0       -1.835156    0.855051   -0.886346
     10          1           0        1.754007    1.467921    0.000000
     11          1           0        0.411692    2.206905   -0.885523
     12          1           0        0.411692    2.206905    0.885523
 ---------------------------------------------------------------------
 Rotational constants (GHZ):           8.9260211           4.1991336           2.9616052
 Basis read from rwf:  (5D, 7F)
 There are   183 symmetry adapted cartesian basis functions of A'  symmetry.
 There are    97 symmetry adapted cartesian basis functions of A"  symmetry.
 There are   158 symmetry adapted basis functions of A'  symmetry.
 There are    90 symmetry adapted basis functions of A"  symmetry.
   248 basis functions,   381 primitive gaussians,   280 cartesian basis functions
    20 alpha electrons       20 beta electrons
       nuclear repulsion energy       181.7515161149 Hartrees.
 NAtoms=   12 NActive=   12 NUniq=   10 SFac= 1.44D+00 NAtFMM=   60 NAOKFM=F Big=F
 Integral buffers will be    131072 words long.
 Raffenetti 2 integral format.
 Two-electron integral symmetry is turned on.
 One-electron integrals computed using PRISM.
 NBasis=   248 RedAO= T EigKep=  5.49D-04  NBF=   158    90
 NBsUse=   248 1.00D-06 EigRej= -1.00D+00 NBFU=   158    90
 Initial guess from the checkpoint file:  "/wrk/irikura/Gau-1178.chk"
 B after Tr=    -0.000000   -0.000000    0.000000
         Rot=    0.999997    0.000000    0.000000    0.002541 Ang=   0.29 deg.
 Initial guess orbital symmetries:
       Occupied  (A') (A') (A') (A') (A') (A') (A') (A') (A') (A')
                 (A') (A") (A') (A') (A") (A') (A') (A") (A') (A")
       Virtual   (A') (A") (A') (A') (A") (A') (A") (A') (A') (A')
                 (A") (A') (A') (A") (A') (A') (A") (A') (A') (A')
                 (A') (A") (A') (A') (A") (A') (A') (A") (A') (A')
                 (A') (A') (A") (A') (A') (A') (A') (A") (A') (A")
                 (A') (A") (A') (A') (A") (A') (A") (A") (A") (A')
                 (A') (A') (A") (A') (A") (A') (A") (A") (A') (A')
                 (A') (A') (A') (A') (A") (A") (A') (A") (A') (A")
                 (A') (A') (A') (A") (A') (A') (A") (A') (A") (A")
                 (A') (A') (A') (A') (A') (A') (A") (A') (A") (A')
                 (A") (A') (A') (A") (A') (A') (A') (A') (A') (A')
                 (A") (A") (A') (A") (A') (A') (A') (A') (A') (A")
                 (A') (A") (A") (A') (A") (A") (A") (A') (A') (A')
                 (A") (A') (A") (A') (A') (A") (A') (A') (A') (A")
                 (A") (A") (A") (A') (A") (A') (A') (A") (A') (A")
                 (A') (A") (A') (A') (A") (A") (A') (A") (A') (A')
                 (A') (A") (A') (A") (A') (A') (A") (A') (A") (A")
                 (A') (A') (A") (A") (A') (A") (A') (A") (A') (A')
                 (A") (A') (A') (A") (A') (A') (A') (A") (A') (A')
                 (A") (A') (A') (A") (A') (A') (A') (A") (A') (A")
                 (A') (A") (A") (A') (A') (A") (A') (A") (A') (A')
                 (A") (A') (A') (A") (A") (A') (A") (A') (A") (A")
                 (A') (A') (A') (A') (A") (A") (A") (A') (A') (A')
                 (A') (A") (A') (A') (A') (A') (A') (A')
 Requested convergence on RMS density matrix=1.00D-08 within 128 cycles.
 Requested convergence on MAX density matrix=1.00D-06.
 Requested convergence on             energy=1.00D-06.
 No special actions if energy rises.
 SCF Done:  E(RB3LYP) =  -248.618690413     A.U. after    8 cycles
            NFock=  8  Conv=0.59D-08     -V/T= 2.0037
 Calling FoFJK, ICntrl=      2127 FMM=F ISym2X=1 I1Cent= 0 IOpClX= 0 NMat=1 NMatS=1 NMatT=0.
 ***** Axes restored to original set *****
 -------------------------------------------------------------------
 Center     Atomic                   Forces (Hartrees/Bohr)
 Number     Number              X              Y              Z
 -------------------------------------------------------------------
      1        6          -0.000015332    0.001937022   -0.000000000
      2        8          -0.000311509   -0.000984392   -0.000000000
      3        7           0.000062192   -0.001604656    0.000000000
      4        6           0.000506598    0.000214148    0.000000000
      5        6           0.000022541    0.000321089    0.000000000
      6        1          -0.000034778   -0.000227523   -0.000000000
      7        1           0.000004530    0.000063676    0.000000000
      8        1          -0.000088918    0.000010865    0.000031107
      9        1          -0.000088918    0.000010865   -0.000031107
     10        1          -0.000108363    0.000057084    0.000000000
     11        1           0.000025979    0.000100911    0.000016707
     12        1           0.000025979    0.000100911   -0.000016707
 -------------------------------------------------------------------
 Cartesian Forces:  Max     0.001937022 RMS     0.000468910

 GradGradGradGradGradGradGradGradGradGradGradGradGradGradGradGradGradGrad
 Berny optimization.
 Using GEDIIS/GDIIS optimizer.
 FormGI is forming the generalized inverse of G from B-inverse, IUseBI=4.
 Internal  Forces:  Max     0.001027051 RMS     0.000241245
 Search for a local minimum.
 Step number   2 out of a maximum of   55
 All quantities printed in internal units (Hartrees-Bohrs-Radians)
 Mixed Optimization -- En-DIIS/RFO-DIIS
 Update second derivatives using D2CorX and points    1    2
 DE= -8.69D-05 DEPred=-8.30D-05 R= 1.05D+00
 TightC=F SS=  1.41D+00  RLast= 2.39D-02 DXNew= 5.0454D-01 7.1727D-02
 Trust test= 1.05D+00 RLast= 2.39D-02 DXMaxT set to 3.00D-01
 ITU=  1  0
 Use linear search instead of GDIIS.
     Eigenvalues ---    0.00983   0.01044   0.01315   0.02163   0.02163
     Eigenvalues ---    0.07400   0.07507   0.07552   0.07681   0.15484
     Eigenvalues ---    0.16000   0.16000   0.16000   0.16000   0.16000
     Eigenvalues ---    0.16338   0.21994   0.23890   0.25444   0.32706
     Eigenvalues ---    0.34081   0.34119   0.34192   0.34244   0.34636
     Eigenvalues ---    0.34927   0.37351   0.40616   0.49132   0.99616
 RFO step:  Lambda=-6.04006122D-06 EMin= 9.82543521D-03
 Quartic linear search produced a step of  0.04477.
 Iteration  1 RMS(Cart)=  0.00112120 RMS(Int)=  0.00000065
 Iteration  2 RMS(Cart)=  0.00000102 RMS(Int)=  0.00000017
 Iteration  3 RMS(Cart)=  0.00000000 RMS(Int)=  0.00000017
 ClnCor:  largest displacement from symmetrization is 8.35D-12 for atom     9.
 Variable       Old X    -DE/DX   Delta X   Delta X   Delta X     New X
                                 (Linear)    (Quad)   (Total)
    R1        2.29337   0.00103  -0.00001   0.00110   0.00108   2.29445
    R2        2.57004  -0.00081  -0.00037  -0.00155  -0.00192   2.56812
    R3        2.08559  -0.00007  -0.00029  -0.00016  -0.00045   2.08514
    R4        2.74226  -0.00034  -0.00021  -0.00089  -0.00110   2.74116
    R5        2.73281   0.00050  -0.00024   0.00141   0.00116   2.73397
    R6        2.05193  -0.00006  -0.00022  -0.00014  -0.00036   2.05157
    R7        2.06460   0.00006  -0.00024   0.00024  -0.00001   2.06460
    R8        2.06460   0.00006  -0.00024   0.00024  -0.00001   2.06460
    R9        2.05732  -0.00012  -0.00023  -0.00030  -0.00053   2.05679
   R10        2.06565   0.00003  -0.00025   0.00015  -0.00010   2.06555
   R11        2.06565   0.00003  -0.00025   0.00015  -0.00010   2.06555
    A1        2.19616   0.00001   0.00005   0.00002   0.00007   2.19623
    A2        2.13524  -0.00023  -0.00016  -0.00147  -0.00164   2.13360
    A3        1.95179   0.00022   0.00012   0.00145   0.00157   1.95336
    A4        2.10229   0.00021   0.00030   0.00082   0.00112   2.10341
    A5        2.12295   0.00027  -0.00018   0.00116   0.00097   2.12393
    A6        2.05794  -0.00048  -0.00011  -0.00197  -0.00209   2.05585
    A7        1.89264  -0.00002   0.00038  -0.00026   0.00012   1.89276
    A8        1.92977   0.00009  -0.00012   0.00064   0.00052   1.93029
    A9        1.92977   0.00009  -0.00012   0.00064   0.00052   1.93029
   A10        1.90946  -0.00005  -0.00003  -0.00037  -0.00040   1.90906
   A11        1.90946  -0.00005  -0.00003  -0.00037  -0.00040   1.90906
   A12        1.89264  -0.00007  -0.00009  -0.00030  -0.00039   1.89225
   A13        1.91436   0.00002   0.00008   0.00016   0.00024   1.91460
   A14        1.93755   0.00010  -0.00011   0.00069   0.00058   1.93813
   A15        1.93755   0.00010  -0.00011   0.00069   0.00058   1.93813
   A16        1.89225  -0.00006   0.00006  -0.00038  -0.00033   1.89192
   A17        1.89225  -0.00006   0.00006  -0.00038  -0.00033   1.89192
   A18        1.88867  -0.00012   0.00003  -0.00083  -0.00080   1.88787
    D1        0.00000  -0.00000   0.00000  -0.00000   0.00000   0.00000
    D2        3.14159  -0.00000   0.00000  -0.00000   0.00000   3.14159
    D3        3.14159   0.00000   0.00000   0.00000   0.00000   3.14159
    D4        0.00000   0.00000   0.00000  -0.00000   0.00000   0.00000
    D5        0.00000   0.00000   0.00000  -0.00000   0.00000   0.00000
    D6        2.09344  -0.00001   0.00013  -0.00023  -0.00010   2.09334
    D7       -2.09344   0.00001  -0.00013   0.00023   0.00010  -2.09334
    D8        3.14159   0.00000   0.00000  -0.00000   0.00000   3.14159
    D9       -1.04815  -0.00001   0.00013  -0.00023  -0.00010  -1.04825
   D10        1.04815   0.00001  -0.00013   0.00023   0.00010   1.04825
   D11        0.00000   0.00000   0.00000   0.00000   0.00000   0.00000
   D12        2.09080   0.00001   0.00006   0.00006   0.00012   2.09091
   D13       -2.09080  -0.00001  -0.00006  -0.00006  -0.00012  -2.09091
   D14        3.14159  -0.00000   0.00000   0.00000   0.00000   3.14159
   D15       -1.05080   0.00001   0.00006   0.00006   0.00012  -1.05068
   D16        1.05080  -0.00001  -0.00006  -0.00006  -0.00012   1.05068
         Item               Value     Threshold  Converged?
 Maximum Force            0.001027     0.000450     NO 
 RMS     Force            0.000241     0.000300     YES
 Maximum Displacement     0.003564     0.001800     NO 
 RMS     Displacement     0.001122     0.001200     YES
 Predicted change in Energy=-3.184346D-06
 GradGradGradGradGradGradGradGradGradGradGradGradGradGradGradGradGradGrad

                          Input orientation:                          
 ---------------------------------------------------------------------
 Center     Atomic      Atomic             Coordinates (Angstroms)
 Number     Number       Type             X           Y           Z
 ---------------------------------------------------------------------
      1          6           0        0.696585   -0.822923    0.000000
      2          8           0        0.215936   -1.937905    0.000000
      3          7           0       -0.000202    0.343846    0.000000
      4          6           0       -1.450738    0.335517    0.000000
      5          6           0        0.667000    1.627570    0.000000
      6          1           0        1.786630   -0.651713    0.000000
      7          1           0       -1.788350   -0.696297    0.000000
      8          1           0       -1.838021    0.843715    0.886219
      9          1           0       -1.838021    0.843715   -0.886219
     10          1           0        1.745425    1.480529    0.000000
     11          1           0        0.398174    2.209678   -0.885222
     12          1           0        0.398174    2.209678    0.885222
 ---------------------------------------------------------------------
                    Distance matrix (angstroms):
                    1          2          3          4          5
     1  C    0.000000
     2  O    1.214170   0.000000
     3  N    1.358993   2.291965   0.000000
     4  C    2.439873   2.818909   1.450560   0.000000
     5  C    2.450671   3.593893   1.446756   2.480768   0.000000
     6  H    1.103408   2.030115   2.045459   3.384549   2.539429
     7  H    2.488159   2.357701   2.068664   1.085644   3.380695
     8  H    3.160268   3.569529   2.100675   1.092538   2.770368
     9  H    3.160268   3.569529   2.100675   1.092538   2.770368
    10  H    2.530998   3.745000   2.083089   3.395071   1.088404
    11  H    3.173221   4.244911   2.103248   2.777512   1.093040
    12  H    3.173221   4.244911   2.103248   2.777512   1.093040
                    6          7          8          9         10
     6  H    0.000000
     7  H    3.575258   0.000000
     8  H    4.019923   1.777495   0.000000
     9  H    4.019923   1.777495   1.772438   0.000000
    10  H    2.132639   4.150438   3.745932   3.745932   0.000000
    11  H    3.301361   3.742886   3.162978   2.620386   1.769284
    12  H    3.301361   3.742886   2.620386   3.162978   1.769284
                   11         12
    11  H    0.000000
    12  H    1.770445   0.000000
 Stoichiometry    C3H7NO
 Framework group  CS[SG(C3H3NO),X(H4)]
 Deg. of freedom    19
 Full point group                 CS      NOp   2
 Largest Abelian subgroup         CS      NOp   2
 Largest concise Abelian subgroup CS      NOp   2
                         Standard orientation:                         
 ---------------------------------------------------------------------
 Center     Atomic      Atomic             Coordinates (Angstroms)
 Number     Number       Type             X           Y           Z
 ---------------------------------------------------------------------
      1          6           0        0.690401   -0.826307    0.000000
      2          8           0        0.203667   -1.938646    0.000000
      3          7           0        0.000000    0.344252    0.000000
      4          6           0       -1.450560    0.343849    0.000000
      5          6           0        0.674206    1.624311    0.000000
      6          1           0        1.781365   -0.661056    0.000000
      7          1           0       -1.793805   -0.686105    0.000000
      8          1           0       -1.835061    0.854156    0.886219
      9          1           0       -1.835061    0.854156   -0.886219
     10          1           0        1.751812    1.471379    0.000000
     11          1           0        0.408565    2.207879   -0.885222
     12          1           0        0.408565    2.207879    0.885222
 ---------------------------------------------------------------------
 Rotational constants (GHZ):           8.9355996           4.1971006           2.9615938
 Basis read from rwf:  (5D, 7F)
 There are   183 symmetry adapted cartesian basis functions of A'  symmetry.
 There are    97 symmetry adapted cartesian basis functions of A"  symmetry.
 There are   158 symmetry adapted basis functions of A'  symmetry.
 There are    90 symmetry adapted basis functions of A"  symmetry.
   248 basis functions,   381 primitive gaussians,   280 cartesian basis functions
    20 alpha electrons       20 beta electrons
       nuclear repulsion energy       181.7598616879 Hartrees.
 NAtoms=   12 NActive=   12 NUniq=   10 SFac= 1.44D+00 NAtFMM=   60 NAOKFM=F Big=F
 Integral buffers will be    131072 words long.
 Raffenetti 2 integral format.
 Two-electron integral symmetry is turned on.
 One-electron integrals computed using PRISM.
 NBasis=   248 RedAO= T EigKep=  5.49D-04  NBF=   158    90
 NBsUse=   248 1.00D-06 EigRej= -1.00D+00 NBFU=   158    90
 Initial guess from the checkpoint file:  "/wrk/irikura/Gau-1178.chk"
 B after Tr=     0.000000    0.000000    0.000000
         Rot=    1.000000   -0.000000    0.000000   -0.000454 Ang=  -0.05 deg.
 Initial guess orbital symmetries:
       Occupied  (A') (A') (A') (A') (A') (A') (A') (A') (A') (A')
                 (A') (A") (A') (A') (A") (A') (A') (A") (A') (A")
       Virtual   (A') (A") (A') (A') (A") (A') (A") (A') (A') (A')
                 (A") (A') (A") (A') (A') (A') (A") (A') (A') (A')
                 (A') (A") (A') (A') (A") (A') (A') (A") (A') (A')
                 (A') (A') (A") (A') (A') (A') (A') (A") (A') (A")
                 (A') (A") (A') (A') (A") (A') (A") (A") (A") (A')
                 (A') (A') (A") (A') (A") (A') (A") (A") (A') (A')
                 (A') (A') (A') (A') (A") (A") (A') (A") (A') (A")
                 (A') (A') (A') (A") (A') (A') (A") (A') (A") (A')
                 (A") (A') (A') (A') (A') (A') (A") (A') (A") (A')
                 (A") (A') (A') (A") (A') (A') (A') (A') (A') (A')
                 (A") (A") (A') (A") (A') (A') (A') (A') (A') (A')
                 (A") (A") (A") (A') (A") (A") (A") (A') (A') (A')
                 (A") (A') (A") (A') (A') (A") (A') (A') (A') (A")
                 (A") (A") (A") (A') (A") (A') (A") (A') (A') (A")
                 (A') (A") (A') (A') (A") (A") (A') (A") (A') (A')
                 (A") (A') (A') (A") (A') (A') (A") (A') (A") (A")
                 (A') (A') (A") (A") (A') (A") (A') (A") (A') (A')
                 (A") (A') (A") (A') (A') (A') (A') (A") (A') (A')
                 (A") (A') (A') (A") (A') (A') (A') (A") (A') (A")
                 (A') (A") (A") (A') (A') (A") (A') (A") (A') (A')
                 (A") (A') (A') (A") (A") (A') (A") (A') (A") (A")
                 (A') (A') (A') (A') (A") (A") (A") (A') (A') (A')
                 (A') (A") (A') (A') (A') (A') (A') (A')
 Requested convergence on RMS density matrix=1.00D-08 within 128 cycles.
 Requested convergence on MAX density matrix=1.00D-06.
 Requested convergence on             energy=1.00D-06.
 No special actions if energy rises.
 SCF Done:  E(RB3LYP) =  -248.618694176     A.U. after    7 cycles
            NFock=  7  Conv=0.73D-08     -V/T= 2.0037
 Calling FoFJK, ICntrl=      2127 FMM=F ISym2X=1 I1Cent= 0 IOpClX= 0 NMat=1 NMatS=1 NMatT=0.
 ***** Axes restored to original set *****
 -------------------------------------------------------------------
 Center     Atomic                   Forces (Hartrees/Bohr)
 Number     Number              X              Y              Z
 -------------------------------------------------------------------
      1        6           0.000046994    0.000629363   -0.000000000
      2        8          -0.000170054   -0.000380877   -0.000000000
      3        7           0.000047060   -0.000356860   -0.000000000
      4        6           0.000105467    0.000063911   -0.000000000
      5        6           0.000052657    0.000113036   -0.000000000
      6        1           0.000051411   -0.000030952    0.000000000
      7        1          -0.000049906   -0.000074910    0.000000000
      8        1          -0.000036706    0.000028318    0.000057844
      9        1          -0.000036706    0.000028318   -0.000057844
     10        1           0.000072224   -0.000015564   -0.000000000
     11        1          -0.000041221   -0.000001892   -0.000053551
     12        1          -0.000041221   -0.000001892    0.000053551
 -------------------------------------------------------------------
 Cartesian Forces:  Max     0.000629363 RMS     0.000146241

 GradGradGradGradGradGradGradGradGradGradGradGradGradGradGradGradGradGrad
 Berny optimization.
 Using GEDIIS/GDIIS optimizer.
 FormGI is forming the generalized inverse of G from B-inverse, IUseBI=4.
 Internal  Forces:  Max     0.000416843 RMS     0.000080626
 Search for a local minimum.
 Step number   3 out of a maximum of   55
 All quantities printed in internal units (Hartrees-Bohrs-Radians)
 Mixed Optimization -- En-DIIS/RFO-DIIS
 Swapping is turned off.
 Update second derivatives using D2CorX and points    1    2    3
 DE= -3.76D-06 DEPred=-3.18D-06 R= 1.18D+00
 TightC=F SS=  1.41D+00  RLast= 4.74D-03 DXNew= 5.0454D-01 1.4210D-02
 Trust test= 1.18D+00 RLast= 4.74D-03 DXMaxT set to 3.00D-01
 ITU=  1  1  0
     Eigenvalues ---    0.00983   0.01044   0.01315   0.02163   0.02163
     Eigenvalues ---    0.07352   0.07501   0.07548   0.07678   0.14274
     Eigenvalues ---    0.16000   0.16000   0.16000   0.16000   0.16047
     Eigenvalues ---    0.17200   0.21914   0.22929   0.25672   0.32938
     Eigenvalues ---    0.34114   0.34119   0.34192   0.34619   0.34834
     Eigenvalues ---    0.36239   0.37520   0.39362   0.45491   0.92482
 En-DIIS/RFO-DIIS/Sim-DIIS IScMMF=       -3 using points:     3    2
 RFO step:  Lambda=-7.40529238D-07.
 DidBck=F Rises=F RFO-DIIS coefs:    1.23570   -0.23570
 Iteration  1 RMS(Cart)=  0.00042577 RMS(Int)=  0.00000014
 Iteration  2 RMS(Cart)=  0.00000016 RMS(Int)=  0.00000004
 ClnCor:  largest displacement from symmetrization is 5.62D-11 for atom     9.
 Variable       Old X    -DE/DX   Delta X   Delta X   Delta X     New X
                                 (Linear)    (Quad)   (Total)
    R1        2.29445   0.00042   0.00025   0.00034   0.00059   2.29504
    R2        2.56812  -0.00022  -0.00045  -0.00030  -0.00075   2.56737
    R3        2.08514   0.00005  -0.00011   0.00018   0.00007   2.08521
    R4        2.74116   0.00002  -0.00026   0.00018  -0.00007   2.74109
    R5        2.73397   0.00010   0.00027   0.00008   0.00035   2.73433
    R6        2.05157   0.00009  -0.00008   0.00031   0.00022   2.05179
    R7        2.06460   0.00007  -0.00000   0.00020   0.00020   2.06480
    R8        2.06460   0.00007  -0.00000   0.00020   0.00020   2.06480
    R9        2.05679   0.00007  -0.00013   0.00029   0.00016   2.05695
   R10        2.06555   0.00005  -0.00002   0.00014   0.00012   2.06567
   R11        2.06555   0.00005  -0.00002   0.00014   0.00012   2.06567
    A1        2.19623  -0.00003   0.00002  -0.00019  -0.00017   2.19605
    A2        2.13360  -0.00002  -0.00039   0.00002  -0.00037   2.13323
    A3        1.95336   0.00006   0.00037   0.00017   0.00054   1.95390
    A4        2.10341   0.00006   0.00026   0.00018   0.00045   2.10386
    A5        2.12393   0.00002   0.00023  -0.00010   0.00012   2.12405
    A6        2.05585  -0.00008  -0.00049  -0.00008  -0.00057   2.05528
    A7        1.89276   0.00003   0.00003   0.00029   0.00032   1.89308
    A8        1.93029   0.00001   0.00012  -0.00004   0.00008   1.93038
    A9        1.93029   0.00001   0.00012  -0.00004   0.00008   1.93038
   A10        1.90906  -0.00002  -0.00009  -0.00009  -0.00019   1.90888
   A11        1.90906  -0.00002  -0.00009  -0.00009  -0.00019   1.90888
   A12        1.89225  -0.00001  -0.00009  -0.00003  -0.00012   1.89213
   A13        1.91460   0.00002   0.00006   0.00016   0.00022   1.91482
   A14        1.93813  -0.00005   0.00014  -0.00055  -0.00042   1.93771
   A15        1.93813  -0.00005   0.00014  -0.00055  -0.00042   1.93771
   A16        1.89192   0.00003  -0.00008   0.00032   0.00025   1.89217
   A17        1.89192   0.00003  -0.00008   0.00032   0.00025   1.89217
   A18        1.88787   0.00004  -0.00019   0.00034   0.00015   1.88802
    D1        0.00000   0.00000   0.00000   0.00000   0.00000   0.00000
    D2        3.14159   0.00000   0.00000   0.00000   0.00000   3.14159
    D3        3.14159   0.00000   0.00000   0.00000   0.00000   3.14159
    D4        0.00000   0.00000   0.00000   0.00000   0.00000   0.00000
    D5        0.00000  -0.00000   0.00000  -0.00000   0.00000   0.00000
    D6        2.09334  -0.00000  -0.00002   0.00004   0.00002   2.09336
    D7       -2.09334   0.00000   0.00002  -0.00004  -0.00002  -2.09336
    D8        3.14159  -0.00000   0.00000  -0.00000   0.00000   3.14159
    D9       -1.04825  -0.00000  -0.00002   0.00004   0.00002  -1.04823
   D10        1.04825   0.00000   0.00002  -0.00004  -0.00002   1.04823
   D11        0.00000  -0.00000   0.00000  -0.00000   0.00000   0.00000
   D12        2.09091   0.00001   0.00003   0.00016   0.00019   2.09110
   D13       -2.09091  -0.00001  -0.00003  -0.00016  -0.00019  -2.09110
   D14        3.14159  -0.00000   0.00000  -0.00000   0.00000   3.14159
   D15       -1.05068   0.00001   0.00003   0.00016   0.00019  -1.05049
   D16        1.05068  -0.00001  -0.00003  -0.00016  -0.00019   1.05049
         Item               Value     Threshold  Converged?
 Maximum Force            0.000417     0.000450     YES
 RMS     Force            0.000081     0.000300     YES
 Maximum Displacement     0.001113     0.001800     YES
 RMS     Displacement     0.000426     0.001200     YES
 Predicted change in Energy=-3.702594D-07
 Optimization completed.
    -- Stationary point found.
                           ----------------------------
                           !   Optimized Parameters   !
                           ! (Angstroms and Degrees)  !
 --------------------------                            --------------------------
 ! Name  Definition              Value          Derivative Info.                !
 --------------------------------------------------------------------------------
 ! R1    R(1,2)                  1.2142         -DE/DX =    0.0004              !
 ! R2    R(1,3)                  1.359          -DE/DX =   -0.0002              !
 ! R3    R(1,6)                  1.1034         -DE/DX =    0.0                 !
 ! R4    R(3,4)                  1.4506         -DE/DX =    0.0                 !
 ! R5    R(3,5)                  1.4468         -DE/DX =    0.0001              !
 ! R6    R(4,7)                  1.0856         -DE/DX =    0.0001              !
 ! R7    R(4,8)                  1.0925         -DE/DX =    0.0001              !
 ! R8    R(4,9)                  1.0925         -DE/DX =    0.0001              !
 ! R9    R(5,10)                 1.0884         -DE/DX =    0.0001              !
 ! R10   R(5,11)                 1.093          -DE/DX =    0.0001              !
 ! R11   R(5,12)                 1.093          -DE/DX =    0.0001              !
 ! A1    A(2,1,3)              125.8346         -DE/DX =    0.0                 !
 ! A2    A(2,1,6)              122.2463         -DE/DX =    0.0                 !
 ! A3    A(3,1,6)              111.919          -DE/DX =    0.0001              !
 ! A4    A(1,3,4)              120.5164         -DE/DX =    0.0001              !
 ! A5    A(1,3,5)              121.6919         -DE/DX =    0.0                 !
 ! A6    A(4,3,5)              117.7916         -DE/DX =   -0.0001              !
 ! A7    A(3,4,7)              108.4472         -DE/DX =    0.0                 !
 ! A8    A(3,4,8)              110.5977         -DE/DX =    0.0                 !
 ! A9    A(3,4,9)              110.5977         -DE/DX =    0.0                 !
 ! A10   A(7,4,8)              109.3813         -DE/DX =    0.0                 !
 ! A11   A(7,4,9)              109.3813         -DE/DX =    0.0                 !
 ! A12   A(8,4,9)              108.4182         -DE/DX =    0.0                 !
 ! A13   A(3,5,10)             109.6984         -DE/DX =    0.0                 !
 ! A14   A(3,5,11)             111.0464         -DE/DX =   -0.0001              !
 ! A15   A(3,5,12)             111.0464         -DE/DX =   -0.0001              !
 ! A16   A(10,5,11)            108.3992         -DE/DX =    0.0                 !
 ! A17   A(10,5,12)            108.3992         -DE/DX =    0.0                 !
 ! A18   A(11,5,12)            108.1669         -DE/DX =    0.0                 !
 ! D1    D(2,1,3,4)              0.0            -DE/DX =    0.0                 !
 ! D2    D(2,1,3,5)            180.0            -DE/DX =    0.0                 !
 ! D3    D(6,1,3,4)            180.0            -DE/DX =    0.0                 !
 ! D4    D(6,1,3,5)              0.0            -DE/DX =    0.0                 !
 ! D5    D(1,3,4,7)              0.0            -DE/DX =    0.0                 !
 ! D6    D(1,3,4,8)            119.9396         -DE/DX =    0.0                 !
 ! D7    D(1,3,4,9)           -119.9396         -DE/DX =    0.0                 !
 ! D8    D(5,3,4,7)            180.0            -DE/DX =    0.0                 !
 ! D9    D(5,3,4,8)            -60.0604         -DE/DX =    0.0                 !
 ! D10   D(5,3,4,9)             60.0604         -DE/DX =    0.0                 !
 ! D11   D(1,3,5,10)             0.0            -DE/DX =    0.0                 !
 ! D12   D(1,3,5,11)           119.8006         -DE/DX =    0.0                 !
 ! D13   D(1,3,5,12)          -119.8006         -DE/DX =    0.0                 !
 ! D14   D(4,3,5,10)           180.0            -DE/DX =    0.0                 !
 ! D15   D(4,3,5,11)           -60.1994         -DE/DX =    0.0                 !
 ! D16   D(4,3,5,12)            60.1994         -DE/DX =    0.0                 !
 --------------------------------------------------------------------------------
 GradGradGradGradGradGradGradGradGradGradGradGradGradGradGradGradGradGrad

                          Input orientation:                          
 ---------------------------------------------------------------------
 Center     Atomic      Atomic             Coordinates (Angstroms)
 Number     Number       Type             X           Y           Z
[...]
    R7        2.06460   0.00007   0.00000   0.00021   0.00021   2.06481
    R8        2.06460   0.00007   0.00000   0.00021   0.00021   2.06481
    R9        2.05679   0.00007   0.00000   0.00017   0.00017   2.05696
   R10        2.06555   0.00005   0.00000   0.00011   0.00011   2.06566
   R11        2.06555   0.00005   0.00000   0.00011   0.00011   2.06566
    A1        2.19623  -0.00003   0.00000  -0.00012  -0.00012   2.19611
    A2        2.13360  -0.00002   0.00000  -0.00039  -0.00039   2.13321
    A3        1.95336   0.00006   0.00000   0.00051   0.00051   1.95387
    A4        2.10341   0.00006   0.00000   0.00039   0.00039   2.10380
    A5        2.12393   0.00002   0.00000   0.00018   0.00018   2.12410
    A6        2.05585  -0.00008   0.00000  -0.00057  -0.00057   2.05529
    A7        1.89276   0.00003   0.00000   0.00021   0.00021   1.89297
    A8        1.93029   0.00001   0.00000   0.00003   0.00003   1.93033
    A9        1.93029   0.00001   0.00000   0.00003   0.00003   1.93033
   A10        1.90906  -0.00002   0.00000  -0.00012  -0.00012   1.90894
   A11        1.90906  -0.00002   0.00000  -0.00012  -0.00012   1.90894
   A12        1.89225  -0.00001   0.00000  -0.00004  -0.00004   1.89221
   A13        1.91460   0.00002   0.00000   0.00008   0.00008   1.91467
   A14        1.93813  -0.00005   0.00000  -0.00047  -0.00047   1.93766
   A15        1.93813  -0.00005   0.00000  -0.00047  -0.00047   1.93766
   A16        1.89192   0.00003   0.00000   0.00032   0.00032   1.89224
   A17        1.89192   0.00003   0.00000   0.00032   0.00032   1.89224
   A18        1.88787   0.00004   0.00000   0.00025   0.00025   1.88812
    D1        0.00000   0.00000   0.00000   0.00000   0.00000   0.00000
    D2        3.14159   0.00000   0.00000  -0.00000   0.00000   3.14159
    D3        3.14159  -0.00000   0.00000   0.00000   0.00000   3.14159
    D4        0.00000  -0.00000   0.00000  -0.00000   0.00000   0.00000
    D5        0.00000   0.00000   0.00000  -0.00000   0.00000   0.00000
    D6        2.09334  -0.00000   0.00000   0.00000   0.00000   2.09334
    D7       -2.09334   0.00000   0.00000  -0.00000  -0.00000  -2.09334
    D8        3.14159  -0.00000   0.00000  -0.00000   0.00000   3.14159
    D9       -1.04825  -0.00000   0.00000   0.00000   0.00000  -1.04825
   D10        1.04825   0.00000   0.00000  -0.00000  -0.00000   1.04825
   D11        0.00000   0.00000   0.00000  -0.00000   0.00000   0.00000
   D12        2.09091   0.00001   0.00000   0.00015   0.00015   2.09107
   D13       -2.09091  -0.00001   0.00000  -0.00015  -0.00015  -2.09107
   D14        3.14159   0.00000   0.00000  -0.00000   0.00000   3.14159
   D15       -1.05068   0.00001   0.00000   0.00015   0.00015  -1.05053
   D16        1.05068  -0.00001   0.00000  -0.00015  -0.00015   1.05053
         Item               Value     Threshold  Converged?
 Maximum Force            0.000417     0.000450     YES
 RMS     Force            0.000081     0.000300     YES
 Maximum Displacement     0.001100     0.001800     YES
 RMS     Displacement     0.000407     0.001200     YES
 Predicted change in Energy=-3.893947D-07
 Optimization completed.
    -- Stationary point found.
                           ----------------------------
                           !   Optimized Parameters   !
                           ! (Angstroms and Degrees)  !
 --------------------------                            --------------------------
 ! Name  Definition              Value          Derivative Info.                !
 --------------------------------------------------------------------------------
 ! R1    R(1,2)                  1.2142         -DE/DX =    0.0004              !
 ! R2    R(1,3)                  1.359          -DE/DX =   -0.0002              !
 ! R3    R(1,6)                  1.1034         -DE/DX =    0.0                 !
 ! R4    R(3,4)                  1.4506         -DE/DX =    0.0                 !
 ! R5    R(3,5)                  1.4468         -DE/DX =    0.0001              !
 ! R6    R(4,7)                  1.0856         -DE/DX =    0.0001              !
 ! R7    R(4,8)                  1.0925         -DE/DX =    0.0001              !
 ! R8    R(4,9)                  1.0925         -DE/DX =    0.0001              !
 ! R9    R(5,10)                 1.0884         -DE/DX =    0.0001              !
 ! R10   R(5,11)                 1.093          -DE/DX =    0.0001              !
 ! R11   R(5,12)                 1.093          -DE/DX =    0.0001              !
 ! A1    A(2,1,3)              125.8346         -DE/DX =    0.0                 !
 ! A2    A(2,1,6)              122.2463         -DE/DX =    0.0                 !
 ! A3    A(3,1,6)              111.919          -DE/DX =    0.0001              !
 ! A4    A(1,3,4)              120.5164         -DE/DX =    0.0001              !
 ! A5    A(1,3,5)              121.6919         -DE/DX =    0.0                 !
 ! A6    A(4,3,5)              117.7916         -DE/DX =   -0.0001              !
 ! A7    A(3,4,7)              108.4472         -DE/DX =    0.0                 !
 ! A8    A(3,4,8)              110.5977         -DE/DX =    0.0                 !
 ! A9    A(3,4,9)              110.5977         -DE/DX =    0.0                 !
 ! A10   A(7,4,8)              109.3813         -DE/DX =    0.0                 !
 ! A11   A(7,4,9)              109.3813         -DE/DX =    0.0                 !
 ! A12   A(8,4,9)              108.4182         -DE/DX =    0.0                 !
 ! A13   A(3,5,10)             109.6984         -DE/DX =    0.0                 !
 ! A14   A(3,5,11)             111.0464         -DE/DX =   -0.0001              !
 ! A15   A(3,5,12)             111.0464         -DE/DX =   -0.0001              !
 ! A16   A(10,5,11)            108.3992         -DE/DX =    0.0                 !
 ! A17   A(10,5,12)            108.3992         -DE/DX =    0.0                 !
 ! A18   A(11,5,12)            108.1669         -DE/DX =    0.0                 !
 ! D1    D(2,1,3,4)              0.0            -DE/DX =    0.0                 !
 ! D2    D(2,1,3,5)            180.0            -DE/DX =    0.0                 !
 ! D3    D(6,1,3,4)            180.0            -DE/DX =    0.0                 !
 ! D4    D(6,1,3,5)              0.0            -DE/DX =    0.0                 !
 ! D5    D(1,3,4,7)              0.0            -DE/DX =    0.0                 !
 ! D6    D(1,3,4,8)            119.9396         -DE/DX =    0.0                 !
 ! D7    D(1,3,4,9)           -119.9396         -DE/DX =    0.0                 !
 ! D8    D(5,3,4,7)            180.0            -DE/DX =    0.0                 !
 ! D9    D(5,3,4,8)            -60.0604         -DE/DX =    0.0                 !
 ! D10   D(5,3,4,9)             60.0604         -DE/DX =    0.0                 !
 ! D11   D(1,3,5,10)             0.0            -DE/DX =    0.0                 !
 ! D12   D(1,3,5,11)           119.8006         -DE/DX =    0.0                 !
 ! D13   D(1,3,5,12)          -119.8006         -DE/DX =    0.0                 !
 ! D14   D(4,3,5,10)           180.0            -DE/DX =    0.0                 !
 ! D15   D(4,3,5,11)           -60.1994         -DE/DX =    0.0                 !
 ! D16   D(4,3,5,12)            60.1994         -DE/DX =    0.0                 !
 --------------------------------------------------------------------------------
 GradGradGradGradGradGradGradGradGradGradGradGradGradGradGradGradGradGrad


 ----------------------------------------------------------------------

 Electric dipole moment (input orientation):
 (Debye = 10**-18 statcoulomb cm , SI units = C m)
                  (au)            (Debye)         (10**-30 SI)
   Tot        0.162825D+01      0.413859D+01      0.138049D+02
   x          0.620004D-01      0.157589D+00      0.525661D+00
   y          0.162707D+01      0.413559D+01      0.137949D+02
   z          0.000000D+00      0.000000D+00      0.000000D+00

 Dipole polarizability, Alpha (input orientation).
 (esu units = cm**3 , SI units = C**2 m**2 J**-1)
 Alpha(0;0):
               (au)            (10**-24 esu)      (10**-40 SI)
   iso        0.500105D+02      0.741078D+01      0.824561D+01
   aniso      0.209196D+02      0.309996D+01      0.344917D+01
   xx         0.514908D+02      0.763015D+01      0.848968D+01
   yx        -0.132788D+01     -0.196771D+00     -0.218938D+00
   yy         0.612063D+02      0.906984D+01      0.100916D+02
   zx         0.000000D+00      0.000000D+00      0.000000D+00
   zy         0.000000D+00      0.000000D+00      0.000000D+00
   zz         0.373342D+02      0.553236D+01      0.615558D+01

 ----------------------------------------------------------------------

 Dipole orientation:
     6          1.37361859         -0.05234255         -1.50384628
     8          0.54681336         -0.02083665         -3.64391550
     7         -0.02510488          0.00095664          0.64928921
     6         -2.76164707          0.10523420          0.52918534
     6          1.14158908         -0.04350093          3.12142548
     1          3.41820672         -0.13025280         -1.10210487
     1         -3.32452427          0.12668297         -1.44354049
     1         -3.59275747         -1.53902274          1.46097633
     1         -3.46521828          1.80797110          1.46097633
     1          3.18713653         -0.12144773          2.92135988
     1          0.65616005          1.64903866          4.20130905
     1          0.52876430         -1.69419091          4.20130905

 Electric dipole moment (dipole orientation):
 (Debye = 10**-18 statcoulomb cm , SI units = C m)
                  (au)            (Debye)         (10**-30 SI)
   Tot        0.162825D+01      0.413859D+01      0.138049D+02
   x          0.000000D+00      0.000000D+00      0.000000D+00
   y          0.000000D+00      0.000000D+00      0.000000D+00
   z          0.162825D+01      0.413859D+01      0.138049D+02

 Dipole polarizability, Alpha (dipole orientation).
 (esu units = cm**3 , SI units = C**2 m**2 J**-1)
 Alpha(0;0):
               (au)            (10**-24 esu)      (10**-40 SI)
   iso        0.500105D+02      0.741078D+01      0.824561D+01
   aniso      0.209196D+02      0.309996D+01      0.344917D+01
   xx         0.515852D+02      0.764414D+01      0.850525D+01
   yx        -0.543042D+00     -0.804705D-01     -0.895355D-01
   yy         0.373549D+02      0.553543D+01      0.615900D+01
   zx        -0.169248D+01     -0.250800D+00     -0.279052D+00
   zy         0.644930D-01      0.955688D-02      0.106335D-01
   zz         0.610912D+02      0.905278D+01      0.100726D+02

 ----------------------------------------------------------------------
 1\1\GINC-GAMBA\Freq\RB3LYP\Gen\C3H7N1O1\IRIKURA\27-Feb-2022\0\\#N Geom
 =AllCheck Guess=TCheck SCRF=Check GenChk RB3LYP/ChkBas Freq\\dimethylf
 ormamide, B3LYP/pcseg-2\\0,1\C,0.6965851685,-0.8229225284,0.\O,0.21593
 63137,-1.9379048787,0.\N,-0.000201759,0.343846103,0.\C,-1.4507376185,0
 .3355172733,0.\C,0.6669996084,1.6275696036,0.\H,1.7866296994,-0.651712
 6348,0.\H,-1.7883498031,-0.6962969966,0.\H,-1.8380213049,0.8437153666,
 0.8862191454\H,-1.8380213049,0.8437153666,-0.8862191454\H,1.7454253847
 ,1.4805285595,0.\H,0.3981738079,2.2096778829,-0.8852224374\H,0.3981738
 079,2.2096778829,0.8852224374\\Version=ES64L-G16RevB.01\State=1-A'\HF=
 -248.6186942\RMSD=2.882e-09\RMSF=1.462e-04\ZeroPoint=0.1019873\Thermal
 =0.1081128\Dipole=0.0620004,1.6270675,0.\DipoleDeriv=0.8034791,-0.1699
 952,0.,-0.2713604,2.1769535,0.,0.,0.,0.1562818,-0.5345723,-0.3686397,0
 .,0.0412867,-1.5602673,0.,0.,0.,-0.3892193,-0.6846976,0.469966,0.,0.16
 29079,-1.1799431,0.,0.,0.,-0.2944451,0.5248947,-0.1662211,0.,-0.046277
 7,-0.0101961,0.,0.,0.,0.3093928,0.1394131,0.2066385,0.,0.1311231,0.607
 9821,0.,0.,0.,0.310457,-0.2335464,-0.0724377,0.,-0.0907313,0.0287702,0
 .,0.,0.,0.0826021,0.0561095,-0.0108197,0.,-0.0974753,0.0244738,0.,0.,0
 .,0.0870794,-0.0346188,0.0495614,0.0067704,0.0725629,0.0257592,-0.0893
 56,0.0853625,-0.0950688,-0.0860746,-0.0346188,0.0495614,-0.0067704,0.0
 725629,0.0257592,0.089356,-0.0853625,0.0950688,-0.0860746,-0.1041102,-
 0.0326759,0.,0.0578054,0.045507,0.,0.,0.,0.0832724,0.0511339,0.022531,
 -0.0693919,-0.0162022,-0.0923993,0.0498476,-0.0333386,0.131342,-0.0866
 36,0.0511339,0.022531,0.0693919,-0.0162022,-0.0923993,-0.0498476,0.033
 3386,-0.131342,-0.086636\Polar=51.4907767,-1.3278793,61.2063419,0.,0.,
 37.3342417\Quadrupole=3.2572441,-4.0297063,0.7724623,0.4603024,0.,0.\P
 G=CS [SG(C3H3N1O1),X(H4)]\NImag=0\\0.71827257,0.14456686,0.88696684,0.
 ,0.,0.18498873,-0.22092057,-0.21944041,0.,0.19664137,-0.22838147,-0.56
 572147,0.,0.24761967,0.68731228,0.,0.,-0.07184348,0.,0.,0.03179275,-0.
 20723203,0.07458111,0.,0.03521499,0.00385470,0.,0.62915009,0.10133045,
 -0.23852736,0.,0.00602733,-0.10019845,0.,-0.03829556,0.70444064,0.,0.,
 -0.04290319,0.,0.,0.01759551,0.,0.,0.11119921,-0.03121504,0.02483772,0
 .,-0.00373194,-0.01120345,0.,-0.20967937,-0.00600135,0.,0.47038938,0.0
 3320782,0.01160110,0.,-0.00173090,-0.00240407,0.,0.00517876,-0.1091461
 3,0.,-0.00048429,0.61506249,0.,0.,-0.00046907,0.,0.,-0.00269151,0.,0.,
 -0.06626651,0.,0.,0.55421823,0.01798165,-0.00149468,0.,-0.00123593,0.0
 1090978,0.,-0.13393970,-0.04124900,0.,-0.01860270,-0.03370335,0.,0.581
 97755,-0.01016729,-0.04245921,0.,0.00329771,0.00426096,0.,-0.05184336,
 -0.19905092,0.,-0.00422983,0.00124668,0.,-0.05043531,0.50722669,0.,0.,
 -0.01140606,0.,0.,0.00943293,0.,0.,-0.05913324,0.,0.,-0.00161245,0.,0.
 ,0.55226448,-0.26427620,-0.01091385,0.,-0.01430042,-0.02603098,0.,-0.0
 2874608,0.00361684,0.,0.00217014,0.00291231,0.,-0.00042414,-0.00284041
 ,0.,0.30407804,-0.02509500,-0.05587180,0.,-0.04193533,-0.01575376,0.,0
 .02910029,-0.00024638,0.,0.00110764,-0.00363979,0.,0.00396457,0.000158
 00,0.,0.03196939,0.07601732,0.,0.,-0.05845218,0.,0.,0.01832689,0.,0.,0
 .00943067,0.,0.,0.00713582,0.,0.,-0.00144543,0.,0.,0.02529366,-0.00081
 286,-0.00645588,0.,0.00248068,0.00275689,0.,-0.01759591,-0.03678231,0.
 ,-0.07287460,-0.07065397,0.,-0.00584063,0.00294902,0.,0.00047509,-0.00
 001802,0.,0.08690277,0.00095786,-0.00017510,0.,0.00247736,-0.00164891,
 0.,-0.00313959,0.00178671,0.,-0.08402611,-0.29797333,0.,-0.00007891,0.
 00044904,0.,-0.00047659,-0.00018637,0.,0.08916741,0.31946562,0.,0.,0.0
 0130250,0.,0.,-0.00158950,0.,0.,-0.00124156,0.,0.,-0.04977822,0.,0.,-0
 .00016102,0.,0.,0.00020652,0.,0.,0.04779700,-0.00263892,-0.00779421,0.
 00261499,0.00214641,0.00245981,0.00066006,-0.02873674,0.02170762,0.027
 53909,-0.07099641,0.03507608,0.06330662,0.00174745,0.00277292,0.001082
 54,-0.00070062,0.00075272,-0.00167582,0.00403429,-0.00276587,-0.009213
 90,0.09013173,-0.00058216,-0.00025552,-0.00113263,0.00118681,0.0000693
 7,0.00095107,0.00198832,0.00036773,0.00221113,0.03740462,-0.10545241,-
 0.09784193,-0.00034331,0.00111938,0.00156875,0.00010998,-0.00001286,-0
 .00048126,0.01019898,-0.01075159,-0.02569491,-0.04546291,0.10705148,-0
 .00152212,0.00189432,-0.00060902,-0.00006007,-0.00055564,-0.00003531,0
 .00400847,0.00096734,0.00787638,0.06677867,-0.09851398,-0.22100427,-0.
 00035804,-0.00008096,0.00063920,0.00001936,0.00016655,-0.00028167,-0.0
 0141592,0.00068607,0.00127481,-0.07560915,0.10784258,0.23518144,-0.002
 63892,-0.00779421,-0.00261499,0.00214641,0.00245981,-0.00066006,-0.028
 73674,0.02170762,-0.02753909,-0.07099641,0.03507608,-0.06330662,0.0017
 4745,0.00277292,-0.00108254,-0.00070062,0.00075272,0.00167582,0.004034
 29,-0.00276587,0.00921390,0.00471921,-0.00538392,0.00749940,0.09013173
 ,-0.00058216,-0.00025552,0.00113263,0.00118681,0.00006937,-0.00095107,
 0.00198832,0.00036773,-0.00221113,0.03740462,-0.10545241,0.09784193,-0
 .00034331,0.00111938,-0.00156875,0.00010998,-0.00001286,0.00048126,0.0
 1019898,-0.01075159,0.02569491,-0.00538392,0.00740869,-0.01307794,-0.0
 4546291,0.10705148,0.00152212,-0.00189432,-0.00060902,0.00006007,0.000
 55564,-0.00003531,-0.00400847,-0.00096734,0.00787638,-0.06677867,0.098
 51398,-0.22100427,0.00035804,0.00008096,0.00063920,-0.00001936,-0.0001
 6655,-0.00028167,0.00141592,-0.00068607,0.00127481,-0.00749940,0.01307
 794,-0.02254944,0.07560915,-0.10784258,0.23518144,-0.00141104,0.006081
 57,0.,0.00080334,-0.00127513,0.,-0.01867471,-0.00269369,0.,0.00074389,
 -0.00397289,0.,-0.30594281,0.03640285,0.,0.00145569,-0.00035679,0.,-0.
 00110884,0.00049022,0.,0.00021804,0.00016480,0.00001244,0.00021804,0.0
 0016480,-0.00001244,0.33625332,-0.00446566,-0.00012168,0.,0.00095263,0
 .00068864,0.,-0.03477187,0.00348506,0.,0.00004704,-0.00539672,0.,0.046
 86850,-0.05753730,0.,0.00082159,-0.00071307,0.,-0.00165550,-0.00016366
 ,0.,0.00005372,0.00005111,0.00023187,0.00005372,0.00005111,-0.00023187
 ,-0.03873487,0.06349084,0.,0.,0.00063516,0.,0.,-0.00025428,0.,0.,-0.00
 150309,0.,0.,0.00028317,0.,0.,-0.04787022,0.,0.,0.00001016,0.,0.,0.000
 49353,-0.00037130,0.00004338,0.00024769,0.00037130,-0.00004338,0.00024
 769,0.,0.,0.04503985,-0.00255432,0.00191298,0.00105896,0.00037783,-0.0
 0158482,-0.00041190,0.00448810,-0.01468398,0.01347950,0.00239652,-0.00
 045282,0.00168186,-0.06873410,0.03566040,-0.05590054,0.00048456,-0.000
 12109,-0.00045334,0.00015286,0.00008004,-0.00011410,-0.00017231,0.0000
 1447,-0.00011866,0.00024787,0.00070432,-0.00076562,-0.00627746,0.01541
 536,-0.02634912,0.06677880,-0.00539463,0.00240986,0.00473763,0.0001791
 6,-0.00333698,-0.00185638,0.00567943,-0.03163931,0.02240695,0.00257170
 ,0.00077729,0.00015246,0.03295252,-0.10826634,0.10032244,0.00036087,0.
 00013078,0.00012965,0.00014720,-0.00002541,-0.00027501,-0.00045520,0.0
 0002135,-0.00003072,-0.00096074,0.00038326,-0.00047052,0.00186456,-0.0
 0191717,0.00328589,-0.03280899,0.13178109,0.00083390,-0.00244050,-0.00
 031719,0.00025952,0.00060932,-0.00034934,0.00248894,0.00326476,0.00853
 472,-0.00015120,-0.00030008,0.00059454,-0.05577929,0.10356820,-0.22067
 369,-0.00004072,-0.00003829,0.00002862,0.00017666,-0.00005146,0.000210
 56,-0.00009207,-0.00007937,-0.00054586,0.00074167,0.00046475,-0.000193
 93,0.00009278,-0.00170104,0.00133517,0.05968138,-0.11584934,0.23432236
 ,-0.00255432,0.00191298,-0.00105896,0.00037783,-0.00158482,0.00041190,
 0.00448810,-0.01468398,-0.01347950,0.00239652,-0.00045282,-0.00168186,
 -0.06873410,0.03566040,0.05590054,0.00048456,-0.00012109,0.00045334,0.
 00015286,0.00008004,0.00011410,0.00024787,0.00070432,0.00076562,-0.000
 17231,0.00001447,0.00011866,-0.00627746,0.01541536,0.02634912,0.002811
 63,-0.00413588,-0.00821156,0.06677880,-0.00539463,0.00240986,-0.004737
 63,0.00017916,-0.00333698,0.00185638,0.00567943,-0.03163931,-0.0224069
 5,0.00257170,0.00077729,-0.00015246,0.03295252,-0.10826634,-0.10032244
 ,0.00036087,0.00013078,-0.00012965,0.00014720,-0.00002541,0.00027501,-
 0.00096074,0.00038326,0.00047052,-0.00045520,0.00002135,0.00003072,0.0
 0186456,-0.00191717,-0.00328589,-0.00413588,0.00968157,0.01255305,-0.0
 3280899,0.13178109,-0.00083390,0.00244050,-0.00031719,-0.00025952,-0.0
 0060932,-0.00034934,-0.00248894,-0.00326476,0.00853472,0.00015120,0.00
 030008,0.00059454,0.05577929,-0.10356820,-0.22067369,0.00004072,0.0000
 3829,0.00002862,-0.00017666,0.00005146,0.00021056,-0.00074167,-0.00046
 475,-0.00019393,0.00009207,0.00007937,-0.00054586,-0.00009278,0.001701
 04,0.00133517,0.00821156,-0.01255305,-0.02294596,-0.05968138,0.1158493
 4,0.23432236\\-0.00004705,-0.00062888,0.,0.00016995,0.00038057,0.,-0.0
 0004702,0.00035682,0.,-0.00010541,-0.00006398,0.,-0.00005264,-0.000113
 07,0.,-0.00005134,0.00003093,0.,0.00004992,0.00007498,0.,0.00003671,-0
 .00002833,-0.00005785,0.00003671,-0.00002833,0.00005785,-0.00007231,0.
 00001558,0.,0.00004125,0.00000186,0.00005360,0.00004125,0.00000186,-0.
 00005360\\\@


 THE DIFFERENCE BETWEEN A NOOSE AND A HALO IS ONLY 12 INCHES.
 Job cpu time:       0 days  0 hours 26 minutes 33.9 seconds.
 Elapsed time:       0 days  0 hours  3 minutes 19.8 seconds.
 File lengths (MBytes):  RWF=     58 Int=      0 D2E=      0 Chk=      6 Scr=      1
 Normal termination of Gaussian 16 at Sun Feb 27 16:59:27 2022.
