 Entering Gaussian System, Link 0=g16
 AtFile(1): pcseg2.gbs
            -H     0
            S   4   1.00
                  0.754732D+02           0.427821D-02
                  0.113575D+02           0.328672D-01
                  0.260081D+01           0.159578D+00
                  0.735503D+00           0.500000D+00
            S   1   1.00
                  0.231761D+00           1.0000000
            S   1   1.00
                  0.741675D-01           1.0000000
            P   1   1.00
                  0.160000D+01           1.0000000
            P   1   1.00
                  0.450000D+00           1.0000000
            D   1   1.00
                  0.125000D+01           1.0000000
            ****
            -C     0
            S   7   1.00
                  0.731999D+04           0.695369D-03
                  0.109818D+04           0.537138D-02
                  0.250014D+03           0.274734D-01
                  0.707586D+02           0.105078D+00
                  0.228595D+02           0.291262D+00
                  0.803936D+01           0.500000D+00
                  0.289309D+01           0.362224D+00
            S   2   1.00
                  0.521640D+01          -0.957844D-01
                  0.556124D+00           0.500000D+00
            S   1   1.00
                  0.228813D+00           1.0000000
            S   1   1.00
                  0.936338D-01           1.0000000
            P   4   1.00
                  0.339855D+02           0.818395D-02
                  0.772957D+01           0.586921D-01
                  0.224954D+01           0.222514D+00
                  0.767681D+00           0.500000D+00
            P   1   1.00
                  0.263283D+00           1.0000000
            P   1   1.00
                  0.848744D-01           1.0000000
            D   1   1.00
                  0.140000D+01           1.0000000
            D   1   1.00
                  0.450000D+00           1.0000000
            F   1   1.00
                  0.950000D+00           1.0000000
            ****
            -O     0
            S   7   1.00
                  0.135887D+05           0.665492D-03
                  0.203847D+04           0.514222D-02
                  0.464041D+03           0.263472D-01
                  0.131339D+03           0.101500D+00
                  0.425340D+02           0.285877D+00
                  0.150429D+02           0.500000D+00
                  0.546616D+01           0.368211D+00
            S   2   1.00
                  0.100915D+02          -0.100084D+00
                  0.110429D+01           0.500000D+00
            S   1   1.00
                  0.448082D+00           1.0000000
            S   1   1.00
                  0.175325D+00           1.0000000
            P   4   1.00
                  0.608220D+02           0.908253D-02
                  0.140332D+02           0.645878D-01
                  0.418244D+01           0.241502D+00
                  0.142490D+01           0.500000D+00
            P   1   1.00
                  0.478741D+00           1.0000000
            P   1   1.00
                  0.146257D+00           1.0000000
            D   1   1.00
                  0.220000D+01           1.0000000
            D   1   1.00
                  0.650000D+00           1.0000000
            F   1   1.00
                  0.110000D+01           1.0000000
            ****
            -N     0
            S   7   1.00
                  0.101643D+05           0.682757D-03
                  0.152481D+04           0.527488D-02
                  0.347119D+03           0.270037D-01
                  0.982389D+02           0.103673D+00
                  0.317799D+02           0.289575D+00
                  0.112240D+02           0.500000D+00
                  0.406611D+01           0.364621D+00
            S   2   1.00
                  0.747898D+01          -0.975681D-01
                  0.805040D+00           0.500000D+00
            S   1   1.00
                  0.324626D+00           1.0000000
            S   1   1.00
                  0.128132D+00           1.0000000
            P   4   1.00
                  0.482704D+02           0.829547D-02
                  0.110815D+02           0.596223D-01
                  0.326643D+01           0.227889D+00
                  0.111680D+01           0.500000D+00
            P   1   1.00
                  0.382049D+00           1.0000000
            P   1   1.00
                  0.121222D+00           1.0000000
            D   1   1.00
                  0.180000D+01           1.0000000
            D   1   1.00
                  0.550000D+00           1.0000000
            F   1   1.00
                  0.102000D+01           1.0000000
            ****
            -F     0
            S   7   1.00
                  0.174507D+05           0.655972D-03
                  0.261768D+04           0.506944D-02
                  0.595857D+03           0.259899D-01
                  0.168651D+03           0.100353D+00
                  0.546654D+02           0.284095D+00
                  0.193717D+02           0.500000D+00
                  0.706202D+01           0.370721D+00
            S   2   1.00
                  0.131197D+02          -0.101997D+00
                  0.145046D+01           0.500000D+00
            S   1   1.00
                  0.588255D+00           1.0000000
            S   1   1.00
                  0.227960D+00           1.0000000
            P   4   1.00
                  0.779407D+02           0.931135D-02
                  0.180425D+02           0.663964D-01
                  0.542342D+01           0.246386D+00
                  0.184876D+01           0.500000D+00
            P   1   1.00
                  0.617455D+00           1.0000000
            P   1   1.00
                  0.185496D+00           1.0000000
            D   1   1.00
                  0.280000D+01           1.0000000
            D   1   1.00
                  0.800000D+00           1.0000000
            F   1   1.00
                  0.120000D+01           1.0000000
            ****
            -Cl     0
            S   8   1.00
                  0.154272D+06           0.222473D-03
                  0.231232D+05           0.172590D-02
                  0.526257D+04           0.899286D-02
                  0.148995D+04           0.367724D-01
                  0.485417D+03           0.121446D+00
                  0.174634D+03           0.304148D+00
                  0.672393D+02           0.500000D+00
                  0.265780D+02           0.360252D+00
            S   3   1.00
                  0.131826D+03          -0.531330D-01
                  0.400703D+02          -0.233346D+00
                  0.789448D+01           0.500000D+00
            S   2   1.00
                  0.427711D+01           0.500000D+00
                  0.196233D+01           0.370517D+00
            S   1   1.00
                  0.520793D+00           1.0000000
            S   1   1.00
                  0.181633D+00           1.0000000
            P   7   1.00
                  0.124440D+04           0.988206D-03
                  0.295109D+03           0.829674D-02
                  0.947224D+02           0.430906D-01
                  0.352588D+02           0.148443D+00
                  0.144211D+02           0.344744D+00
                  0.610371D+01           0.500000D+00
                  0.258886D+01           0.348278D+00
            P   2   1.00
                  0.109447D+02          -0.196768D-01
                  0.104413D+01           0.500000D+00
            P   1   1.00
                  0.376184D+00           1.0000000
            P   1   1.00
                  0.120613D+00           1.0000000
            D   1   1.00
                  0.231000D+01           1.0000000
            D   1   1.00
                  0.520000D+00           1.0000000
            F   1   1.00
                  0.720000D+00           1.0000000
            ****
            -S     0
            S   8   1.00
                  0.134700D+06           0.226231D-03
                  0.201904D+05           0.175488D-02
                  0.459528D+04           0.914190D-02
                  0.130109D+04           0.373551D-01
                  0.423902D+03           0.123121D+00
                  0.152485D+03           0.306801D+00
                  0.586925D+02           0.500000D+00
                  0.231461D+02           0.354358D+00
            S   3   1.00
                  0.116327D+03          -0.491772D-01
                  0.352841D+02          -0.215962D+00
                  0.677831D+01           0.500000D+00
            S   2   1.00
                  0.360404D+01           0.500000D+00
                  0.164871D+01           0.366278D+00
            S   1   1.00
                  0.421821D+00           1.0000000
            S   1   1.00
                  0.147554D+00           1.0000000
            P   7   1.00
                  0.104863D+04           0.105273D-02
                  0.248717D+03           0.879338D-02
                  0.797887D+02           0.453358D-01
                  0.296023D+02           0.154476D+00
                  0.120627D+02           0.352366D+00
                  0.507628D+01           0.500000D+00
                  0.213375D+01           0.346429D+00
            P   2   1.00
                  0.928958D+01          -0.185932D-01
                  0.837819D+00           0.500000D+00
            P   1   1.00
                  0.301495D+00           1.0000000
            P   1   1.00
                  0.974740D-01           1.0000000
            D   1   1.00
                  0.210000D+01           1.0000000
            D   1   1.00
                  0.480000D+00           1.0000000
            F   1   1.00
                  0.660000D+00           1.0000000
            ****
            -Br     0
            S    10   1.00
                  0.233625D+07           0.532336D-04
                  0.349961D+06           0.413715D-03
                  0.796444D+05           0.217123D-02
                  0.225555D+05           0.910109D-02
                  0.735546D+04           0.323789D-01
                  0.265352D+04           0.988755D-01
                  0.103517D+04           0.248138D+00
                  0.422205D+03           0.474328D+00
                  0.180035D+03           0.500000D+00
                  0.793308D+02           0.187769D+00
            S    4   1.00
                  0.620834D+03          -0.226511D-01
                  0.190829D+03          -0.109497D+00
                  0.312505D+02           0.500000D+00
                  0.135270D+02           0.492812D+00
            S    2   1.00
                  0.216097D+02          -0.165418D+00
                  0.372566D+01           0.500000D+00
            S    1   1.00
                  0.169770D+01           1.0000000
            S    1   1.00
                  0.489332D+00           1.0000000
            S    1   1.00
                  0.175712D+00           1.0000000
            P    8   1.00
                  0.960829D+04           0.478974D-03
                  0.227618D+04           0.417853D-02
                  0.736723D+03           0.229315D-01
                  0.281579D+03           0.892653D-01
                  0.118395D+03           0.255288D+00
                  0.527481D+02           0.479074D+00
                  0.245098D+02           0.500000D+00
                  0.112009D+02           0.200944D+00
            P    4   1.00
                  0.587849D+02          -0.189674D-01
                  0.918962D+01           0.264104D+00
                  0.413895D+01           0.500000D+00
                  0.184225D+01           0.319316D+00
            P    1   1.00
                  0.713862D+00           1.0000000
            P    1   1.00
                  0.274232D+00           1.0000000
            P    1   1.00
                  0.944411D-01           1.0000000
            D    7   1.00
                  0.398470D+03           0.204066D-02
                  0.118967D+03           0.175171D-01
                  0.450197D+02           0.829708D-01
                  0.190320D+02           0.236284D+00
                  0.855686D+01           0.428468D+00
                  0.382950D+01           0.500000D+00
                  0.166291D+01           0.349360D+00
            D    1   1.00
                  0.672953D+00           1.0000000
            D    1   1.00
                  0.252000D+00           1.0000000
            F    1   1.00
                  0.530000D+00           1.0000000
            ****
            -Si     0
            S    8   1.00
                  0.996133D+05           0.235546D-03
                  0.149311D+05           0.182707D-02
                  0.339820D+04           0.951425D-02
                  0.962140D+03           0.388172D-01
                  0.313430D+03           0.127328D+00
                  0.112683D+03           0.313522D+00
                  0.433372D+02           0.500000D+00
                  0.170029D+02           0.340347D+00
            S    3   1.00
                  0.884208D+02          -0.404451D-01
                  0.266756D+02          -0.178059D+00
                  0.479640D+01           0.500000D+00
            S    2   1.00
                  0.239385D+01           0.500000D+00
                  0.108333D+01           0.338016D+00
            S    1   1.00
                  0.252420D+00           1.0000000
            S    1   1.00
                  0.891210D-01           1.0000000
            P    7   1.00
                  0.709901D+03           0.123028D-02
                  0.168426D+03           0.101366D-01
                  0.539946D+02           0.511840D-01
                  0.198646D+02           0.169967D+00
                  0.801369D+01           0.370717D+00
                  0.331870D+01           0.500000D+00
                  0.136112D+01           0.344128D+00
            P    2   1.00
                  0.622158D+01          -0.166609D-01
                  0.503049D+00           0.500000D+00
            P    1   1.00
                  0.179848D+00           1.0000000
            P    1   1.00
                  0.591912D-01           1.0000000
            D    1   1.00
                  0.168000D+01           1.0000000
            D    1   1.00
                  0.380000D+00           1.0000000
            F    1   1.00
                  0.540000D+00           1.0000000
            ****
            -P     0
            S    8   1.00
                  0.116416D+06           0.230715D-03
                  0.174500D+05           0.178960D-02
                  0.397149D+04           0.932116D-02
                  0.112447D+04           0.380591D-01
                  0.366347D+03           0.125148D+00
                  0.131757D+03           0.310022D+00
                  0.506988D+02           0.500000D+00
                  0.199436D+02           0.347528D+00
            S    3   1.00
                  0.101878D+03          -0.446755D-01
                  0.308249D+02          -0.196376D+00
                  0.573688D+01           0.500000D+00
            S    2   1.00
                  0.296868D+01           0.500000D+00
                  0.135315D+01           0.355098D+00
            S    1   1.00
                  0.332196D+00           1.0000000
            S    1   1.00
                  0.116229D+00           1.0000000
            P    7   1.00
                  0.873928D+03           0.112375D-02
                  0.207298D+03           0.933330D-02
                  0.664628D+02           0.477213D-01
                  0.245665D+02           0.160733D+00
                  0.996820D+01           0.359760D+00
                  0.416536D+01           0.500000D+00
                  0.173022D+01           0.346593D+00
            P    2   1.00
                  0.772530D+01          -0.175718D-01
                  0.657252D+00           0.500000D+00
            P    1   1.00
                  0.239903D+00           1.0000000
            P    1   1.00
                  0.800988D-01           1.0000000
            D    1   1.00
                  0.189000D+01           1.0000000
            D    1   1.00
                  0.430000D+00           1.0000000
            F    1   1.00
                  0.600000D+00           1.0000000
            ****
            
 Initial command:
 /usr/local/apps/g16_b01_avx/g16/l1.exe "/wrk/irikura/Gau-504909.inp" -scrdir="/wrk/irikura/"
 Entering Link 1 = /usr/local/apps/g16_b01_avx/g16/l1.exe PID=    504911.
  
 Copyright (c) 1988-2017, Gaussian, Inc.  All Rights Reserved.
  
 This is part of the Gaussian(R) 16 program.  It is based on
 the Gaussian(R) 09 system (copyright 2009, Gaussian, Inc.),
 the Gaussian(R) 03 system (copyright 2003, Gaussian, Inc.),
 the Gaussian(R) 98 system (copyright 1998, Gaussian, Inc.),
 the Gaussian(R) 94 system (copyright 1995, Gaussian, Inc.),
 the Gaussian 92(TM) system (copyright 1992, Gaussian, Inc.),
 the Gaussian 90(TM) system (copyright 1990, Gaussian, Inc.),
 the Gaussian 88(TM) system (copyright 1988, Gaussian, Inc.),
 the Gaussian 86(TM) system (copyright 1986, Carnegie Mellon
 University), and the Gaussian 82(TM) system (copyright 1983,
 Carnegie Mellon University). Gaussian is a federally registered
 trademark of Gaussian, Inc.
  
 This software contains proprietary and confidential information,
 including trade secrets, belonging to Gaussian, Inc.
  
 This software is provided under written license and may be
 used, copied, transmitted, or stored only in accord with that
 written license.
  
 The following legend is applicable only to US Government
 contracts under FAR:
  
                    RESTRICTED RIGHTS LEGEND
  
 Use, reproduction and disclosure by the US Government is
 subject to restrictions as set forth in subparagraphs (a)
 and (c) of the Commercial Computer Software - Restricted
 Rights clause in FAR 52.227-19.
  
 Gaussian, Inc.
 340 Quinnipiac St., Bldg. 40, Wallingford CT 06492
  
  
 ---------------------------------------------------------------
 Warning -- This program may not be used in any manner that
 competes with the business of Gaussian, Inc. or will provide
 assistance to any competitor of Gaussian, Inc.  The licensee
 of this program is prohibited from giving any competitor of
 Gaussian, Inc. access to this program.  By using this program,
 the user acknowledges that Gaussian, Inc. is engaged in the
 business of creating and licensing software in the field of
 computational chemistry and represents and warrants to the
 licensee that it is not a competitor of Gaussian, Inc. and that
 it will not use this program in any manner prohibited above.
 ---------------------------------------------------------------
  

 Cite this work as:
 Gaussian 16, Revision B.01,
 M. J. Frisch, G. W. Trucks, H. B. Schlegel, G. E. Scuseria, 
 M. A. Robb, J. R. Cheeseman, G. Scalmani, V. Barone, 
 G. A. Petersson, H. Nakatsuji, X. Li, M. Caricato, A. V. Marenich, 
 J. Bloino, B. G. Janesko, R. Gomperts, B. Mennucci, H. P. Hratchian, 
 J. V. Ortiz, A. F. Izmaylov, J. L. Sonnenberg, D. Williams-Young, 
 F. Ding, F. Lipparini, F. Egidi, J. Goings, B. Peng, A. Petrone, 
 T. Henderson, D. Ranasinghe, V. G. Zakrzewski, J. Gao, N. Rega, 
 G. Zheng, W. Liang, M. Hada, M. Ehara, K. Toyota, R. Fukuda, 
 J. Hasegawa, M. Ishida, T. Nakajima, Y. Honda, O. Kitao, H. Nakai, 
 T. Vreven, K. Throssell, J. A. Montgomery, Jr., J. E. Peralta, 
 F. Ogliaro, M. J. Bearpark, J. J. Heyd, E. N. Brothers, K. N. Kudin, 
 V. N. Staroverov, T. A. Keith, R. Kobayashi, J. Normand, 
 K. Raghavachari, A. P. Rendell, J. C. Burant, S. S. Iyengar, 
 J. Tomasi, M. Cossi, J. M. Millam, M. Klene, C. Adamo, R. Cammi, 
 J. W. Ochterski, R. L. Martin, K. Morokuma, O. Farkas, 
 J. B. Foresman, and D. J. Fox, Gaussian, Inc., Wallingford CT, 2016.
 
 ******************************************
 Gaussian 16:  ES64L-G16RevB.01 20-Dec-2017
                 1-Oct-2023 
 ******************************************
 %chk=et2o.chk
 %mem=1000mw
 %nprocs=4
 Will use up to    4 processors via shared memory.
 ---------------------------------------
 # b3lyp/gen opt freq CPHF(Grid=OneStep)
 ---------------------------------------
 1/18=20,19=15,26=3,38=1/1,3;
 2/9=110,12=2,17=6,18=5,40=1/2;
 3/5=7,11=2,25=1,30=1,71=1,74=-5/1,2,3;
 4//1;
 5/5=2,38=5/2;
 6/7=2,8=2,9=2,10=2,28=1/1;
 7//1,2,3,16;
 1/18=20,19=15,26=3/3(2);
 2/9=110/2;
 99//99;
 2/9=110/2;
 3/5=7,6=1,11=2,25=1,30=1,71=1,74=-5,82=7/1,2,3;
 4/5=5,16=3,69=1/1;
 5/5=2,38=5/2;
 7//1,2,3,16;
 1/18=20,19=15,26=3/3(-5);
 2/9=110/2;
 6/7=2,8=2,9=2,10=2,19=2,28=1/1;
 99/9=1/99;
 ----------------------------
 diethyl ether, B3LYP/pcseg-2
 ----------------------------
 Symbolic Z-matrix:
 Charge =  0 Multiplicity = 1
 O                     0.        0.        0.25945 
 C                     0.        1.18446  -0.5169 
 C                     0.       -1.18446  -0.5169 
 C                     0.        2.38149   0.41128 
 C                     0.       -2.38149   0.41128 
 H                     0.88407   1.20208  -1.16901 
 H                    -0.88407   1.20208  -1.16901 
 H                     0.88407  -1.20208  -1.16901 
 H                    -0.88407  -1.20208  -1.16901 
 H                     0.        3.30735  -0.16528 
 H                     0.       -3.30735  -0.16528 
 H                    -0.88327   2.37298   1.04961 
 H                     0.88327   2.37298   1.04961 
 H                     0.88327  -2.37298   1.04961 
 H                    -0.88327  -2.37298   1.04961 
 

 GradGradGradGradGradGradGradGradGradGradGradGradGradGradGradGradGradGrad
 Berny optimization.
 Initialization pass.
                           ----------------------------
                           !    Initial Parameters    !
                           ! (Angstroms and Degrees)  !
 --------------------------                            --------------------------
 ! Name  Definition              Value          Derivative Info.                !
 --------------------------------------------------------------------------------
 ! R1    R(1,2)                  1.4162         estimate D2E/DX2                !
 ! R2    R(1,3)                  1.4162         estimate D2E/DX2                !
 ! R3    R(2,4)                  1.5147         estimate D2E/DX2                !
 ! R4    R(2,6)                  1.0987         estimate D2E/DX2                !
 ! R5    R(2,7)                  1.0987         estimate D2E/DX2                !
 ! R6    R(3,5)                  1.5147         estimate D2E/DX2                !
 ! R7    R(3,8)                  1.0987         estimate D2E/DX2                !
 ! R8    R(3,9)                  1.0987         estimate D2E/DX2                !
 ! R9    R(4,10)                 1.0907         estimate D2E/DX2                !
 ! R10   R(4,12)                 1.0898         estimate D2E/DX2                !
 ! R11   R(4,13)                 1.0898         estimate D2E/DX2                !
 ! R12   R(5,11)                 1.0907         estimate D2E/DX2                !
 ! R13   R(5,14)                 1.0898         estimate D2E/DX2                !
 ! R14   R(5,15)                 1.0898         estimate D2E/DX2                !
 ! A1    A(2,1,3)              113.5142         estimate D2E/DX2                !
 ! A2    A(1,2,4)              108.967          estimate D2E/DX2                !
 ! A3    A(1,2,6)              109.8023         estimate D2E/DX2                !
 ! A4    A(1,2,7)              109.8023         estimate D2E/DX2                !
 ! A5    A(4,2,6)              110.5501         estimate D2E/DX2                !
 ! A6    A(4,2,7)              110.5501         estimate D2E/DX2                !
 ! A7    A(6,2,7)              107.1536         estimate D2E/DX2                !
 ! A8    A(1,3,5)              108.967          estimate D2E/DX2                !
 ! A9    A(1,3,8)              109.8023         estimate D2E/DX2                !
 ! A10   A(1,3,9)              109.8023         estimate D2E/DX2                !
 ! A11   A(5,3,8)              110.5501         estimate D2E/DX2                !
 ! A12   A(5,3,9)              110.5501         estimate D2E/DX2                !
 ! A13   A(8,3,9)              107.1536         estimate D2E/DX2                !
 ! A14   A(2,4,10)             110.2981         estimate D2E/DX2                !
 ! A15   A(2,4,12)             110.6548         estimate D2E/DX2                !
 ! A16   A(2,4,13)             110.6548         estimate D2E/DX2                !
 ! A17   A(10,4,12)            108.4367         estimate D2E/DX2                !
 ! A18   A(10,4,13)            108.4367         estimate D2E/DX2                !
 ! A19   A(12,4,13)            108.2843         estimate D2E/DX2                !
 ! A20   A(3,5,11)             110.2981         estimate D2E/DX2                !
 ! A21   A(3,5,14)             110.6548         estimate D2E/DX2                !
 ! A22   A(3,5,15)             110.6548         estimate D2E/DX2                !
 ! A23   A(11,5,14)            108.4367         estimate D2E/DX2                !
 ! A24   A(11,5,15)            108.4367         estimate D2E/DX2                !
 ! A25   A(14,5,15)            108.2843         estimate D2E/DX2                !
 ! D1    D(3,1,2,4)            180.0            estimate D2E/DX2                !
 ! D2    D(3,1,2,6)            -58.7846         estimate D2E/DX2                !
 ! D3    D(3,1,2,7)             58.7846         estimate D2E/DX2                !
 ! D4    D(2,1,3,5)            180.0            estimate D2E/DX2                !
 ! D5    D(2,1,3,8)             58.7846         estimate D2E/DX2                !
 ! D6    D(2,1,3,9)            -58.7846         estimate D2E/DX2                !
 ! D7    D(1,2,4,10)           180.0            estimate D2E/DX2                !
 ! D8    D(1,2,4,12)           -60.0139         estimate D2E/DX2                !
 ! D9    D(1,2,4,13)            60.0139         estimate D2E/DX2                !
 ! D10   D(6,2,4,10)            59.2422         estimate D2E/DX2                !
 ! D11   D(6,2,4,12)           179.2283         estimate D2E/DX2                !
 ! D12   D(6,2,4,13)           -60.7439         estimate D2E/DX2                !
 ! D13   D(7,2,4,10)           -59.2422         estimate D2E/DX2                !
 ! D14   D(7,2,4,12)            60.7439         estimate D2E/DX2                !
 ! D15   D(7,2,4,13)          -179.2283         estimate D2E/DX2                !
 ! D16   D(1,3,5,11)           180.0            estimate D2E/DX2                !
 ! D17   D(1,3,5,14)           -60.0139         estimate D2E/DX2                !
 ! D18   D(1,3,5,15)            60.0139         estimate D2E/DX2                !
 ! D19   D(8,3,5,11)           -59.2422         estimate D2E/DX2                !
 ! D20   D(8,3,5,14)            60.7439         estimate D2E/DX2                !
 ! D21   D(8,3,5,15)          -179.2283         estimate D2E/DX2                !
 ! D22   D(9,3,5,11)            59.2422         estimate D2E/DX2                !
 ! D23   D(9,3,5,14)           179.2283         estimate D2E/DX2                !
 ! D24   D(9,3,5,15)           -60.7439         estimate D2E/DX2                !
 --------------------------------------------------------------------------------
 Trust Radius=3.00D-01 FncErr=1.00D-07 GrdErr=1.00D-06 EigMax=2.50D+02 EigMin=1.00D-04
 Number of steps in this run=     73 maximum allowed number of steps=    100.
 GradGradGradGradGradGradGradGradGradGradGradGradGradGradGradGradGradGrad

                          Input orientation:                          
 ---------------------------------------------------------------------
 Center     Atomic      Atomic             Coordinates (Angstroms)
 Number     Number       Type             X           Y           Z
 ---------------------------------------------------------------------
      1          8           0        0.000000    0.000000    0.259454
      2          6           0        0.000000    1.184462   -0.516903
      3          6           0        0.000000   -1.184462   -0.516903
      4          6           0        0.000000    2.381494    0.411278
      5          6           0        0.000000   -2.381494    0.411278
      6          1           0        0.884067    1.202078   -1.169008
      7          1           0       -0.884067    1.202078   -1.169008
      8          1           0        0.884067   -1.202078   -1.169008
      9          1           0       -0.884067   -1.202078   -1.169008
     10          1           0        0.000000    3.307346   -0.165280
     11          1           0        0.000000   -3.307346   -0.165280
     12          1           0       -0.883274    2.372975    1.049615
     13          1           0        0.883274    2.372975    1.049615
     14          1           0        0.883274   -2.372975    1.049615
     15          1           0       -0.883274   -2.372975    1.049615
 ---------------------------------------------------------------------
                    Distance matrix (angstroms):
                    1          2          3          4          5
     1  O    0.000000
     2  C    1.416220   0.000000
     3  C    1.416220   2.368924   0.000000
     4  C    2.386329   1.514730   3.684774   0.000000
     5  C    2.386329   3.684774   1.514730   4.762988   0.000000
     6  H    2.065689   1.098693   2.627240   2.160995   4.015080
     7  H    2.065689   1.098693   2.627240   2.160995   4.015080
     8  H    2.065689   2.627240   1.098693   4.015080   2.160995
     9  H    2.065689   2.627240   1.098693   4.015080   2.160995
    10  H    3.334507   2.151807   4.505550   1.090698   5.717982
    11  H    3.334507   4.505550   2.151807   5.717982   1.090698
    12  H    2.652459   2.155624   3.986165   1.089826   4.877768
    13  H    2.652459   2.155624   3.986165   1.089826   4.877768
    14  H    2.652459   3.986165   2.155624   4.877768   1.089826
    15  H    2.652459   3.986165   2.155624   4.877768   1.089826
                    6          7          8          9         10
     6  H    0.000000
     7  H    1.768134   0.000000
     8  H    2.404156   2.984336   0.000000
     9  H    2.984336   2.404156   1.768134   0.000000
    10  H    2.494233   2.494233   4.703610   4.703610   0.000000
    11  H    4.703610   4.703610   2.494233   2.494233   6.614692
    12  H    3.068678   2.508643   4.563637   4.207528   1.768952
    13  H    2.508643   3.068678   4.207528   4.563637   1.768952
    14  H    4.207528   4.563637   2.508643   3.068678   5.875559
    15  H    4.563637   4.207528   3.068678   2.508643   5.875559
                   11         12         13         14         15
    11  H    0.000000
    12  H    5.875559   0.000000
    13  H    5.875559   1.766548   0.000000
    14  H    1.768952   5.064063   4.745950   0.000000
    15  H    1.768952   4.745950   5.064063   1.766548   0.000000
 Stoichiometry    C4H10O
 Framework group  C2V[C2(O),SGV(C4H2),X(H8)]
 Deg. of freedom    12
 Full point group                 C2V     NOp   4
 Largest Abelian subgroup         C2V     NOp   4
 Largest concise Abelian subgroup C2V     NOp   4
                         Standard orientation:                         
 ---------------------------------------------------------------------
 Center     Atomic      Atomic             Coordinates (Angstroms)
 Number     Number       Type             X           Y           Z
 ---------------------------------------------------------------------
      1          8           0        0.000000   -0.000000    0.259454
      2          6           0        0.000000    1.184462   -0.516903
      3          6           0       -0.000000   -1.184462   -0.516903
      4          6           0        0.000000    2.381494    0.411278
      5          6           0       -0.000000   -2.381494    0.411278
      6          1           0        0.884067    1.202078   -1.169008
      7          1           0       -0.884067    1.202078   -1.169008
      8          1           0        0.884067   -1.202078   -1.169008
      9          1           0       -0.884067   -1.202078   -1.169008
     10          1           0        0.000000    3.307346   -0.165280
     11          1           0       -0.000000   -3.307346   -0.165280
     12          1           0       -0.883274    2.372975    1.049615
     13          1           0        0.883274    2.372975    1.049615
     14          1           0        0.883274   -2.372975    1.049615
     15          1           0       -0.883274   -2.372975    1.049615
 ---------------------------------------------------------------------
 Rotational constants (GHZ):          18.1520257           2.2297108           2.0891504
 General basis read from cards:  (5D, 7F)
 There are   105 symmetry adapted cartesian basis functions of A1  symmetry.
 There are    59 symmetry adapted cartesian basis functions of A2  symmetry.
 There are    64 symmetry adapted cartesian basis functions of B1  symmetry.
 There are    97 symmetry adapted cartesian basis functions of B2  symmetry.
 There are    91 symmetry adapted basis functions of A1  symmetry.
 There are    55 symmetry adapted basis functions of A2  symmetry.
 There are    59 symmetry adapted basis functions of B1  symmetry.
 There are    85 symmetry adapted basis functions of B2  symmetry.
   290 basis functions,   435 primitive gaussians,   325 cartesian basis functions
    21 alpha electrons       21 beta electrons
       nuclear repulsion energy       189.7372800173 Hartrees.
 NAtoms=   15 NActive=   15 NUniq=    6 SFac= 4.00D+00 NAtFMM=   60 NAOKFM=F Big=F
 Integral buffers will be    131072 words long.
 Raffenetti 2 integral format.
 Two-electron integral symmetry is turned on.
 One-electron integrals computed using PRISM.
 NBasis=   290 RedAO= T EigKep=  4.32D-04  NBF=    91    55    59    85
 NBsUse=   290 1.00D-06 EigRej= -1.00D+00 NBFU=    91    55    59    85
 ExpMin= 7.42D-02 ExpMax= 1.36D+04 ExpMxC= 4.64D+02 IAcc=3 IRadAn=         5 AccDes= 0.00D+00
 Harris functional with IExCor=  402 and IRadAn=       5 diagonalized for initial guess.
 HarFok:  IExCor=  402 AccDes= 0.00D+00 IRadAn=         5 IDoV= 1 UseB2=F ITyADJ=14
 ICtDFT=  3500011 ScaDFX=  1.000000  1.000000  1.000000  1.000000
 FoFCou: FMM=F IPFlag=           0 FMFlag=      100000 FMFlg1=           0
         NFxFlg=           0 DoJE=T BraDBF=F KetDBF=T FulRan=T
         wScrn=  0.000000 ICntrl=       500 IOpCl=  0 I1Cent=   200000004 NGrid=           0
         NMat0=    1 NMatS0=      1 NMatT0=    0 NMatD0=    1 NMtDS0=    0 NMtDT0=    0
 Petite list used in FoFCou.
 Initial guess orbital symmetries:
       Occupied  (A1) (B2) (A1) (B2) (A1) (A1) (B2) (A1) (B2) (A1)
                 (B2) (B1) (A2) (A1) (A1) (B2) (B1) (B2) (A2) (A1)
                 (B1)
       Virtual   (A1) (B2) (A1) (B1) (A1) (A1) (B2) (A2) (B2) (B1)
                 (A1) (A2) (B2) (B2) (A1) (B1) (A2) (A1) (B2) (B1)
                 (B2) (A1) (A2) (B2) (A1) (B1) (A1) (B2) (B1) (A1)
                 (B2) (A2) (A1) (A2) (B2) (B2) (A1) (A1) (B2) (B2)
                 (B1) (A1) (B1) (B2) (A1) (A2) (B1) (B2) (A1) (A2)
                 (A1) (A1) (B2) (B1) (A2) (B1) (A1) (A2) (B2) (B1)
                 (A2) (B2) (A1) (B2) (B1) (A1) (A2) (B1) (A2) (A1)
                 (B2) (A1) (A2) (B2) (B2) (A1) (B1) (B2) (B1) (A1)
                 (B1) (A1) (A2) (B2) (A2) (A1) (B2) (A1) (B2) (B1)
                 (A1) (B2) (A2) (B1) (A1) (A1) (B2) (B2) (A2) (B2)
                 (A1) (B1) (B2) (A1) (B1) (A2) (B2) (A1) (A1) (A2)
                 (A1) (B2) (B2) (A1) (B2) (B1) (A1) (A2) (B2) (A1)
                 (B2) (B1) (B1) (A2) (A1) (B2) (A1) (B2) (A2) (B1)
                 (A1) (B2) (B1) (A2) (A2) (A1) (B1) (B2) (A1) (B1)
                 (A2) (B2) (A1) (B1) (A2) (B2) (A1) (B1) (A2) (B2)
                 (A1) (B2) (A1) (B1) (A2) (B1) (A2) (A2) (B1) (B2)
                 (A1) (B1) (B2) (B1) (A2) (A1) (B1) (A1) (A2) (B2)
                 (A1) (B2) (A1) (A2) (B2) (B1) (A1) (B1) (B2) (A2)
                 (A1) (B2) (A2) (A1) (B2) (B1) (B2) (A1) (B2) (B1)
                 (A1) (A2) (A1) (B1) (A2) (B2) (A1) (A2) (B1) (B2)
                 (A1) (B1) (A2) (B2) (B2) (A1) (B1) (A2) (A1) (B2)
                 (A1) (B1) (A1) (A2) (B2) (A1) (B2) (B1) (B2) (A2)
                 (A1) (B2) (B1) (A1) (A1) (B2) (A2) (B2) (A1) (A2)
                 (B2) (B1) (A1) (B1) (B2) (B1) (A2) (A1) (A2) (B1)
                 (A2) (A1) (B2) (B2) (B2) (A2) (A1) (A1) (B1) (B2)
                 (B2) (A2) (A1) (B1) (B1) (A2) (A1) (B2) (B1) (B2)
                 (A1) (A2) (B2) (A1) (B1) (A2) (A1) (B2) (A1)
 The electronic state of the initial guess is 1-A1.
 Requested convergence on RMS density matrix=1.00D-08 within 128 cycles.
 Requested convergence on MAX density matrix=1.00D-06.
 Requested convergence on             energy=1.00D-06.
 No special actions if energy rises.
 Integral accuracy reduced to 1.0D-05 until final iterations.
 Initial convergence to 1.0D-05 achieved.  Increase integral accuracy.
 SCF Done:  E(RB3LYP) =  -233.764807777     A.U. after   11 cycles
            NFock= 11  Conv=0.73D-08     -V/T= 2.0041

 **********************************************************************

            Population analysis using the SCF Density.

 **********************************************************************

 Orbital symmetries:
       Occupied  (A1) (B2) (A1) (B2) (A1) (A1) (B2) (A1) (B2) (A1)
                 (B2) (B1) (A2) (A1) (A1) (B1) (B2) (B2) (A2) (A1)
                 (B1)
       Virtual   (A1) (B2) (A1) (B1) (A1) (B2) (A2) (B2) (B1) (A1)
                 (A2) (A1) (A1) (B2) (B2) (B1) (A2) (A1) (B1) (B2)
                 (A2) (B2) (A1) (B1) (A1) (B2) (A1) (B2) (A2) (A1)
                 (B2) (B1) (A2) (A1) (B2) (B2) (A1) (A1) (B2) (B2)
                 (A1) (B1) (B1) (B2) (A1) (A2) (B1) (B2) (A1) (A2)
                 (A1) (A1) (B2) (B1) (A2) (B1) (A2) (B1) (A1) (B2)
                 (A2) (B2) (B1) (B2) (A1) (A1) (A2) (B1) (A2) (A1)
                 (B2) (A1) (A2) (B2) (A1) (B2) (B1) (B2) (B1) (A1)
                 (A1) (B1) (A2) (B2) (A1) (A2) (B2) (A1) (B2) (A1)
                 (B1) (B2) (B1) (A2) (A1) (A1) (B2) (A2) (B2) (B2)
                 (B1) (A1) (A1) (B2) (B1) (B2) (A2) (A1) (A1) (A2)
                 (A1) (B2) (B2) (A1) (B2) (B1) (A1) (A2) (B2) (B2)
                 (A1) (B1) (B1) (A2) (A1) (B2) (A1) (B2) (A2) (B1)
                 (A1) (B2) (B1) (A2) (A2) (B1) (A1) (B2) (A1) (B1)
                 (A2) (B2) (A1) (B1) (A2) (B2) (A1) (B1) (A2) (B2)
                 (A1) (B2) (B1) (A2) (A1) (B1) (A2) (A2) (B1) (B2)
                 (A1) (B1) (B2) (B1) (A2) (B1) (A1) (A2) (A1) (B2)
                 (A1) (B2) (A2) (A1) (B2) (B1) (A1) (B1) (B2) (A2)
                 (A1) (B2) (B2) (A1) (A2) (B1) (B2) (A1) (B2) (B1)
                 (A1) (A2) (A1) (A2) (B1) (B2) (B1) (A1) (A2) (A1)
                 (B2) (A2) (B1) (B2) (B2) (A1) (B1) (A2) (A1) (B2)
                 (A1) (B1) (A2) (A1) (B2) (A1) (B1) (B2) (B2) (A2)
                 (A1) (B2) (B1) (A1) (A1) (B2) (A2) (B2) (A1) (A2)
                 (B2) (B1) (B1) (A1) (B2) (B1) (A2) (A1) (A2) (B1)
                 (A2) (A1) (B2) (B2) (B2) (A2) (A1) (B1) (A1) (B2)
                 (B2) (A1) (A2) (B1) (B1) (A2) (A1) (B2) (A1) (B1)
                 (B2) (A2) (B2) (A1) (B1) (A2) (A1) (B2) (A1)
 The electronic state is 1-A1.
 Alpha  occ. eigenvalues --  -19.12098 -10.21617 -10.21617 -10.16008 -10.16008
 Alpha  occ. eigenvalues --   -1.03299  -0.77776  -0.72793  -0.62171  -0.60424
 Alpha  occ. eigenvalues --   -0.49807  -0.49092  -0.44453  -0.43472  -0.39863
 Alpha  occ. eigenvalues --   -0.37741  -0.37711  -0.35863  -0.34623  -0.32124
 Alpha  occ. eigenvalues --   -0.26102
 Alpha virt. eigenvalues --    0.01549   0.03083   0.04170   0.05081   0.07425
 Alpha virt. eigenvalues --    0.07432   0.08500   0.09837   0.09859   0.10355
 Alpha virt. eigenvalues --    0.11579   0.14157   0.14971   0.15873   0.17428
 Alpha virt. eigenvalues --    0.18419   0.21857   0.23180   0.23376   0.24418
 Alpha virt. eigenvalues --    0.27738   0.28435   0.29350   0.31689   0.32949
 Alpha virt. eigenvalues --    0.33049   0.35301   0.35374   0.35847   0.36468
 Alpha virt. eigenvalues --    0.36988   0.37690   0.38360   0.38574   0.39093
 Alpha virt. eigenvalues --    0.41587   0.43406   0.46643   0.51684   0.53710
 Alpha virt. eigenvalues --    0.55356   0.55364   0.60800   0.64068   0.73465
 Alpha virt. eigenvalues --    0.76815   0.78904   0.80937   0.81169   0.82366
 Alpha virt. eigenvalues --    0.85496   0.89459   0.90305   0.91419   0.95211
 Alpha virt. eigenvalues --    0.96483   0.98260   0.99351   0.99810   0.99960
 Alpha virt. eigenvalues --    1.00703   1.04255   1.05174   1.06268   1.06417
 Alpha virt. eigenvalues --    1.08471   1.09015   1.10880   1.11732   1.14616
 Alpha virt. eigenvalues --    1.16899   1.20331   1.22891   1.25037   1.25560
 Alpha virt. eigenvalues --    1.26329   1.26881   1.29076   1.31006   1.32799
 Alpha virt. eigenvalues --    1.37755   1.37917   1.39158   1.40468   1.47019
 Alpha virt. eigenvalues --    1.48259   1.48660   1.64376   1.66324   1.67421
 Alpha virt. eigenvalues --    1.68129   1.69706   1.69796   1.71607   1.74739
 Alpha virt. eigenvalues --    1.76697   1.77383   1.80134   1.80966   1.84942
 Alpha virt. eigenvalues --    1.88941   1.89384   1.93773   1.95613   1.98371
 Alpha virt. eigenvalues --    1.99076   1.99345   2.05063   2.09544   2.18454
 Alpha virt. eigenvalues --    2.25255   2.27152   2.30058   2.31722   2.35011
 Alpha virt. eigenvalues --    2.39078   2.44067   2.46314   2.55580   2.59635
 Alpha virt. eigenvalues --    2.60668   2.63504   2.70058   2.72334   2.83232
 Alpha virt. eigenvalues --    3.03468   3.11817   3.13537   3.17304   3.17563
 Alpha virt. eigenvalues --    3.18891   3.26538   3.28384   3.29040   3.30344
 Alpha virt. eigenvalues --    3.32643   3.32716   3.32817   3.33502   3.34859
 Alpha virt. eigenvalues --    3.42842   3.45820   3.46193   3.48498   3.52345
 Alpha virt. eigenvalues --    3.55002   3.60025   3.65120   3.65275   3.74313
 Alpha virt. eigenvalues --    3.75881   3.78233   3.78917   3.79798   3.79807
 Alpha virt. eigenvalues --    3.81808   3.83760   3.85509   3.86395   3.89675
 Alpha virt. eigenvalues --    3.90227   3.92227   3.95666   4.00400   4.00689
 Alpha virt. eigenvalues --    4.01462   4.01911   4.03848   4.05168   4.07149
 Alpha virt. eigenvalues --    4.19009   4.24699   4.25732   4.25821   4.28420
 Alpha virt. eigenvalues --    4.28868   4.31173   4.32978   4.35280   4.35360
 Alpha virt. eigenvalues --    4.37092   4.40078   4.44948   4.45808   4.46574
 Alpha virt. eigenvalues --    4.49107   4.49810   4.51284   4.52603   4.56258
 Alpha virt. eigenvalues --    4.58038   4.59962   4.60860   4.61021   4.61273
 Alpha virt. eigenvalues --    4.63162   4.63863   4.63908   4.64508   4.68734
 Alpha virt. eigenvalues --    4.68796   4.69957   4.70593   4.76247   4.78302
 Alpha virt. eigenvalues --    4.80666   4.85603   4.86266   4.89075   4.90460
 Alpha virt. eigenvalues --    4.94540   4.96371   5.02432   5.03108   5.05258
 Alpha virt. eigenvalues --    5.07404   5.08365   5.09867   5.12473   5.16279
 Alpha virt. eigenvalues --    5.18072   5.19330   5.30632   5.38986   5.40041
 Alpha virt. eigenvalues --    5.40986   5.41983   5.45254   5.49178   5.51719
 Alpha virt. eigenvalues --    5.55538   5.61794   5.62891   5.62981   5.64626
 Alpha virt. eigenvalues --    5.66014   5.67222   5.69197   5.73190   5.73514
 Alpha virt. eigenvalues --    5.74372   5.80494   5.80787   5.85002   5.87487
 Alpha virt. eigenvalues --    5.88385   5.90067   5.92143   5.92931   5.95007
 Alpha virt. eigenvalues --    6.00685   6.00964   6.01963   6.02835   6.06948
 Alpha virt. eigenvalues --    6.11657   6.18643   6.23125   6.23336   6.23402
 Alpha virt. eigenvalues --    6.23584   6.26564   6.40965   6.49067   6.60658
 Alpha virt. eigenvalues --    6.86272   6.91453   7.11645   7.50185
          Condensed to atoms (all electrons):
               1          2          3          4          5          6
     1  O    8.231857   0.259176   0.259176  -0.055195  -0.055195  -0.055432
     2  C    0.259176   4.522865  -0.056459   0.324126   0.010483   0.421690
     3  C    0.259176  -0.056459   4.522865   0.010483   0.324126  -0.010831
     4  C   -0.055195   0.324126   0.010483   4.580266  -0.000633  -0.030088
     5  C   -0.055195   0.010483   0.324126  -0.000633   4.580266   0.000652
     6  H   -0.055432   0.421690  -0.010831  -0.030088   0.000652   0.754002
     7  H   -0.055432   0.421690  -0.010831  -0.030088   0.000652  -0.081508
     8  H   -0.055432  -0.010831   0.421690   0.000652  -0.030088   0.022913
     9  H   -0.055432  -0.010831   0.421690   0.000652  -0.030088  -0.010527
    10  H    0.005911  -0.026866  -0.000536   0.405591   0.000032  -0.002122
    11  H    0.005911  -0.000536  -0.026866   0.000032   0.405591   0.000124
    12  H    0.003772  -0.036995  -0.000627   0.425672  -0.000114   0.014760
    13  H    0.003772  -0.036995  -0.000627   0.425672  -0.000114  -0.017411
    14  H    0.003772  -0.000627  -0.036995  -0.000114   0.425672  -0.001011
    15  H    0.003772  -0.000627  -0.036995  -0.000114   0.425672   0.000644
               7          8          9         10         11         12
     1  O   -0.055432  -0.055432  -0.055432   0.005911   0.005911   0.003772
     2  C    0.421690  -0.010831  -0.010831  -0.026866  -0.000536  -0.036995
     3  C   -0.010831   0.421690   0.421690  -0.000536  -0.026866  -0.000627
     4  C   -0.030088   0.000652   0.000652   0.405591   0.000032   0.425672
     5  C    0.000652  -0.030088  -0.030088   0.000032   0.405591  -0.000114
     6  H   -0.081508   0.022913  -0.010527  -0.002122   0.000124   0.014760
     7  H    0.754002  -0.010527   0.022913  -0.002122   0.000124  -0.017411
     8  H   -0.010527   0.754002  -0.081508   0.000124  -0.002122   0.000644
     9  H    0.022913  -0.081508   0.754002   0.000124  -0.002122  -0.001011
    10  H   -0.002122   0.000124   0.000124   0.660203  -0.000002  -0.027548
    11  H    0.000124  -0.002122  -0.002122  -0.000002   0.660203   0.000009
    12  H   -0.017411   0.000644  -0.001011  -0.027548   0.000009   0.639476
    13  H    0.014760  -0.001011   0.000644  -0.027548   0.000009  -0.028544
    14  H    0.000644  -0.017411   0.014760   0.000009  -0.027548  -0.000150
    15  H   -0.001011   0.014760  -0.017411   0.000009  -0.027548   0.000246
              13         14         15
     1  O    0.003772   0.003772   0.003772
     2  C   -0.036995  -0.000627  -0.000627
     3  C   -0.000627  -0.036995  -0.036995
     4  C    0.425672  -0.000114  -0.000114
     5  C   -0.000114   0.425672   0.425672
     6  H   -0.017411  -0.001011   0.000644
     7  H    0.014760   0.000644  -0.001011
     8  H   -0.001011  -0.017411   0.014760
     9  H    0.000644   0.014760  -0.017411
    10  H   -0.027548   0.000009   0.000009
    11  H    0.000009  -0.027548  -0.027548
    12  H   -0.028544  -0.000150   0.000246
    13  H    0.639476   0.000246  -0.000150
    14  H    0.000246   0.639476  -0.028544
    15  H   -0.000150  -0.028544   0.639476
 Mulliken charges:
               1
     1  O   -0.445000
     2  C    0.220740
     3  C    0.220740
     4  C   -0.056913
     5  C   -0.056913
     6  H   -0.005854
     7  H   -0.005854
     8  H   -0.005854
     9  H   -0.005854
    10  H    0.014739
    11  H    0.014739
    12  H    0.027821
    13  H    0.027821
    14  H    0.027821
    15  H    0.027821
 Sum of Mulliken charges =  -0.00000
 Mulliken charges with hydrogens summed into heavy atoms:
               1
     1  O   -0.445000
     2  C    0.209032
     3  C    0.209032
     4  C    0.013468
     5  C    0.013468
 Electronic spatial extent (au):  <R**2>=            634.0965
 Charge=              0.0000 electrons
 Dipole moment (field-independent basis, Debye):
    X=              0.0000    Y=             -0.0000    Z=             -1.1199  Tot=              1.1199
 Quadrupole moment (field-independent basis, Debye-Ang):
   XX=            -33.3710   YY=            -31.0899   ZZ=            -34.2024
   XY=             -0.0000   XZ=              0.0000   YZ=              0.0000
 Traceless Quadrupole moment (field-independent basis, Debye-Ang):
   XX=             -0.4832   YY=              1.7979   ZZ=             -1.3146
   XY=             -0.0000   XZ=              0.0000   YZ=              0.0000
 Octapole moment (field-independent basis, Debye-Ang**2):
  XXX=              0.0000  YYY=              0.0000  ZZZ=              1.3791  XYY=              0.0000
  XXY=             -0.0000  XXZ=              0.7171  XZZ=              0.0000  YZZ=             -0.0000
  YYZ=             -0.9333  XYZ=             -0.0000
 Hexadecapole moment (field-independent basis, Debye-Ang**3):
 XXXX=            -64.6343 YYYY=           -708.4985 ZZZZ=           -118.1123 XXXY=             -0.0000
 XXXZ=              0.0000 YYYX=             -0.0000 YYYZ=             -0.0000 ZZZX=              0.0000
 ZZZY=             -0.0000 XXYY=           -130.6195 XXZZ=            -27.7360 YYZZ=           -137.4333
 XXYZ=              0.0000 YYXZ=              0.0000 ZZXY=             -0.0000
 N-N= 1.897372800173D+02 E-N=-9.240774475721D+02  KE= 2.328004570864D+02
 Symmetry A1   KE= 1.419567137109D+02
 Symmetry A2   KE= 4.166497308635D+00
 Symmetry B1   KE= 8.593638258853D+00
 Symmetry B2   KE= 7.808360780809D+01
 Calling FoFJK, ICntrl=      2127 FMM=F ISym2X=1 I1Cent= 0 IOpClX= 0 NMat=1 NMatS=1 NMatT=0.
 ***** Axes restored to original set *****
 -------------------------------------------------------------------
 Center     Atomic                   Forces (Hartrees/Bohr)
 Number     Number              X              Y              Z
 -------------------------------------------------------------------
      1        8          -0.000000000   -0.000000000    0.000013549
      2        6          -0.000000000   -0.000011984   -0.000007278
      3        6          -0.000000000    0.000011984   -0.000007278
      4        6          -0.000000000   -0.000018613   -0.000002775
      5        6          -0.000000000    0.000018613   -0.000002775
      6        1           0.000006025   -0.000000359   -0.000002180
      7        1          -0.000006025   -0.000000359   -0.000002180
      8        1           0.000006025    0.000000359   -0.000002180
      9        1          -0.000006025    0.000000359   -0.000002180
     10        1           0.000000000    0.000010219   -0.000003200
     11        1           0.000000000   -0.000010219   -0.000003200
     12        1          -0.000006510    0.000001794    0.000005419
     13        1           0.000006510    0.000001794    0.000005419
     14        1           0.000006510   -0.000001794    0.000005419
     15        1          -0.000006510   -0.000001794    0.000005419
 -------------------------------------------------------------------
 Cartesian Forces:  Max     0.000018613 RMS     0.000006631

 GradGradGradGradGradGradGradGradGradGradGradGradGradGradGradGradGradGrad
 Berny optimization.
 FormGI is forming the generalized inverse of G from B-inverse, IUseBI=4.
 Internal  Forces:  Max     0.000021418 RMS     0.000005570
 Search for a local minimum.
 Step number   1 out of a maximum of   73
 All quantities printed in internal units (Hartrees-Bohrs-Radians)
 Mixed Optimization -- En-DIIS/RFO-DIIS
 Second derivative matrix not updated -- first step.
 ITU=  0
     Eigenvalues ---    0.00571   0.00571   0.01477   0.01477   0.05281
     Eigenvalues ---    0.05281   0.05728   0.05728   0.05761   0.05761
     Eigenvalues ---    0.05918   0.05918   0.11344   0.11344   0.13744
     Eigenvalues ---    0.13744   0.16000   0.16000   0.16000   0.16000
     Eigenvalues ---    0.16000   0.16000   0.21958   0.21958   0.25000
     Eigenvalues ---    0.30880   0.30880   0.33827   0.33827   0.33827
     Eigenvalues ---    0.33827   0.34732   0.34732   0.34833   0.34833
     Eigenvalues ---    0.34833   0.34833   0.43035   0.43035
 RFO step:  Lambda= 0.00000000D+00 EMin= 5.71103957D-03
 Linear search not attempted -- first point.
 Iteration  1 RMS(Cart)=  0.00005952 RMS(Int)=  0.00000000
 Iteration  2 RMS(Cart)=  0.00000000 RMS(Int)=  0.00000000
 ClnCor:  largest displacement from symmetrization is 4.97D-12 for atom    13.
 Variable       Old X    -DE/DX   Delta X   Delta X   Delta X     New X
                                 (Linear)    (Quad)   (Total)
    R1        2.67627  -0.00001   0.00000  -0.00003  -0.00003   2.67624
    R2        2.67627  -0.00001   0.00000  -0.00003  -0.00003   2.67624
    R3        2.86242  -0.00000   0.00000  -0.00000  -0.00000   2.86242
    R4        2.07623   0.00001   0.00000   0.00002   0.00002   2.07625
    R5        2.07623   0.00001   0.00000   0.00002   0.00002   2.07625
    R6        2.86242  -0.00000   0.00000  -0.00000  -0.00000   2.86242
    R7        2.07623   0.00001   0.00000   0.00002   0.00002   2.07625
    R8        2.07623   0.00001   0.00000   0.00002   0.00002   2.07625
    R9        2.06112   0.00001   0.00000   0.00003   0.00003   2.06115
   R10        2.05947   0.00001   0.00000   0.00002   0.00002   2.05950
   R11        2.05947   0.00001   0.00000   0.00002   0.00002   2.05950
   R12        2.06112   0.00001   0.00000   0.00003   0.00003   2.06115
   R13        2.05947   0.00001   0.00000   0.00002   0.00002   2.05950
   R14        2.05947   0.00001   0.00000   0.00002   0.00002   2.05950
    A1        1.98120  -0.00002   0.00000  -0.00009  -0.00009   1.98111
    A2        1.90183  -0.00001   0.00000  -0.00007  -0.00007   1.90176
    A3        1.91641   0.00000   0.00000   0.00001   0.00001   1.91642
    A4        1.91641   0.00000   0.00000   0.00001   0.00001   1.91642
    A5        1.92946   0.00000   0.00000   0.00001   0.00001   1.92948
    A6        1.92946   0.00000   0.00000   0.00001   0.00001   1.92948
    A7        1.87018  -0.00000   0.00000   0.00003   0.00003   1.87021
    A8        1.90183  -0.00001   0.00000  -0.00007  -0.00007   1.90176
    A9        1.91641   0.00000   0.00000   0.00001   0.00001   1.91642
   A10        1.91641   0.00000   0.00000   0.00001   0.00001   1.91642
   A11        1.92946   0.00000   0.00000   0.00001   0.00001   1.92948
   A12        1.92946   0.00000   0.00000   0.00001   0.00001   1.92948
   A13        1.87018  -0.00000   0.00000   0.00003   0.00003   1.87021
   A14        1.92506   0.00000   0.00000   0.00002   0.00002   1.92508
   A15        1.93129   0.00000   0.00000   0.00001   0.00001   1.93130
   A16        1.93129   0.00000   0.00000   0.00001   0.00001   1.93130
   A17        1.89258  -0.00000   0.00000  -0.00002  -0.00002   1.89256
   A18        1.89258  -0.00000   0.00000  -0.00002  -0.00002   1.89256
   A19        1.88992  -0.00000   0.00000  -0.00001  -0.00001   1.88991
   A20        1.92506   0.00000   0.00000   0.00002   0.00002   1.92508
   A21        1.93129   0.00000   0.00000   0.00001   0.00001   1.93130
   A22        1.93129   0.00000   0.00000   0.00001   0.00001   1.93130
   A23        1.89258  -0.00000   0.00000  -0.00002  -0.00002   1.89256
   A24        1.89258  -0.00000   0.00000  -0.00002  -0.00002   1.89256
   A25        1.88992  -0.00000   0.00000  -0.00001  -0.00001   1.88991
    D1        3.14159   0.00000   0.00000   0.00000   0.00000   3.14159
    D2       -1.02599  -0.00000   0.00000  -0.00002  -0.00002  -1.02601
    D3        1.02599   0.00000   0.00000   0.00002   0.00002   1.02601
    D4        3.14159  -0.00000   0.00000  -0.00000   0.00000   3.14159
    D5        1.02599   0.00000   0.00000   0.00002   0.00002   1.02601
    D6       -1.02599  -0.00000   0.00000  -0.00002  -0.00002  -1.02601
    D7        3.14159  -0.00000   0.00000   0.00000   0.00000   3.14159
    D8       -1.04744  -0.00000   0.00000  -0.00000  -0.00000  -1.04744
    D9        1.04744   0.00000   0.00000   0.00000   0.00000   1.04744
   D10        1.03397   0.00000   0.00000   0.00003   0.00003   1.03400
   D11        3.12812   0.00000   0.00000   0.00003   0.00003   3.12815
   D12       -1.06018   0.00000   0.00000   0.00003   0.00003  -1.06015
   D13       -1.03397  -0.00000   0.00000  -0.00003  -0.00003  -1.03400
   D14        1.06018  -0.00000   0.00000  -0.00003  -0.00003   1.06015
   D15       -3.12812  -0.00000   0.00000  -0.00003  -0.00003  -3.12815
   D16        3.14159   0.00000   0.00000  -0.00000   0.00000   3.14159
   D17       -1.04744  -0.00000   0.00000  -0.00000  -0.00000  -1.04744
   D18        1.04744   0.00000   0.00000   0.00000   0.00000   1.04744
   D19       -1.03397  -0.00000   0.00000  -0.00003  -0.00003  -1.03400
   D20        1.06018  -0.00000   0.00000  -0.00003  -0.00003   1.06015
   D21       -3.12812  -0.00000   0.00000  -0.00003  -0.00003  -3.12815
   D22        1.03397   0.00000   0.00000   0.00003   0.00003   1.03400
   D23        3.12812   0.00000   0.00000   0.00003   0.00003   3.12815
   D24       -1.06018   0.00000   0.00000   0.00003   0.00003  -1.06015
         Item               Value     Threshold  Converged?
 Maximum Force            0.000021     0.000450     YES
 RMS     Force            0.000006     0.000300     YES
 Maximum Displacement     0.000150     0.001800     YES
 RMS     Displacement     0.000060     0.001200     YES
 Predicted change in Energy=-3.873870D-09
 Optimization completed.
    -- Stationary point found.
                           ----------------------------
                           !   Optimized Parameters   !
                           ! (Angstroms and Degrees)  !
 --------------------------                            --------------------------
 ! Name  Definition              Value          Derivative Info.                !
 --------------------------------------------------------------------------------
 ! R1    R(1,2)                  1.4162         -DE/DX =    0.0                 !
 ! R2    R(1,3)                  1.4162         -DE/DX =    0.0                 !
 ! R3    R(2,4)                  1.5147         -DE/DX =    0.0                 !
 ! R4    R(2,6)                  1.0987         -DE/DX =    0.0                 !
 ! R5    R(2,7)                  1.0987         -DE/DX =    0.0                 !
 ! R6    R(3,5)                  1.5147         -DE/DX =    0.0                 !
 ! R7    R(3,8)                  1.0987         -DE/DX =    0.0                 !
 ! R8    R(3,9)                  1.0987         -DE/DX =    0.0                 !
 ! R9    R(4,10)                 1.0907         -DE/DX =    0.0                 !
 ! R10   R(4,12)                 1.0898         -DE/DX =    0.0                 !
 ! R11   R(4,13)                 1.0898         -DE/DX =    0.0                 !
 ! R12   R(5,11)                 1.0907         -DE/DX =    0.0                 !
 ! R13   R(5,14)                 1.0898         -DE/DX =    0.0                 !
 ! R14   R(5,15)                 1.0898         -DE/DX =    0.0                 !
 ! A1    A(2,1,3)              113.5142         -DE/DX =    0.0                 !
 ! A2    A(1,2,4)              108.967          -DE/DX =    0.0                 !
 ! A3    A(1,2,6)              109.8023         -DE/DX =    0.0                 !
 ! A4    A(1,2,7)              109.8023         -DE/DX =    0.0                 !
 ! A5    A(4,2,6)              110.5501         -DE/DX =    0.0                 !
 ! A6    A(4,2,7)              110.5501         -DE/DX =    0.0                 !
 ! A7    A(6,2,7)              107.1536         -DE/DX =    0.0                 !
 ! A8    A(1,3,5)              108.967          -DE/DX =    0.0                 !
 ! A9    A(1,3,8)              109.8023         -DE/DX =    0.0                 !
 ! A10   A(1,3,9)              109.8023         -DE/DX =    0.0                 !
 ! A11   A(5,3,8)              110.5501         -DE/DX =    0.0                 !
 ! A12   A(5,3,9)              110.5501         -DE/DX =    0.0                 !
 ! A13   A(8,3,9)              107.1536         -DE/DX =    0.0                 !
 ! A14   A(2,4,10)             110.2981         -DE/DX =    0.0                 !
 ! A15   A(2,4,12)             110.6548         -DE/DX =    0.0                 !
 ! A16   A(2,4,13)             110.6548         -DE/DX =    0.0                 !
 ! A17   A(10,4,12)            108.4367         -DE/DX =    0.0                 !
 ! A18   A(10,4,13)            108.4367         -DE/DX =    0.0                 !
 ! A19   A(12,4,13)            108.2843         -DE/DX =    0.0                 !
 ! A20   A(3,5,11)             110.2981         -DE/DX =    0.0                 !
 ! A21   A(3,5,14)             110.6548         -DE/DX =    0.0                 !
 ! A22   A(3,5,15)             110.6548         -DE/DX =    0.0                 !
 ! A23   A(11,5,14)            108.4367         -DE/DX =    0.0                 !
 ! A24   A(11,5,15)            108.4367         -DE/DX =    0.0                 !
 ! A25   A(14,5,15)            108.2843         -DE/DX =    0.0                 !
 ! D1    D(3,1,2,4)            180.0            -DE/DX =    0.0                 !
 ! D2    D(3,1,2,6)            -58.7846         -DE/DX =    0.0                 !
 ! D3    D(3,1,2,7)             58.7846         -DE/DX =    0.0                 !
 ! D4    D(2,1,3,5)            180.0            -DE/DX =    0.0                 !
 ! D5    D(2,1,3,8)             58.7846         -DE/DX =    0.0                 !
 ! D6    D(2,1,3,9)            -58.7846         -DE/DX =    0.0                 !
 ! D7    D(1,2,4,10)           180.0            -DE/DX =    0.0                 !
 ! D8    D(1,2,4,12)           -60.0139         -DE/DX =    0.0                 !
 ! D9    D(1,2,4,13)            60.0139         -DE/DX =    0.0                 !
 ! D10   D(6,2,4,10)            59.2422         -DE/DX =    0.0                 !
 ! D11   D(6,2,4,12)           179.2283         -DE/DX =    0.0                 !
 ! D12   D(6,2,4,13)           -60.7439         -DE/DX =    0.0                 !
 ! D13   D(7,2,4,10)           -59.2422         -DE/DX =    0.0                 !
 ! D14   D(7,2,4,12)            60.7439         -DE/DX =    0.0                 !
 ! D15   D(7,2,4,13)          -179.2283         -DE/DX =    0.0                 !
 ! D16   D(1,3,5,11)           180.0            -DE/DX =    0.0                 !
 ! D17   D(1,3,5,14)           -60.0139         -DE/DX =    0.0                 !
 ! D18   D(1,3,5,15)            60.0139         -DE/DX =    0.0                 !
 ! D19   D(8,3,5,11)           -59.2422         -DE/DX =    0.0                 !
 ! D20   D(8,3,5,14)            60.7439         -DE/DX =    0.0                 !
 ! D21   D(8,3,5,15)          -179.2283         -DE/DX =    0.0                 !
 ! D22   D(9,3,5,11)            59.2422         -DE/DX =    0.0                 !
 ! D23   D(9,3,5,14)           179.2283         -DE/DX =    0.0                 !
 ! D24   D(9,3,5,15)           -60.7439         -DE/DX =    0.0                 !
 --------------------------------------------------------------------------------
 GradGradGradGradGradGradGradGradGradGradGradGradGradGradGradGradGradGrad

                          Input orientation:                          
 ---------------------------------------------------------------------
 Center     Atomic      Atomic             Coordinates (Angstroms)
 Number     Number       Type             X           Y           Z
 ---------------------------------------------------------------------
      1          8           0        0.000000   -0.000000    0.259454
      2          6           0        0.000000    1.184462   -0.516903
      3          6           0       -0.000000   -1.184462   -0.516903
      4          6           0        0.000000    2.381494    0.411278
      5          6           0       -0.000000   -2.381494    0.411278
      6          1           0        0.884067    1.202078   -1.169008
      7          1           0       -0.884067    1.202078   -1.169008
      8          1           0        0.884067   -1.202078   -1.169008
      9          1           0       -0.884067   -1.202078   -1.169008
     10          1           0        0.000000    3.307346   -0.165280
     11          1           0       -0.000000   -3.307346   -0.165280
     12          1           0       -0.883274    2.372975    1.049615
     13          1           0        0.883274    2.372975    1.049615
     14          1           0        0.883274   -2.372975    1.049615
     15          1           0       -0.883274   -2.372975    1.049615
 ---------------------------------------------------------------------
                    Distance matrix (angstroms):
                    1          2          3          4          5
     1  O    0.000000
     2  C    1.416220   0.000000
     3  C    1.416220   2.368924   0.000000
     4  C    2.386329   1.514730   3.684774   0.000000
     5  C    2.386329   3.684774   1.514730   4.762988   0.000000
     6  H    2.065689   1.098693   2.627240   2.160995   4.015080
     7  H    2.065689   1.098693   2.627240   2.160995   4.015080
     8  H    2.065689   2.627240   1.098693   4.015080   2.160995
     9  H    2.065689   2.627240   1.098693   4.015080   2.160995
    10  H    3.334507   2.151807   4.505550   1.090698   5.717982
    11  H    3.334507   4.505550   2.151807   5.717982   1.090698
    12  H    2.652459   2.155624   3.986165   1.089826   4.877768
    13  H    2.652459   2.155624   3.986165   1.089826   4.877768
    14  H    2.652459   3.986165   2.155624   4.877768   1.089826
    15  H    2.652459   3.986165   2.155624   4.877768   1.089826
                    6          7          8          9         10
     6  H    0.000000
     7  H    1.768134   0.000000
     8  H    2.404156   2.984336   0.000000
     9  H    2.984336   2.404156   1.768134   0.000000
    10  H    2.494233   2.494233   4.703610   4.703610   0.000000
    11  H    4.703610   4.703610   2.494233   2.494233   6.614692
    12  H    3.068678   2.508643   4.563637   4.207528   1.768952
    13  H    2.508643   3.068678   4.207528   4.563637   1.768952
    14  H    4.207528   4.563637   2.508643   3.068678   5.875559
    15  H    4.563637   4.207528   3.068678   2.508643   5.875559
                   11         12         13         14         15
    11  H    0.000000
    12  H    5.875559   0.000000
    13  H    5.875559   1.766548   0.000000
    14  H    1.768952   5.064063   4.745950   0.000000
    15  H    1.768952   4.745950   5.064063   1.766548   0.000000
 Stoichiometry    C4H10O
 Framework group  C2V[C2(O),SGV(C4H2),X(H8)]
 Deg. of freedom    12
 Full point group                 C2V     NOp   4
 Largest Abelian subgroup         C2V     NOp   4
 Largest concise Abelian subgroup C2V     NOp   4
                         Standard orientation:                         
 ---------------------------------------------------------------------
 Center     Atomic      Atomic             Coordinates (Angstroms)
 Number     Number       Type             X           Y           Z
 ---------------------------------------------------------------------
      1          8           0        0.000000    0.000000    0.259454
      2          6           0       -0.000000    1.184462   -0.516903
      3          6           0       -0.000000   -1.184462   -0.516903
      4          6           0        0.000000    2.381494    0.411278
      5          6           0       -0.000000   -2.381494    0.411278
      6          1           0        0.884067    1.202078   -1.169008
      7          1           0       -0.884067    1.202078   -1.169008
      8          1           0        0.884067   -1.202078   -1.169008
      9          1           0       -0.884067   -1.202078   -1.169008
     10          1           0       -0.000000    3.307346   -0.165280
     11          1           0       -0.000000   -3.307346   -0.165280
     12          1           0       -0.883274    2.372975    1.049615
     13          1           0        0.883274    2.372975    1.049615
     14          1           0        0.883274   -2.372975    1.049615
     15          1           0       -0.883274   -2.372975    1.049615
 ---------------------------------------------------------------------
 Rotational constants (GHZ):          18.1520257           2.2297108           2.0891504
 1\1\GINC-GAMBA\FOpt\RB3LYP\Gen\C4H10O1\IRIKURA\01-Oct-2023\0\\# b3lyp/
 gen opt freq CPHF(Grid=OneStep)\\diethyl ether, B3LYP/pcseg-2\\0,1\O,0
 .,0.,0.259454\C,0.,1.184462,-0.516903\C,0.,-1.184462,-0.516903\C,0.,2.
 381494,0.411278\C,0.,-2.381494,0.411278\H,0.884067,1.202078,-1.169008\
 H,-0.884067,1.202078,-1.169008\H,0.884067,-1.202078,-1.169008\H,-0.884
 067,-1.202078,-1.169008\H,0.,3.307346,-0.16528\H,0.,-3.307346,-0.16528
 \H,-0.883274,2.372975,1.049615\H,0.883274,2.372975,1.049615\H,0.883274
 ,-2.372975,1.049615\H,-0.883274,-2.372975,1.049615\\Version=ES64L-G16R
 evB.01\State=1-A1\HF=-233.7648078\RMSD=7.318e-09\RMSF=6.631e-06\Dipole
 =0.,0.,-0.4405902\Quadrupole=-0.3592814,1.3366888,-0.9774074,0.,0.,0.\
 PG=C02V [C2(O1),SGV(C4H2),X(H8)]\\@


 IT IS THE GODS' CUSTOM TO BRING LOW ALL THINGS OF SURPASSING GREATNESS.
     -- HERODOTUS
 IT IS THE LOFTY PINE THAT BY THE STORM IS OFTENER TOSSED;
 TOWERS FALL WITH HEAVIER CRASH WHICH HIGHER SOAR.
     -- HORACE
 THE BIGGER THEY COME, THE HARDER THEY FALL.
     -- BOB FITZSIMONS HEAVYWEIGHT CHAMPION, 1897-1899
 Job cpu time:       0 days  0 hours  2 minutes  7.8 seconds.
 Elapsed time:       0 days  0 hours  0 minutes 32.0 seconds.
 File lengths (MBytes):  RWF=     52 Int=      0 D2E=      0 Chk=      7 Scr=      1
 Normal termination of Gaussian 16 at Sun Oct  1 05:47:04 2023.
 Link1:  Proceeding to internal job step number  2.
 ------------------------------------------------------------------
 #N Geom=AllCheck Guess=TCheck SCRF=Check GenChk RB3LYP/ChkBas Freq
 ------------------------------------------------------------------
 1/10=4,29=7,30=1,38=1,40=1/1,3;
 2/12=2,40=1/2;
 3/5=7,6=2,11=2,14=-4,25=1,30=1,67=1,70=2,71=2,74=-5,82=7,116=1,140=1/1,2,3;
 4/5=101/1;
 5/5=2,38=6,98=1/2;
 8/6=4,10=90,11=11/1;
 11/6=1,8=1,9=11,15=111,16=1/1,2,10;
 10/6=1,60=-420/2;
 6/7=2,8=2,9=2,10=2,28=1/1;
 7/8=1,10=1,25=1/1,2,3,16;
 1/10=4,30=1/3;
 99//99;
 Structure from the checkpoint file:  "et2o.chk"
 ----------------------------
 diethyl ether, B3LYP/pcseg-2
 ----------------------------
 Charge =  0 Multiplicity = 1
 Redundant internal coordinates found in file.  (old form).
 O,0,0.,0.,0.259454
 C,0,0.,1.184462,-0.516903
 C,0,0.,-1.184462,-0.516903
 C,0,0.,2.381494,0.411278
 C,0,0.,-2.381494,0.411278
 H,0,0.884067,1.202078,-1.169008
 H,0,-0.884067,1.202078,-1.169008
 H,0,0.884067,-1.202078,-1.169008
 H,0,-0.884067,-1.202078,-1.169008
 H,0,0.,3.307346,-0.16528
 H,0,0.,-3.307346,-0.16528
 H,0,-0.883274,2.372975,1.049615
 H,0,0.883274,2.372975,1.049615
 H,0,0.883274,-2.372975,1.049615
 H,0,-0.883274,-2.372975,1.049615
 Recover connectivity data from disk.

 GradGradGradGradGradGradGradGradGradGradGradGradGradGradGradGradGradGrad
 Berny optimization.
 Initialization pass.
                           ----------------------------
                           !    Initial Parameters    !
                           ! (Angstroms and Degrees)  !
 --------------------------                            --------------------------
 ! Name  Definition              Value          Derivative Info.                !
 --------------------------------------------------------------------------------
 ! R1    R(1,2)                  1.4162         calculate D2E/DX2 analytically  !
 ! R2    R(1,3)                  1.4162         calculate D2E/DX2 analytically  !
 ! R3    R(2,4)                  1.5147         calculate D2E/DX2 analytically  !
 ! R4    R(2,6)                  1.0987         calculate D2E/DX2 analytically  !
 ! R5    R(2,7)                  1.0987         calculate D2E/DX2 analytically  !
 ! R6    R(3,5)                  1.5147         calculate D2E/DX2 analytically  !
 ! R7    R(3,8)                  1.0987         calculate D2E/DX2 analytically  !
 ! R8    R(3,9)                  1.0987         calculate D2E/DX2 analytically  !
 ! R9    R(4,10)                 1.0907         calculate D2E/DX2 analytically  !
 ! R10   R(4,12)                 1.0898         calculate D2E/DX2 analytically  !
 ! R11   R(4,13)                 1.0898         calculate D2E/DX2 analytically  !
 ! R12   R(5,11)                 1.0907         calculate D2E/DX2 analytically  !
 ! R13   R(5,14)                 1.0898         calculate D2E/DX2 analytically  !
 ! R14   R(5,15)                 1.0898         calculate D2E/DX2 analytically  !
 ! A1    A(2,1,3)              113.5142         calculate D2E/DX2 analytically  !
 ! A2    A(1,2,4)              108.967          calculate D2E/DX2 analytically  !
 ! A3    A(1,2,6)              109.8023         calculate D2E/DX2 analytically  !
 ! A4    A(1,2,7)              109.8023         calculate D2E/DX2 analytically  !
 ! A5    A(4,2,6)              110.5501         calculate D2E/DX2 analytically  !
 ! A6    A(4,2,7)              110.5501         calculate D2E/DX2 analytically  !
 ! A7    A(6,2,7)              107.1536         calculate D2E/DX2 analytically  !
 ! A8    A(1,3,5)              108.967          calculate D2E/DX2 analytically  !
 ! A9    A(1,3,8)              109.8023         calculate D2E/DX2 analytically  !
 ! A10   A(1,3,9)              109.8023         calculate D2E/DX2 analytically  !
 ! A11   A(5,3,8)              110.5501         calculate D2E/DX2 analytically  !
 ! A12   A(5,3,9)              110.5501         calculate D2E/DX2 analytically  !
 ! A13   A(8,3,9)              107.1536         calculate D2E/DX2 analytically  !
 ! A14   A(2,4,10)             110.2981         calculate D2E/DX2 analytically  !
 ! A15   A(2,4,12)             110.6548         calculate D2E/DX2 analytically  !
 ! A16   A(2,4,13)             110.6548         calculate D2E/DX2 analytically  !
 ! A17   A(10,4,12)            108.4367         calculate D2E/DX2 analytically  !
 ! A18   A(10,4,13)            108.4367         calculate D2E/DX2 analytically  !
 ! A19   A(12,4,13)            108.2843         calculate D2E/DX2 analytically  !
 ! A20   A(3,5,11)             110.2981         calculate D2E/DX2 analytically  !
 ! A21   A(3,5,14)             110.6548         calculate D2E/DX2 analytically  !
 ! A22   A(3,5,15)             110.6548         calculate D2E/DX2 analytically  !
 ! A23   A(11,5,14)            108.4367         calculate D2E/DX2 analytically  !
 ! A24   A(11,5,15)            108.4367         calculate D2E/DX2 analytically  !
 ! A25   A(14,5,15)            108.2843         calculate D2E/DX2 analytically  !
 ! D1    D(3,1,2,4)            180.0            calculate D2E/DX2 analytically  !
 ! D2    D(3,1,2,6)            -58.7846         calculate D2E/DX2 analytically  !
 ! D3    D(3,1,2,7)             58.7846         calculate D2E/DX2 analytically  !
 ! D4    D(2,1,3,5)            180.0            calculate D2E/DX2 analytically  !
 ! D5    D(2,1,3,8)             58.7846         calculate D2E/DX2 analytically  !
 ! D6    D(2,1,3,9)            -58.7846         calculate D2E/DX2 analytically  !
 ! D7    D(1,2,4,10)           180.0            calculate D2E/DX2 analytically  !
 ! D8    D(1,2,4,12)           -60.0139         calculate D2E/DX2 analytically  !
 ! D9    D(1,2,4,13)            60.0139         calculate D2E/DX2 analytically  !
 ! D10   D(6,2,4,10)            59.2422         calculate D2E/DX2 analytically  !
 ! D11   D(6,2,4,12)           179.2283         calculate D2E/DX2 analytically  !
 ! D12   D(6,2,4,13)           -60.7439         calculate D2E/DX2 analytically  !
 ! D13   D(7,2,4,10)           -59.2422         calculate D2E/DX2 analytically  !
 ! D14   D(7,2,4,12)            60.7439         calculate D2E/DX2 analytically  !
 ! D15   D(7,2,4,13)          -179.2283         calculate D2E/DX2 analytically  !
 ! D16   D(1,3,5,11)           180.0            calculate D2E/DX2 analytically  !
 ! D17   D(1,3,5,14)           -60.0139         calculate D2E/DX2 analytically  !
 ! D18   D(1,3,5,15)            60.0139         calculate D2E/DX2 analytically  !
 ! D19   D(8,3,5,11)           -59.2422         calculate D2E/DX2 analytically  !
 ! D20   D(8,3,5,14)            60.7439         calculate D2E/DX2 analytically  !
 ! D21   D(8,3,5,15)          -179.2283         calculate D2E/DX2 analytically  !
 ! D22   D(9,3,5,11)            59.2422         calculate D2E/DX2 analytically  !
 ! D23   D(9,3,5,14)           179.2283         calculate D2E/DX2 analytically  !
 ! D24   D(9,3,5,15)           -60.7439         calculate D2E/DX2 analytically  !
 --------------------------------------------------------------------------------
 Trust Radius=3.00D-01 FncErr=1.00D-07 GrdErr=1.00D-07 EigMax=2.50D+02 EigMin=1.00D-04
 Number of steps in this run=      2 maximum allowed number of steps=      2.
 GradGradGradGradGradGradGradGradGradGradGradGradGradGradGradGradGradGrad

                          Input orientation:                          
 ---------------------------------------------------------------------
 Center     Atomic      Atomic             Coordinates (Angstroms)
 Number     Number       Type             X           Y           Z
 ---------------------------------------------------------------------
      1          8           0       -0.000000   -0.000000    0.259454
      2          6           0        0.000000    1.184462   -0.516903
      3          6           0       -0.000000   -1.184462   -0.516903
      4          6           0        0.000000    2.381494    0.411278
      5          6           0       -0.000000   -2.381494    0.411278
      6          1           0        0.884067    1.202078   -1.169008
      7          1           0       -0.884067    1.202078   -1.169008
      8          1           0        0.884067   -1.202078   -1.169008
      9          1           0       -0.884067   -1.202078   -1.169008
     10          1           0        0.000000    3.307346   -0.165280
     11          1           0       -0.000000   -3.307346   -0.165280
     12          1           0       -0.883274    2.372975    1.049615
     13          1           0        0.883274    2.372975    1.049615
     14          1           0        0.883274   -2.372975    1.049615
     15          1           0       -0.883274   -2.372975    1.049615
 ---------------------------------------------------------------------
                    Distance matrix (angstroms):
                    1          2          3          4          5
     1  O    0.000000
     2  C    1.416220   0.000000
     3  C    1.416220   2.368924   0.000000
     4  C    2.386329   1.514730   3.684774   0.000000
     5  C    2.386329   3.684774   1.514730   4.762988   0.000000
     6  H    2.065689   1.098693   2.627240   2.160995   4.015080
     7  H    2.065689   1.098693   2.627240   2.160995   4.015080
     8  H    2.065689   2.627240   1.098693   4.015080   2.160995
     9  H    2.065689   2.627240   1.098693   4.015080   2.160995
    10  H    3.334507   2.151807   4.505550   1.090698   5.717982
    11  H    3.334507   4.505550   2.151807   5.717982   1.090698
    12  H    2.652459   2.155624   3.986165   1.089826   4.877768
    13  H    2.652459   2.155624   3.986165   1.089826   4.877768
    14  H    2.652459   3.986165   2.155624   4.877768   1.089826
    15  H    2.652459   3.986165   2.155624   4.877768   1.089826
                    6          7          8          9         10
     6  H    0.000000
     7  H    1.768134   0.000000
     8  H    2.404156   2.984336   0.000000
     9  H    2.984336   2.404156   1.768134   0.000000
    10  H    2.494233   2.494233   4.703610   4.703610   0.000000
    11  H    4.703610   4.703610   2.494233   2.494233   6.614692
[...]
 Alpha virt. eigenvalues --    5.33170   5.33541   5.40829   5.47636   5.59389
 Alpha virt. eigenvalues --    5.59736   5.62228   5.69408   5.72915   5.87336
 Alpha virt. eigenvalues --    5.95510   5.95810   6.00085   6.00872   6.01262
 Alpha virt. eigenvalues --    6.02515   6.03516   6.03634   6.07680   6.11667
 Alpha virt. eigenvalues --    6.17573   6.19001   6.21694   6.22595   6.23385
 Alpha virt. eigenvalues --    6.24381   6.25116   6.29188   6.30451   6.30616
 Alpha virt. eigenvalues --    6.31769   6.34437   6.37192   6.43776   6.44228
 Alpha virt. eigenvalues --    6.51887   6.53018   6.53594   6.54146   6.62375
 Alpha virt. eigenvalues --    6.68093   6.83474   6.86514   6.97064   7.08750
 Alpha virt. eigenvalues --    7.09833   7.12165   7.18088   7.19772   7.20130
 Alpha virt. eigenvalues --    7.24130   7.25381   7.25670   7.28253   7.28529
 Alpha virt. eigenvalues --    7.32808   7.55731   7.58436   7.71217   7.99167
 Alpha virt. eigenvalues --    8.08910   8.30359   8.32257   8.35846   8.38354
 Alpha virt. eigenvalues --    8.46153   8.49790   8.50669   8.54900   8.73864
 Alpha virt. eigenvalues --    8.80227   8.80387   8.82518   8.86152   8.90391
 Alpha virt. eigenvalues --    8.96496   8.99514   9.21840   9.38273   9.45746
 Alpha virt. eigenvalues --    9.53441   9.54983   9.59182   9.71989   9.73780
 Alpha virt. eigenvalues --    9.74355   9.78584   9.83019   9.83176   9.84287
 Alpha virt. eigenvalues --    9.86668  10.39785  10.68418  11.22021  11.62912
 Alpha virt. eigenvalues --   11.63185  11.83498  12.29888  12.66977  21.45448
 Alpha virt. eigenvalues --   21.51644  21.52394  21.60927  21.63375  21.63447
 Alpha virt. eigenvalues --   21.64408  21.64680  21.73806  21.91878  22.01204
 Alpha virt. eigenvalues --   22.13690  22.96032  23.09931  23.50087  23.55948
 Alpha virt. eigenvalues --   37.88820  38.12470  38.62884  43.56129
          Condensed to atoms (all electrons):
               1          2          3          4          5          6
     1  O    8.651234   0.134761   0.134761  -0.097085  -0.097085  -0.043983
     2  C    0.134761   4.638489  -0.023599   0.380495   0.000645   0.435360
     3  C    0.134761  -0.023599   4.638489   0.000645   0.380495  -0.005106
     4  C   -0.097085   0.380495   0.000645   4.817824  -0.001068  -0.039896
     5  C   -0.097085   0.000645   0.380495  -0.001068   4.817824  -0.000263
     6  H   -0.043983   0.435360  -0.005106  -0.039896  -0.000263   0.636136
     7  H   -0.043983   0.435360  -0.005106  -0.039896  -0.000263  -0.057987
     8  H   -0.043983  -0.005106   0.435360  -0.000263  -0.039896   0.009275
     9  H   -0.043983  -0.005106   0.435360  -0.000263  -0.039896  -0.003136
    10  H    0.021513  -0.040675   0.003159   0.431425   0.000123  -0.006601
    11  H    0.021513   0.003159  -0.040675   0.000123   0.431425  -0.000000
    12  H   -0.012001  -0.017213  -0.003832   0.408695   0.000094   0.008389
    13  H   -0.012001  -0.017213  -0.003832   0.408695   0.000094  -0.011501
    14  H   -0.012001  -0.003832  -0.017213   0.000094   0.408695   0.000141
    15  H   -0.012001  -0.003832  -0.017213   0.000094   0.408695  -0.000043
               7          8          9         10         11         12
     1  O   -0.043983  -0.043983  -0.043983   0.021513   0.021513  -0.012001
     2  C    0.435360  -0.005106  -0.005106  -0.040675   0.003159  -0.017213
     3  C   -0.005106   0.435360   0.435360   0.003159  -0.040675  -0.003832
     4  C   -0.039896  -0.000263  -0.000263   0.431425   0.000123   0.408695
     5  C   -0.000263  -0.039896  -0.039896   0.000123   0.431425   0.000094
     6  H   -0.057987   0.009275  -0.003136  -0.006601  -0.000000   0.008389
     7  H    0.636136  -0.003136   0.009275  -0.006601  -0.000000  -0.011501
     8  H   -0.003136   0.636136  -0.057987  -0.000000  -0.006601  -0.000043
     9  H    0.009275  -0.057987   0.636136  -0.000000  -0.006601   0.000141
    10  H   -0.006601  -0.000000  -0.000000   0.562316  -0.000001  -0.030771
    11  H   -0.000000  -0.006601  -0.006601  -0.000001   0.562316   0.000003
    12  H   -0.011501  -0.000043   0.000141  -0.030771   0.000003   0.596696
    13  H    0.008389   0.000141  -0.000043  -0.030771   0.000003  -0.038037
    14  H   -0.000043  -0.011501   0.008389   0.000003  -0.030771  -0.000008
    15  H    0.000141   0.008389  -0.011501   0.000003  -0.030771  -0.000032
              13         14         15
     1  O   -0.012001  -0.012001  -0.012001
     2  C   -0.017213  -0.003832  -0.003832
     3  C   -0.003832  -0.017213  -0.017213
     4  C    0.408695   0.000094   0.000094
     5  C    0.000094   0.408695   0.408695
     6  H   -0.011501   0.000141  -0.000043
     7  H    0.008389  -0.000043   0.000141
     8  H    0.000141  -0.011501   0.008389
     9  H   -0.000043   0.008389  -0.011501
    10  H   -0.030771   0.000003   0.000003
    11  H    0.000003  -0.030771  -0.030771
    12  H   -0.038037  -0.000008  -0.000032
    13  H    0.596696  -0.000032  -0.000008
    14  H   -0.000032   0.596696  -0.038037
    15  H   -0.000008  -0.038037   0.596696
          Atomic-Atomic Spin Densities.
               1          2          3          4          5          6
     1  O    0.000000   0.000000   0.000000   0.000000   0.000000   0.000000
     2  C    0.000000   0.000000   0.000000   0.000000   0.000000   0.000000
     3  C    0.000000   0.000000   0.000000   0.000000   0.000000   0.000000
     4  C    0.000000   0.000000   0.000000   0.000000   0.000000   0.000000
     5  C    0.000000   0.000000   0.000000   0.000000   0.000000   0.000000
     6  H    0.000000   0.000000   0.000000   0.000000   0.000000   0.000000
     7  H    0.000000   0.000000   0.000000   0.000000   0.000000   0.000000
     8  H    0.000000   0.000000   0.000000   0.000000   0.000000   0.000000
     9  H    0.000000   0.000000   0.000000   0.000000   0.000000   0.000000
    10  H    0.000000   0.000000   0.000000   0.000000   0.000000   0.000000
    11  H    0.000000   0.000000   0.000000   0.000000   0.000000   0.000000
    12  H    0.000000   0.000000   0.000000   0.000000   0.000000   0.000000
    13  H    0.000000   0.000000   0.000000   0.000000   0.000000   0.000000
    14  H    0.000000   0.000000   0.000000   0.000000   0.000000   0.000000
    15  H    0.000000   0.000000   0.000000   0.000000   0.000000   0.000000
               7          8          9         10         11         12
     1  O    0.000000   0.000000   0.000000   0.000000   0.000000   0.000000
     2  C    0.000000   0.000000   0.000000   0.000000   0.000000   0.000000
     3  C    0.000000   0.000000   0.000000   0.000000   0.000000   0.000000
     4  C    0.000000   0.000000   0.000000   0.000000   0.000000   0.000000
     5  C    0.000000   0.000000   0.000000   0.000000   0.000000   0.000000
     6  H    0.000000   0.000000   0.000000   0.000000   0.000000   0.000000
     7  H    0.000000   0.000000   0.000000   0.000000   0.000000   0.000000
     8  H    0.000000   0.000000   0.000000   0.000000   0.000000   0.000000
     9  H    0.000000   0.000000   0.000000   0.000000   0.000000   0.000000
    10  H    0.000000   0.000000   0.000000   0.000000   0.000000   0.000000
    11  H    0.000000   0.000000   0.000000   0.000000   0.000000   0.000000
    12  H    0.000000   0.000000   0.000000   0.000000   0.000000   0.000000
    13  H    0.000000   0.000000   0.000000   0.000000   0.000000   0.000000
    14  H    0.000000   0.000000   0.000000   0.000000   0.000000   0.000000
    15  H    0.000000   0.000000   0.000000   0.000000   0.000000   0.000000
              13         14         15
     1  O    0.000000   0.000000   0.000000
     2  C    0.000000   0.000000   0.000000
     3  C    0.000000   0.000000   0.000000
     4  C    0.000000   0.000000   0.000000
     5  C    0.000000   0.000000   0.000000
     6  H    0.000000   0.000000   0.000000
     7  H    0.000000   0.000000   0.000000
     8  H    0.000000   0.000000   0.000000
     9  H    0.000000   0.000000   0.000000
    10  H    0.000000   0.000000   0.000000
    11  H    0.000000   0.000000   0.000000
    12  H    0.000000   0.000000   0.000000
    13  H    0.000000   0.000000   0.000000
    14  H    0.000000   0.000000   0.000000
    15  H    0.000000   0.000000   0.000000
 Mulliken charges and spin densities:
               1          2
     1  O   -0.545673   0.000000
     2  C    0.088307   0.000000
     3  C    0.088307   0.000000
     4  C   -0.269618   0.000000
     5  C   -0.269618   0.000000
     6  H    0.079216   0.000000
     7  H    0.079216   0.000000
     8  H    0.079216   0.000000
     9  H    0.079216   0.000000
    10  H    0.096876   0.000000
    11  H    0.096876   0.000000
    12  H    0.099420   0.000000
    13  H    0.099420   0.000000
    14  H    0.099420   0.000000
    15  H    0.099420   0.000000
 Sum of Mulliken charges =  -0.00000   0.00000
 Mulliken charges and spin densities with hydrogens summed into heavy atoms:
               1          2
     1  O   -0.545673   0.000000
     2  C    0.246740   0.000000
     3  C    0.246740   0.000000
     4  C    0.026097   0.000000
     5  C    0.026097   0.000000
 Electronic spatial extent (au):  <R**2>=            633.3714
 Charge=              0.0000 electrons
 Dipole moment (field-independent basis, Debye):
    X=             -0.0000    Y=             -0.0000    Z=             -1.2763  Tot=              1.2763
 Quadrupole moment (field-independent basis, Debye-Ang):
   XX=            -32.9747   YY=            -30.9303   ZZ=            -33.7831
   XY=              0.0000   XZ=             -0.0000   YZ=              0.0000
 Traceless Quadrupole moment (field-independent basis, Debye-Ang):
   XX=             -0.4120   YY=              1.6324   ZZ=             -1.2204
   XY=              0.0000   XZ=             -0.0000   YZ=              0.0000
 Octapole moment (field-independent basis, Debye-Ang**2):
  XXX=              0.0000  YYY=             -0.0000  ZZZ=              0.9906  XYY=              0.0000
  XXY=              0.0000  XXZ=              0.4492  XZZ=              0.0000  YZZ=              0.0000
  YYZ=             -1.2103  XYZ=             -0.0000
 Hexadecapole moment (field-independent basis, Debye-Ang**3):
 XXXX=            -60.9932 YYYY=           -703.5850 ZZZZ=           -113.5844 XXXY=             -0.0000
 XXXZ=              0.0000 YYYX=             -0.0000 YYYZ=             -0.0000 ZZZX=             -0.0000
 ZZZY=             -0.0000 XXYY=           -128.6117 XXZZ=            -26.0194 YYZZ=           -135.1789
 XXYZ=              0.0000 YYXZ=              0.0000 ZZXY=             -0.0000
 N-N= 1.897372800173D+02 E-N=-9.228478298825D+02  KE= 2.320130841621D+02
 Symmetry A1   KE= 1.417232536803D+02
 Symmetry A2   KE= 4.036119242315D+00
 Symmetry B1   KE= 8.452814364115D+00
 Symmetry B2   KE= 7.780089687534D+01
 Symmetry A1   SP= 0.000000000000D+00
 Symmetry A2   SP= 0.000000000000D+00
 Symmetry B1   SP= 0.000000000000D+00
 Symmetry B2   SP= 0.000000000000D+00
                          Isotropic Fermi Contact Couplings
        Atom                 a.u.       MegaHertz       Gauss      10(-4) cm-1
     1  O(17)              0.00000      -0.00000      -0.00000      -0.00000
     2  C(13)              0.00000       0.00000       0.00000       0.00000
     3  C(13)              0.00000       0.00000       0.00000       0.00000
     4  C(13)              0.00000       0.00000       0.00000       0.00000
     5  C(13)              0.00000       0.00000       0.00000       0.00000
     6  H(1)               0.00000       0.00000       0.00000       0.00000
     7  H(1)               0.00000       0.00000       0.00000       0.00000
     8  H(1)               0.00000       0.00000       0.00000       0.00000
     9  H(1)               0.00000       0.00000       0.00000       0.00000
    10  H(1)               0.00000       0.00000       0.00000       0.00000
    11  H(1)               0.00000       0.00000       0.00000       0.00000
    12  H(1)               0.00000       0.00000       0.00000       0.00000
    13  H(1)               0.00000       0.00000       0.00000       0.00000
    14  H(1)               0.00000       0.00000       0.00000       0.00000
    15  H(1)               0.00000       0.00000       0.00000       0.00000
 --------------------------------------------------------
       Center         ----  Spin Dipole Couplings  ----
                      3XX-RR        3YY-RR        3ZZ-RR
 --------------------------------------------------------
     1   Atom        0.000000      0.000000      0.000000
     2   Atom        0.000000      0.000000      0.000000
     3   Atom        0.000000      0.000000      0.000000
     4   Atom        0.000000      0.000000      0.000000
     5   Atom        0.000000      0.000000      0.000000
     6   Atom        0.000000      0.000000      0.000000
     7   Atom        0.000000      0.000000      0.000000
     8   Atom        0.000000      0.000000      0.000000
     9   Atom        0.000000      0.000000      0.000000
    10   Atom        0.000000      0.000000      0.000000
    11   Atom        0.000000      0.000000      0.000000
    12   Atom        0.000000      0.000000      0.000000
    13   Atom        0.000000      0.000000      0.000000
    14   Atom        0.000000      0.000000      0.000000
    15   Atom        0.000000      0.000000      0.000000
 --------------------------------------------------------
                        XY            XZ            YZ
 --------------------------------------------------------
     1   Atom        0.000000      0.000000      0.000000
     2   Atom        0.000000      0.000000      0.000000
     3   Atom        0.000000      0.000000      0.000000
     4   Atom        0.000000      0.000000      0.000000
     5   Atom        0.000000      0.000000      0.000000
     6   Atom        0.000000      0.000000      0.000000
     7   Atom        0.000000      0.000000      0.000000
     8   Atom        0.000000      0.000000      0.000000
     9   Atom        0.000000      0.000000      0.000000
    10   Atom        0.000000      0.000000      0.000000
    11   Atom        0.000000      0.000000      0.000000
    12   Atom        0.000000      0.000000      0.000000
    13   Atom        0.000000      0.000000      0.000000
    14   Atom        0.000000      0.000000      0.000000
    15   Atom        0.000000      0.000000      0.000000
 --------------------------------------------------------


 ---------------------------------------------------------------------------------
              Anisotropic Spin Dipole Couplings in Principal Axis System
 ---------------------------------------------------------------------------------

       Atom             a.u.   MegaHertz   Gauss  10(-4) cm-1        Axes

              Baa     0.0000    -0.000    -0.000    -0.000  1.0000  0.0000  0.0000
     1 O(17)  Bbb     0.0000    -0.000    -0.000    -0.000 -0.0000  1.0000  0.0000
              Bcc     0.0000    -0.000    -0.000    -0.000  0.0000  0.0000  1.0000
 
              Baa     0.0000     0.000     0.000     0.000  1.0000  0.0000  0.0000
     2 C(13)  Bbb     0.0000     0.000     0.000     0.000 -0.0000  1.0000  0.0000
              Bcc     0.0000     0.000     0.000     0.000  0.0000  0.0000  1.0000
 
              Baa     0.0000     0.000     0.000     0.000  1.0000  0.0000  0.0000
     3 C(13)  Bbb     0.0000     0.000     0.000     0.000 -0.0000  1.0000  0.0000
              Bcc     0.0000     0.000     0.000     0.000  0.0000  0.0000  1.0000
 
              Baa     0.0000     0.000     0.000     0.000  1.0000  0.0000  0.0000
     4 C(13)  Bbb     0.0000     0.000     0.000     0.000 -0.0000  1.0000  0.0000
              Bcc     0.0000     0.000     0.000     0.000  0.0000  0.0000  1.0000
 
              Baa     0.0000     0.000     0.000     0.000  1.0000  0.0000  0.0000
     5 C(13)  Bbb     0.0000     0.000     0.000     0.000 -0.0000  1.0000  0.0000
              Bcc     0.0000     0.000     0.000     0.000  0.0000  0.0000  1.0000
 
              Baa     0.0000     0.000     0.000     0.000  1.0000  0.0000  0.0000
     6 H(1)   Bbb     0.0000     0.000     0.000     0.000 -0.0000  1.0000  0.0000
              Bcc     0.0000     0.000     0.000     0.000  0.0000  0.0000  1.0000
 
              Baa     0.0000     0.000     0.000     0.000  1.0000  0.0000  0.0000
     7 H(1)   Bbb     0.0000     0.000     0.000     0.000 -0.0000  1.0000  0.0000
              Bcc     0.0000     0.000     0.000     0.000  0.0000  0.0000  1.0000
 
              Baa     0.0000     0.000     0.000     0.000  1.0000  0.0000  0.0000
     8 H(1)   Bbb     0.0000     0.000     0.000     0.000 -0.0000  1.0000  0.0000
              Bcc     0.0000     0.000     0.000     0.000  0.0000  0.0000  1.0000
 
              Baa     0.0000     0.000     0.000     0.000  1.0000  0.0000  0.0000
     9 H(1)   Bbb     0.0000     0.000     0.000     0.000 -0.0000  1.0000  0.0000
              Bcc     0.0000     0.000     0.000     0.000  0.0000  0.0000  1.0000
 
              Baa     0.0000     0.000     0.000     0.000  1.0000  0.0000  0.0000
    10 H(1)   Bbb     0.0000     0.000     0.000     0.000 -0.0000  1.0000  0.0000
              Bcc     0.0000     0.000     0.000     0.000  0.0000  0.0000  1.0000
 
              Baa     0.0000     0.000     0.000     0.000  1.0000  0.0000  0.0000
    11 H(1)   Bbb     0.0000     0.000     0.000     0.000 -0.0000  1.0000  0.0000
              Bcc     0.0000     0.000     0.000     0.000  0.0000  0.0000  1.0000
 
              Baa     0.0000     0.000     0.000     0.000  1.0000  0.0000  0.0000
    12 H(1)   Bbb     0.0000     0.000     0.000     0.000 -0.0000  1.0000  0.0000
              Bcc     0.0000     0.000     0.000     0.000  0.0000  0.0000  1.0000
 
              Baa     0.0000     0.000     0.000     0.000  1.0000  0.0000  0.0000
    13 H(1)   Bbb     0.0000     0.000     0.000     0.000 -0.0000  1.0000  0.0000
              Bcc     0.0000     0.000     0.000     0.000  0.0000  0.0000  1.0000
 
              Baa     0.0000     0.000     0.000     0.000  1.0000  0.0000  0.0000
    14 H(1)   Bbb     0.0000     0.000     0.000     0.000 -0.0000  1.0000  0.0000
              Bcc     0.0000     0.000     0.000     0.000  0.0000  0.0000  1.0000
 
              Baa     0.0000     0.000     0.000     0.000  1.0000  0.0000  0.0000
    15 H(1)   Bbb     0.0000     0.000     0.000     0.000 -0.0000  1.0000  0.0000
              Bcc     0.0000     0.000     0.000     0.000  0.0000  0.0000  1.0000
 

 ---------------------------------------------------------------------------------

 1\1\GINC-GAMBA\SP\ROHF\Gen\C4H10O1\IRIKURA\01-Oct-2023\0\\# rohf/gen g
 eom=check guess=check\\diethyl ether, ROHF/cc-pVTZ-F12\\0,1\O,0,0.,0.,
 0.259454\C,0,0.,1.184462,-0.516903\C,0,0.,-1.184462,-0.516903\C,0,0.,2
 .381494,0.411278\C,0,0.,-2.381494,0.411278\H,0,0.884067,1.202078,-1.16
 9008\H,0,-0.884067,1.202078,-1.169008\H,0,0.884067,-1.202078,-1.169008
 \H,0,-0.884067,-1.202078,-1.169008\H,0,0.,3.307346,-0.16528\H,0,0.,-3.
 307346,-0.16528\H,0,-0.883274,2.372975,1.049615\H,0,0.883274,2.372975,
 1.049615\H,0,0.883274,-2.372975,1.049615\H,0,-0.883274,-2.372975,1.049
 615\\Version=ES64L-G16RevB.01\State=1-A1\HF=-232.2477329\RMSD=9.554e-0
 9\Dipole=0.,0.,-0.5021172\Quadrupole=-0.3063059,1.213657,-0.9073511,0.
 ,0.,0.\PG=C02V [C2(O1),SGV(C4H2),X(H8)]\\@


 THE MOST SERIOUS THREAT TO THE SURVIVAL OF MANKIND IS NOT NOW
 IGNORANCE IN THE TRADITIONAL SENSE,
 BUT A MORALLY NEUTRAL, AN INSENSITIVE OR INHIBITED HUMAN INTELLIGENCE.

                     -- MARGO JEFFERSON IN NEWSWEEK, SEPTEMBER 2, 1974
 Job cpu time:       0 days  0 hours  6 minutes 32.2 seconds.
 Elapsed time:       0 days  0 hours  1 minutes 38.2 seconds.
 File lengths (MBytes):  RWF=    145 Int=      0 D2E=      0 Chk=     18 Scr=      1
 Normal termination of Gaussian 16 at Sun Oct  1 05:58:14 2023.
