 Entering Gaussian System, Link 0=g16
 AtFile(1): pcseg2.gbs
            -H     0
            S   4   1.00
                  0.754732D+02           0.427821D-02
                  0.113575D+02           0.328672D-01
                  0.260081D+01           0.159578D+00
                  0.735503D+00           0.500000D+00
            S   1   1.00
                  0.231761D+00           1.0000000
            S   1   1.00
                  0.741675D-01           1.0000000
            P   1   1.00
                  0.160000D+01           1.0000000
            P   1   1.00
                  0.450000D+00           1.0000000
            D   1   1.00
                  0.125000D+01           1.0000000
            ****
            -C     0
            S   7   1.00
                  0.731999D+04           0.695369D-03
                  0.109818D+04           0.537138D-02
                  0.250014D+03           0.274734D-01
                  0.707586D+02           0.105078D+00
                  0.228595D+02           0.291262D+00
                  0.803936D+01           0.500000D+00
                  0.289309D+01           0.362224D+00
            S   2   1.00
                  0.521640D+01          -0.957844D-01
                  0.556124D+00           0.500000D+00
            S   1   1.00
                  0.228813D+00           1.0000000
            S   1   1.00
                  0.936338D-01           1.0000000
            P   4   1.00
                  0.339855D+02           0.818395D-02
                  0.772957D+01           0.586921D-01
                  0.224954D+01           0.222514D+00
                  0.767681D+00           0.500000D+00
            P   1   1.00
                  0.263283D+00           1.0000000
            P   1   1.00
                  0.848744D-01           1.0000000
            D   1   1.00
                  0.140000D+01           1.0000000
            D   1   1.00
                  0.450000D+00           1.0000000
            F   1   1.00
                  0.950000D+00           1.0000000
            ****
            -O     0
            S   7   1.00
                  0.135887D+05           0.665492D-03
                  0.203847D+04           0.514222D-02
                  0.464041D+03           0.263472D-01
                  0.131339D+03           0.101500D+00
                  0.425340D+02           0.285877D+00
                  0.150429D+02           0.500000D+00
                  0.546616D+01           0.368211D+00
            S   2   1.00
                  0.100915D+02          -0.100084D+00
                  0.110429D+01           0.500000D+00
            S   1   1.00
                  0.448082D+00           1.0000000
            S   1   1.00
                  0.175325D+00           1.0000000
            P   4   1.00
                  0.608220D+02           0.908253D-02
                  0.140332D+02           0.645878D-01
                  0.418244D+01           0.241502D+00
                  0.142490D+01           0.500000D+00
            P   1   1.00
                  0.478741D+00           1.0000000
            P   1   1.00
                  0.146257D+00           1.0000000
            D   1   1.00
                  0.220000D+01           1.0000000
            D   1   1.00
                  0.650000D+00           1.0000000
            F   1   1.00
                  0.110000D+01           1.0000000
            ****
            -N     0
            S   7   1.00
                  0.101643D+05           0.682757D-03
                  0.152481D+04           0.527488D-02
                  0.347119D+03           0.270037D-01
                  0.982389D+02           0.103673D+00
                  0.317799D+02           0.289575D+00
                  0.112240D+02           0.500000D+00
                  0.406611D+01           0.364621D+00
            S   2   1.00
                  0.747898D+01          -0.975681D-01
                  0.805040D+00           0.500000D+00
            S   1   1.00
                  0.324626D+00           1.0000000
            S   1   1.00
                  0.128132D+00           1.0000000
            P   4   1.00
                  0.482704D+02           0.829547D-02
                  0.110815D+02           0.596223D-01
                  0.326643D+01           0.227889D+00
                  0.111680D+01           0.500000D+00
            P   1   1.00
                  0.382049D+00           1.0000000
            P   1   1.00
                  0.121222D+00           1.0000000
            D   1   1.00
                  0.180000D+01           1.0000000
            D   1   1.00
                  0.550000D+00           1.0000000
            F   1   1.00
                  0.102000D+01           1.0000000
            ****
            -F     0
            S   7   1.00
                  0.174507D+05           0.655972D-03
                  0.261768D+04           0.506944D-02
                  0.595857D+03           0.259899D-01
                  0.168651D+03           0.100353D+00
                  0.546654D+02           0.284095D+00
                  0.193717D+02           0.500000D+00
                  0.706202D+01           0.370721D+00
            S   2   1.00
                  0.131197D+02          -0.101997D+00
                  0.145046D+01           0.500000D+00
            S   1   1.00
                  0.588255D+00           1.0000000
            S   1   1.00
                  0.227960D+00           1.0000000
            P   4   1.00
                  0.779407D+02           0.931135D-02
                  0.180425D+02           0.663964D-01
                  0.542342D+01           0.246386D+00
                  0.184876D+01           0.500000D+00
            P   1   1.00
                  0.617455D+00           1.0000000
            P   1   1.00
                  0.185496D+00           1.0000000
            D   1   1.00
                  0.280000D+01           1.0000000
            D   1   1.00
                  0.800000D+00           1.0000000
            F   1   1.00
                  0.120000D+01           1.0000000
            ****
            -Cl     0
            S   8   1.00
                  0.154272D+06           0.222473D-03
                  0.231232D+05           0.172590D-02
                  0.526257D+04           0.899286D-02
                  0.148995D+04           0.367724D-01
                  0.485417D+03           0.121446D+00
                  0.174634D+03           0.304148D+00
                  0.672393D+02           0.500000D+00
                  0.265780D+02           0.360252D+00
            S   3   1.00
                  0.131826D+03          -0.531330D-01
                  0.400703D+02          -0.233346D+00
                  0.789448D+01           0.500000D+00
            S   2   1.00
                  0.427711D+01           0.500000D+00
                  0.196233D+01           0.370517D+00
            S   1   1.00
                  0.520793D+00           1.0000000
            S   1   1.00
                  0.181633D+00           1.0000000
            P   7   1.00
                  0.124440D+04           0.988206D-03
                  0.295109D+03           0.829674D-02
                  0.947224D+02           0.430906D-01
                  0.352588D+02           0.148443D+00
                  0.144211D+02           0.344744D+00
                  0.610371D+01           0.500000D+00
                  0.258886D+01           0.348278D+00
            P   2   1.00
                  0.109447D+02          -0.196768D-01
                  0.104413D+01           0.500000D+00
            P   1   1.00
                  0.376184D+00           1.0000000
            P   1   1.00
                  0.120613D+00           1.0000000
            D   1   1.00
                  0.231000D+01           1.0000000
            D   1   1.00
                  0.520000D+00           1.0000000
            F   1   1.00
                  0.720000D+00           1.0000000
            ****
            -S     0
            S   8   1.00
                  0.134700D+06           0.226231D-03
                  0.201904D+05           0.175488D-02
                  0.459528D+04           0.914190D-02
                  0.130109D+04           0.373551D-01
                  0.423902D+03           0.123121D+00
                  0.152485D+03           0.306801D+00
                  0.586925D+02           0.500000D+00
                  0.231461D+02           0.354358D+00
            S   3   1.00
                  0.116327D+03          -0.491772D-01
                  0.352841D+02          -0.215962D+00
                  0.677831D+01           0.500000D+00
            S   2   1.00
                  0.360404D+01           0.500000D+00
                  0.164871D+01           0.366278D+00
            S   1   1.00
                  0.421821D+00           1.0000000
            S   1   1.00
                  0.147554D+00           1.0000000
            P   7   1.00
                  0.104863D+04           0.105273D-02
                  0.248717D+03           0.879338D-02
                  0.797887D+02           0.453358D-01
                  0.296023D+02           0.154476D+00
                  0.120627D+02           0.352366D+00
                  0.507628D+01           0.500000D+00
                  0.213375D+01           0.346429D+00
            P   2   1.00
                  0.928958D+01          -0.185932D-01
                  0.837819D+00           0.500000D+00
            P   1   1.00
                  0.301495D+00           1.0000000
            P   1   1.00
                  0.974740D-01           1.0000000
            D   1   1.00
                  0.210000D+01           1.0000000
            D   1   1.00
                  0.480000D+00           1.0000000
            F   1   1.00
                  0.660000D+00           1.0000000
            ****
            -Br     0
            S    10   1.00
                  0.233625D+07           0.532336D-04
                  0.349961D+06           0.413715D-03
                  0.796444D+05           0.217123D-02
                  0.225555D+05           0.910109D-02
                  0.735546D+04           0.323789D-01
                  0.265352D+04           0.988755D-01
                  0.103517D+04           0.248138D+00
                  0.422205D+03           0.474328D+00
                  0.180035D+03           0.500000D+00
                  0.793308D+02           0.187769D+00
            S    4   1.00
                  0.620834D+03          -0.226511D-01
                  0.190829D+03          -0.109497D+00
                  0.312505D+02           0.500000D+00
                  0.135270D+02           0.492812D+00
            S    2   1.00
                  0.216097D+02          -0.165418D+00
                  0.372566D+01           0.500000D+00
            S    1   1.00
                  0.169770D+01           1.0000000
            S    1   1.00
                  0.489332D+00           1.0000000
            S    1   1.00
                  0.175712D+00           1.0000000
            P    8   1.00
                  0.960829D+04           0.478974D-03
                  0.227618D+04           0.417853D-02
                  0.736723D+03           0.229315D-01
                  0.281579D+03           0.892653D-01
                  0.118395D+03           0.255288D+00
                  0.527481D+02           0.479074D+00
                  0.245098D+02           0.500000D+00
                  0.112009D+02           0.200944D+00
            P    4   1.00
                  0.587849D+02          -0.189674D-01
                  0.918962D+01           0.264104D+00
                  0.413895D+01           0.500000D+00
                  0.184225D+01           0.319316D+00
            P    1   1.00
                  0.713862D+00           1.0000000
            P    1   1.00
                  0.274232D+00           1.0000000
            P    1   1.00
                  0.944411D-01           1.0000000
            D    7   1.00
                  0.398470D+03           0.204066D-02
                  0.118967D+03           0.175171D-01
                  0.450197D+02           0.829708D-01
                  0.190320D+02           0.236284D+00
                  0.855686D+01           0.428468D+00
                  0.382950D+01           0.500000D+00
                  0.166291D+01           0.349360D+00
            D    1   1.00
                  0.672953D+00           1.0000000
            D    1   1.00
                  0.252000D+00           1.0000000
            F    1   1.00
                  0.530000D+00           1.0000000
            ****
            -Si     0
            S    8   1.00
                  0.996133D+05           0.235546D-03
                  0.149311D+05           0.182707D-02
                  0.339820D+04           0.951425D-02
                  0.962140D+03           0.388172D-01
                  0.313430D+03           0.127328D+00
                  0.112683D+03           0.313522D+00
                  0.433372D+02           0.500000D+00
                  0.170029D+02           0.340347D+00
            S    3   1.00
                  0.884208D+02          -0.404451D-01
                  0.266756D+02          -0.178059D+00
                  0.479640D+01           0.500000D+00
            S    2   1.00
                  0.239385D+01           0.500000D+00
                  0.108333D+01           0.338016D+00
            S    1   1.00
                  0.252420D+00           1.0000000
            S    1   1.00
                  0.891210D-01           1.0000000
            P    7   1.00
                  0.709901D+03           0.123028D-02
                  0.168426D+03           0.101366D-01
                  0.539946D+02           0.511840D-01
                  0.198646D+02           0.169967D+00
                  0.801369D+01           0.370717D+00
                  0.331870D+01           0.500000D+00
                  0.136112D+01           0.344128D+00
            P    2   1.00
                  0.622158D+01          -0.166609D-01
                  0.503049D+00           0.500000D+00
            P    1   1.00
                  0.179848D+00           1.0000000
            P    1   1.00
                  0.591912D-01           1.0000000
            D    1   1.00
                  0.168000D+01           1.0000000
            D    1   1.00
                  0.380000D+00           1.0000000
            F    1   1.00
                  0.540000D+00           1.0000000
            ****
            -P     0
            S    8   1.00
                  0.116416D+06           0.230715D-03
                  0.174500D+05           0.178960D-02
                  0.397149D+04           0.932116D-02
                  0.112447D+04           0.380591D-01
                  0.366347D+03           0.125148D+00
                  0.131757D+03           0.310022D+00
                  0.506988D+02           0.500000D+00
                  0.199436D+02           0.347528D+00
            S    3   1.00
                  0.101878D+03          -0.446755D-01
                  0.308249D+02          -0.196376D+00
                  0.573688D+01           0.500000D+00
            S    2   1.00
                  0.296868D+01           0.500000D+00
                  0.135315D+01           0.355098D+00
            S    1   1.00
                  0.332196D+00           1.0000000
            S    1   1.00
                  0.116229D+00           1.0000000
            P    7   1.00
                  0.873928D+03           0.112375D-02
                  0.207298D+03           0.933330D-02
                  0.664628D+02           0.477213D-01
                  0.245665D+02           0.160733D+00
                  0.996820D+01           0.359760D+00
                  0.416536D+01           0.500000D+00
                  0.173022D+01           0.346593D+00
            P    2   1.00
                  0.772530D+01          -0.175718D-01
                  0.657252D+00           0.500000D+00
            P    1   1.00
                  0.239903D+00           1.0000000
            P    1   1.00
                  0.800988D-01           1.0000000
            D    1   1.00
                  0.189000D+01           1.0000000
            D    1   1.00
                  0.430000D+00           1.0000000
            F    1   1.00
                  0.600000D+00           1.0000000
            ****
            
 Initial command:
 /usr/local/apps/g16_b01_avx/g16/l1.exe "/wrk/irikura/Gau-21506.inp" -scrdir="/wrk/irikura/"
 Entering Link 1 = /usr/local/apps/g16_b01_avx/g16/l1.exe PID=     21508.
  
 Copyright (c) 1988-2017, Gaussian, Inc.  All Rights Reserved.
  
 This is part of the Gaussian(R) 16 program.  It is based on
 the Gaussian(R) 09 system (copyright 2009, Gaussian, Inc.),
 the Gaussian(R) 03 system (copyright 2003, Gaussian, Inc.),
 the Gaussian(R) 98 system (copyright 1998, Gaussian, Inc.),
 the Gaussian(R) 94 system (copyright 1995, Gaussian, Inc.),
 the Gaussian 92(TM) system (copyright 1992, Gaussian, Inc.),
 the Gaussian 90(TM) system (copyright 1990, Gaussian, Inc.),
 the Gaussian 88(TM) system (copyright 1988, Gaussian, Inc.),
 the Gaussian 86(TM) system (copyright 1986, Carnegie Mellon
 University), and the Gaussian 82(TM) system (copyright 1983,
 Carnegie Mellon University). Gaussian is a federally registered
 trademark of Gaussian, Inc.
  
 This software contains proprietary and confidential information,
 including trade secrets, belonging to Gaussian, Inc.
  
 This software is provided under written license and may be
 used, copied, transmitted, or stored only in accord with that
 written license.
  
 The following legend is applicable only to US Government
 contracts under FAR:
  
                    RESTRICTED RIGHTS LEGEND
  
 Use, reproduction and disclosure by the US Government is
 subject to restrictions as set forth in subparagraphs (a)
 and (c) of the Commercial Computer Software - Restricted
 Rights clause in FAR 52.227-19.
  
 Gaussian, Inc.
 340 Quinnipiac St., Bldg. 40, Wallingford CT 06492
  
  
 ---------------------------------------------------------------
 Warning -- This program may not be used in any manner that
 competes with the business of Gaussian, Inc. or will provide
 assistance to any competitor of Gaussian, Inc.  The licensee
 of this program is prohibited from giving any competitor of
 Gaussian, Inc. access to this program.  By using this program,
 the user acknowledges that Gaussian, Inc. is engaged in the
 business of creating and licensing software in the field of
 computational chemistry and represents and warrants to the
 licensee that it is not a competitor of Gaussian, Inc. and that
 it will not use this program in any manner prohibited above.
 ---------------------------------------------------------------
  

 Cite this work as:
 Gaussian 16, Revision B.01,
 M. J. Frisch, G. W. Trucks, H. B. Schlegel, G. E. Scuseria, 
 M. A. Robb, J. R. Cheeseman, G. Scalmani, V. Barone, 
 G. A. Petersson, H. Nakatsuji, X. Li, M. Caricato, A. V. Marenich, 
 J. Bloino, B. G. Janesko, R. Gomperts, B. Mennucci, H. P. Hratchian, 
 J. V. Ortiz, A. F. Izmaylov, J. L. Sonnenberg, D. Williams-Young, 
 F. Ding, F. Lipparini, F. Egidi, J. Goings, B. Peng, A. Petrone, 
 T. Henderson, D. Ranasinghe, V. G. Zakrzewski, J. Gao, N. Rega, 
 G. Zheng, W. Liang, M. Hada, M. Ehara, K. Toyota, R. Fukuda, 
 J. Hasegawa, M. Ishida, T. Nakajima, Y. Honda, O. Kitao, H. Nakai, 
 T. Vreven, K. Throssell, J. A. Montgomery, Jr., J. E. Peralta, 
 F. Ogliaro, M. J. Bearpark, J. J. Heyd, E. N. Brothers, K. N. Kudin, 
 V. N. Staroverov, T. A. Keith, R. Kobayashi, J. Normand, 
 K. Raghavachari, A. P. Rendell, J. C. Burant, S. S. Iyengar, 
 J. Tomasi, M. Cossi, J. M. Millam, M. Klene, C. Adamo, R. Cammi, 
 J. W. Ochterski, R. L. Martin, K. Morokuma, O. Farkas, 
 J. B. Foresman, and D. J. Fox, Gaussian, Inc., Wallingford CT, 2016.
 
 ******************************************
 Gaussian 16:  ES64L-G16RevB.01 20-Dec-2017
                17-Jun-2022 
 ******************************************
 %mem=1000mw
 %nprocs=12
 Will use up to   12 processors via shared memory.
 --------------------
 # b3lyp/gen opt freq
 --------------------
 1/18=20,19=15,26=3,38=1/1,3;
 2/9=110,12=2,17=6,18=5,40=1/2;
 3/5=7,11=2,25=1,30=1,71=1,74=-5/1,2,3;
 4//1;
 5/5=2,38=5/2;
 6/7=2,8=2,9=2,10=2,28=1/1;
 7//1,2,3,16;
 1/18=20,19=15,26=3/3(2);
 2/9=110/2;
 99//99;
 2/9=110/2;
 3/5=7,6=1,11=2,25=1,30=1,71=1,74=-5,82=7/1,2,3;
 4/5=5,16=3,69=1/1;
 5/5=2,38=5/2;
 7//1,2,3,16;
 1/18=20,19=15,26=3/3(-5);
 2/9=110/2;
 6/7=2,8=2,9=2,10=2,19=2,28=1/1;
 99/9=1/99;
 ----------------------------
 ethyl nitrite, B3LYP/pcseg-2
 ----------------------------
 Symbolic Z-matrix:
 Charge =  0 Multiplicity = 1
 C                    -0.82023   0.49204   0. 
 O                    -0.01209  -0.70429   0. 
 N                     1.36495  -0.51248   0. 
 C                    -2.27084   0.04715   0. 
 H                    -0.56904   1.09006   0.88271 
 H                    -0.56904   1.09006  -0.88271 
 H                    -2.92484   0.92417   0. 
 H                    -2.49609  -0.55125   0.88666 
 H                    -2.49609  -0.55125  -0.88666 
 O                     1.70671   0.6223    0. 
 

 GradGradGradGradGradGradGradGradGradGradGradGradGradGradGradGradGradGrad
 Berny optimization.
 Initialization pass.
                           ----------------------------
                           !    Initial Parameters    !
                           ! (Angstroms and Degrees)  !
 --------------------------                            --------------------------
 ! Name  Definition              Value          Derivative Info.                !
 --------------------------------------------------------------------------------
 ! R1    R(1,2)                  1.4437         estimate D2E/DX2                !
 ! R2    R(1,4)                  1.5173         estimate D2E/DX2                !
 ! R3    R(1,5)                  1.0954         estimate D2E/DX2                !
 ! R4    R(1,6)                  1.0954         estimate D2E/DX2                !
 ! R5    R(2,3)                  1.3903         estimate D2E/DX2                !
 ! R6    R(3,10)                 1.1851         estimate D2E/DX2                !
 ! R7    R(4,7)                  1.094          estimate D2E/DX2                !
 ! R8    R(4,8)                  1.0932         estimate D2E/DX2                !
 ! R9    R(4,9)                  1.0932         estimate D2E/DX2                !
 ! A1    A(2,1,4)              106.989          estimate D2E/DX2                !
 ! A2    A(2,1,5)              108.9067         estimate D2E/DX2                !
 ! A3    A(2,1,6)              108.9067         estimate D2E/DX2                !
 ! A4    A(4,1,5)              112.291          estimate D2E/DX2                !
 ! A5    A(4,1,6)              112.291          estimate D2E/DX2                !
 ! A6    A(5,1,6)              107.382          estimate D2E/DX2                !
 ! A7    A(1,2,3)              116.1095         estimate D2E/DX2                !
 ! A8    A(2,3,10)             114.6904         estimate D2E/DX2                !
 ! A9    A(1,4,7)              109.6614         estimate D2E/DX2                !
 ! A10   A(1,4,8)              110.9472         estimate D2E/DX2                !
 ! A11   A(1,4,9)              110.9472         estimate D2E/DX2                !
 ! A12   A(7,4,8)              108.4001         estimate D2E/DX2                !
 ! A13   A(7,4,9)              108.4001         estimate D2E/DX2                !
 ! A14   A(8,4,9)              108.4074         estimate D2E/DX2                !
 ! D1    D(4,1,2,3)            180.0            estimate D2E/DX2                !
 ! D2    D(5,1,2,3)            -58.4071         estimate D2E/DX2                !
 ! D3    D(6,1,2,3)             58.4071         estimate D2E/DX2                !
 ! D4    D(2,1,4,7)            180.0            estimate D2E/DX2                !
 ! D5    D(2,1,4,8)             60.2849         estimate D2E/DX2                !
 ! D6    D(2,1,4,9)            -60.2849         estimate D2E/DX2                !
 ! D7    D(5,1,4,7)             60.5657         estimate D2E/DX2                !
 ! D8    D(5,1,4,8)            -59.1495         estimate D2E/DX2                !
 ! D9    D(5,1,4,9)           -179.7192         estimate D2E/DX2                !
 ! D10   D(6,1,4,7)            -60.5657         estimate D2E/DX2                !
 ! D11   D(6,1,4,8)            179.7192         estimate D2E/DX2                !
 ! D12   D(6,1,4,9)             59.1495         estimate D2E/DX2                !
 ! D13   D(1,2,3,10)             0.0            estimate D2E/DX2                !
 --------------------------------------------------------------------------------
 Trust Radius=3.00D-01 FncErr=1.00D-07 GrdErr=1.00D-06 EigMax=2.50D+02 EigMin=1.00D-04
 Number of steps in this run=     46 maximum allowed number of steps=    100.
 GradGradGradGradGradGradGradGradGradGradGradGradGradGradGradGradGradGrad

                          Input orientation:                          
 ---------------------------------------------------------------------
 Center     Atomic      Atomic             Coordinates (Angstroms)
 Number     Number       Type             X           Y           Z
 ---------------------------------------------------------------------
      1          6           0       -0.820227    0.492043    0.000000
      2          8           0       -0.012090   -0.704292    0.000000
      3          7           0        1.364953   -0.512478    0.000000
      4          6           0       -2.270842    0.047148    0.000000
      5          1           0       -0.569037    1.090059    0.882710
      6          1           0       -0.569037    1.090059   -0.882710
      7          1           0       -2.924838    0.924173    0.000000
      8          1           0       -2.496093   -0.551250    0.886656
      9          1           0       -2.496093   -0.551250   -0.886656
     10          8           0        1.706707    0.622298    0.000000
 ---------------------------------------------------------------------
                    Distance matrix (angstroms):
                    1          2          3          4          5
     1  C    0.000000
     2  O    1.443711   0.000000
     3  N    2.405010   1.390338   0.000000
     4  C    1.517305   2.380467   3.678612   0.000000
     5  H    1.095398   2.075828   2.662258   2.182425   0.000000
     6  H    1.095398   2.075828   2.662258   2.182425   1.765420
     7  H    2.148517   3.337064   4.523967   1.094022   2.521209
     8  H    2.164058   2.641941   3.961734   1.093150   2.531295
     9  H    2.164058   2.641941   3.961734   1.093150   3.088381
    10  O    2.530289   2.171199   1.185121   4.018917   2.485355
                    6          7          8          9         10
     6  H    0.000000
     7  H    2.521209   0.000000
     8  H    3.088381   1.773937   0.000000
     9  H    2.531295   1.773937   1.773312   0.000000
    10  O    2.485355   4.641372   4.452741   4.452741   0.000000
 Stoichiometry    C2H5NO2
 Framework group  CS[SG(C2HNO2),X(H4)]
 Deg. of freedom    15
 Full point group                 CS      NOp   2
 Largest Abelian subgroup         CS      NOp   2
 Largest concise Abelian subgroup CS      NOp   2
                         Standard orientation:                         
 ---------------------------------------------------------------------
 Center     Atomic      Atomic             Coordinates (Angstroms)
 Number     Number       Type             X           Y           Z
 ---------------------------------------------------------------------
      1          6           0        0.637813   -0.559203    0.000000
      2          8           0        0.000000    0.735980    0.000000
      3          7           0       -1.390336    0.733349    0.000000
      4          6           0        2.135477   -0.315857    0.000000
      5          1           0        0.307577   -1.117471    0.882710
      6          1           0        0.307577   -1.117471   -0.882710
      7          1           0        2.664037   -1.273724    0.000000
      8          1           0        2.440067    0.246320    0.886656
      9          1           0        2.440067    0.246320   -0.886656
     10          8           0       -1.883339   -0.344362    0.000000
 ---------------------------------------------------------------------
 Rotational constants (GHZ):          18.2045344           3.0149550           2.6729039
 General basis read from cards:  (5D, 7F)
 There are   161 symmetry adapted cartesian basis functions of A'  symmetry.
 There are    89 symmetry adapted cartesian basis functions of A"  symmetry.
 There are   138 symmetry adapted basis functions of A'  symmetry.
 There are    82 symmetry adapted basis functions of A"  symmetry.
   220 basis functions,   345 primitive gaussians,   250 cartesian basis functions
    20 alpha electrons       20 beta electrons
       nuclear repulsion energy       178.8287314390 Hartrees.
 NAtoms=   10 NActive=   10 NUniq=    8 SFac= 1.56D+00 NAtFMM=   60 NAOKFM=F Big=F
 Integral buffers will be    131072 words long.
 Raffenetti 2 integral format.
 Two-electron integral symmetry is turned on.
 One-electron integrals computed using PRISM.
 NBasis=   220 RedAO= T EigKep=  5.15D-04  NBF=   138    82
 NBsUse=   220 1.00D-06 EigRej= -1.00D+00 NBFU=   138    82
 ExpMin= 7.42D-02 ExpMax= 1.36D+04 ExpMxC= 4.64D+02 IAcc=3 IRadAn=         5 AccDes= 0.00D+00
 Harris functional with IExCor=  402 and IRadAn=       5 diagonalized for initial guess.
 HarFok:  IExCor=  402 AccDes= 0.00D+00 IRadAn=         5 IDoV= 1 UseB2=F ITyADJ=14
 ICtDFT=  3500011 ScaDFX=  1.000000  1.000000  1.000000  1.000000
 FoFCou: FMM=F IPFlag=           0 FMFlag=      100000 FMFlg1=           0
         NFxFlg=           0 DoJE=T BraDBF=F KetDBF=T FulRan=T
         wScrn=  0.000000 ICntrl=       500 IOpCl=  0 I1Cent=   200000004 NGrid=           0
         NMat0=    1 NMatS0=      1 NMatT0=    0 NMatD0=    1 NMtDS0=    0 NMtDT0=    0
 Petite list used in FoFCou.
 Initial guess orbital symmetries:
       Occupied  (A') (A') (A') (A') (A') (A') (A') (A') (A') (A')
                 (A') (A") (A') (A') (A") (A') (A") (A') (A") (A')
       Virtual   (A") (A') (A') (A") (A') (A') (A") (A') (A') (A')
                 (A") (A') (A') (A") (A') (A') (A') (A") (A') (A")
                 (A') (A") (A') (A') (A') (A') (A") (A') (A') (A")
                 (A') (A') (A') (A") (A') (A') (A") (A') (A') (A")
                 (A") (A') (A") (A') (A") (A') (A') (A") (A") (A')
                 (A') (A") (A') (A') (A') (A") (A") (A") (A') (A')
                 (A') (A") (A') (A') (A") (A") (A') (A') (A') (A')
                 (A") (A') (A') (A") (A') (A") (A') (A') (A') (A")
                 (A') (A") (A') (A') (A") (A') (A') (A') (A") (A')
                 (A') (A") (A") (A') (A') (A') (A') (A") (A') (A")
                 (A") (A') (A") (A') (A') (A") (A') (A") (A') (A")
                 (A') (A") (A') (A') (A") (A") (A') (A") (A") (A')
                 (A') (A") (A") (A') (A") (A") (A') (A') (A') (A')
                 (A') (A") (A') (A") (A') (A") (A') (A') (A') (A")
                 (A') (A") (A') (A') (A") (A') (A") (A') (A") (A')
                 (A") (A') (A') (A") (A') (A') (A") (A') (A") (A")
                 (A') (A") (A') (A') (A') (A") (A') (A") (A') (A')
                 (A") (A") (A") (A') (A') (A') (A") (A') (A") (A')
                 (A") (A") (A') (A') (A") (A') (A") (A') (A') (A")
                 (A') (A') (A") (A') (A") (A') (A') (A') (A') (A')
 The electronic state of the initial guess is 1-A'.
 Keep R1 ints in memory in symmetry-blocked form, NReq=444013409.
 Requested convergence on RMS density matrix=1.00D-08 within 128 cycles.
 Requested convergence on MAX density matrix=1.00D-06.
 Requested convergence on             energy=1.00D-06.
 No special actions if energy rises.
 Integral accuracy reduced to 1.0D-05 until final iterations.
 Initial convergence to 1.0D-05 achieved.  Increase integral accuracy.
 SCF Done:  E(RB3LYP) =  -284.447372481     A.U. after   14 cycles
            NFock= 14  Conv=0.39D-08     -V/T= 2.0035

 **********************************************************************

            Population analysis using the SCF Density.

 **********************************************************************

 Orbital symmetries:
       Occupied  (A') (A') (A') (A') (A') (A') (A') (A') (A') (A')
                 (A') (A") (A') (A") (A') (A') (A") (A') (A") (A')
       Virtual   (A") (A') (A') (A") (A') (A') (A") (A') (A') (A')
                 (A") (A') (A") (A') (A') (A') (A") (A") (A') (A')
                 (A') (A') (A') (A") (A') (A") (A') (A') (A') (A")
                 (A') (A') (A') (A") (A') (A') (A") (A') (A') (A")
                 (A") (A') (A") (A") (A') (A') (A") (A') (A") (A')
                 (A") (A') (A') (A') (A") (A') (A") (A") (A') (A')
                 (A') (A") (A') (A') (A") (A") (A') (A') (A') (A")
                 (A') (A') (A') (A") (A') (A') (A") (A') (A') (A")
                 (A') (A") (A') (A') (A') (A") (A') (A') (A") (A')
                 (A') (A") (A") (A') (A') (A') (A') (A') (A") (A")
                 (A") (A') (A") (A') (A') (A") (A') (A") (A') (A")
                 (A') (A") (A') (A") (A') (A") (A') (A") (A") (A')
                 (A') (A") (A") (A") (A') (A") (A') (A') (A') (A')
                 (A') (A") (A') (A") (A') (A") (A') (A') (A') (A')
                 (A") (A') (A") (A') (A") (A') (A") (A') (A") (A')
                 (A") (A') (A') (A") (A') (A') (A") (A") (A') (A")
                 (A') (A') (A") (A') (A") (A') (A') (A") (A') (A')
                 (A") (A") (A") (A') (A') (A') (A") (A") (A') (A')
                 (A") (A") (A') (A') (A") (A') (A') (A") (A') (A")
                 (A') (A') (A") (A') (A") (A') (A') (A') (A') (A')
 The electronic state is 1-A'.
 Alpha  occ. eigenvalues --  -19.20098 -19.20000 -14.49616 -10.24478 -10.18485
 Alpha  occ. eigenvalues --   -1.22784  -1.06517  -0.80137  -0.69623  -0.61600
 Alpha  occ. eigenvalues --   -0.56409  -0.52898  -0.50466  -0.47065  -0.42011
 Alpha  occ. eigenvalues --   -0.40988  -0.39010  -0.37591  -0.33291  -0.28720
 Alpha virt. eigenvalues --   -0.08496   0.00920   0.04425   0.05241   0.06517
 Alpha virt. eigenvalues --    0.08405   0.09297   0.12759   0.13856   0.15860
 Alpha virt. eigenvalues --    0.17240   0.19677   0.22160   0.23234   0.24993
 Alpha virt. eigenvalues --    0.28141   0.29205   0.30914   0.31106   0.33483
 Alpha virt. eigenvalues --    0.33827   0.34839   0.35213   0.35745   0.38945
 Alpha virt. eigenvalues --    0.42135   0.44315   0.45018   0.46590   0.49351
 Alpha virt. eigenvalues --    0.51179   0.58437   0.59515   0.66087   0.72667
 Alpha virt. eigenvalues --    0.73694   0.79618   0.80546   0.86596   0.92146
 Alpha virt. eigenvalues --    0.94412   0.95050   0.96569   0.99430   1.00636
 Alpha virt. eigenvalues --    1.04046   1.05637   1.08078   1.08922   1.12101
 Alpha virt. eigenvalues --    1.16166   1.17013   1.23463   1.26136   1.26999
 Alpha virt. eigenvalues --    1.29551   1.33439   1.39049   1.39543   1.43922
 Alpha virt. eigenvalues --    1.48165   1.51555   1.55345   1.63962   1.66746
 Alpha virt. eigenvalues --    1.67078   1.69065   1.70128   1.72979   1.76210
 Alpha virt. eigenvalues --    1.78446   1.81354   1.84960   1.86800   1.90784
 Alpha virt. eigenvalues --    1.92085   1.92691   1.96611   2.01663   2.05003
 Alpha virt. eigenvalues --    2.11070   2.14210   2.20280   2.23604   2.31879
 Alpha virt. eigenvalues --    2.32098   2.35843   2.41565   2.44237   2.51532
 Alpha virt. eigenvalues --    2.57386   2.57530   2.67610   2.72099   2.81228
 Alpha virt. eigenvalues --    3.07067   3.08511   3.11722   3.13804   3.24903
 Alpha virt. eigenvalues --    3.27720   3.28480   3.29739   3.31328   3.40690
 Alpha virt. eigenvalues --    3.41754   3.44594   3.44923   3.50105   3.53689
 Alpha virt. eigenvalues --    3.56887   3.62593   3.65551   3.72922   3.76066
 Alpha virt. eigenvalues --    3.77356   3.81197   3.83459   3.84226   3.88034
 Alpha virt. eigenvalues --    3.90374   3.93597   3.97338   3.98577   3.99359
 Alpha virt. eigenvalues --    4.03383   4.05874   4.12457   4.13016   4.25362
 Alpha virt. eigenvalues --    4.27019   4.29087   4.32965   4.35065   4.37117
 Alpha virt. eigenvalues --    4.39425   4.43760   4.47288   4.50305   4.51118
 Alpha virt. eigenvalues --    4.53142   4.55739   4.56933   4.60243   4.60298
 Alpha virt. eigenvalues --    4.60848   4.63976   4.69248   4.70644   4.77640
 Alpha virt. eigenvalues --    4.81176   4.83608   4.92533   4.94661   5.00372
 Alpha virt. eigenvalues --    5.03111   5.06274   5.07327   5.09734   5.10293
 Alpha virt. eigenvalues --    5.25983   5.27722   5.30111   5.32152   5.34111
 Alpha virt. eigenvalues --    5.37282   5.47464   5.54120   5.54561   5.62573
 Alpha virt. eigenvalues --    5.64031   5.67620   5.68740   5.72476   5.76131
 Alpha virt. eigenvalues --    5.79130   5.79205   5.86723   5.88934   5.91983
 Alpha virt. eigenvalues --    5.96641   6.02015   6.02443   6.06086   6.08571
 Alpha virt. eigenvalues --    6.17114   6.18081   6.20844   6.25181   6.33600
 Alpha virt. eigenvalues --    6.43010   6.44404   6.49937   6.51671   6.68083
 Alpha virt. eigenvalues --    6.87255   6.92342   7.09923   7.59405   9.44781
          Condensed to atoms (all electrons):
               1          2          3          4          5          6
     1  C    4.579397   0.180011  -0.014005   0.314534   0.435485   0.435485
     2  O    0.180011   8.254897   0.023072  -0.042730  -0.038004  -0.038004
     3  N   -0.014005   0.023072   6.509459   0.004463  -0.006334  -0.006334
     4  C    0.314534  -0.042730   0.004463   4.577577  -0.033378  -0.033378
     5  H    0.435485  -0.038004  -0.006334  -0.033378   0.651082  -0.047289
     6  H    0.435485  -0.038004  -0.006334  -0.033378  -0.047289   0.651082
     7  H   -0.032368   0.004250  -0.000183   0.416001  -0.003021  -0.003021
     8  H   -0.032442   0.001646  -0.000360   0.422260  -0.011539   0.010263
     9  H   -0.032442   0.001646  -0.000360   0.422260   0.010263  -0.011539
    10  O    0.010059  -0.101034   0.283134   0.003551   0.002450   0.002450
               7          8          9         10
     1  C   -0.032368  -0.032442  -0.032442   0.010059
     2  O    0.004250   0.001646   0.001646  -0.101034
     3  N   -0.000183  -0.000360  -0.000360   0.283134
     4  C    0.416001   0.422260   0.422260   0.003551
     5  H   -0.003021  -0.011539   0.010263   0.002450
     6  H   -0.003021   0.010263  -0.011539   0.002450
     7  H    0.639334  -0.024886  -0.024886   0.000505
     8  H   -0.024886   0.622906  -0.025721  -0.000095
     9  H   -0.024886  -0.025721   0.622906  -0.000095
    10  O    0.000505  -0.000095  -0.000095   8.050691
 Mulliken charges:
               1
     1  C    0.156287
     2  O   -0.245749
     3  N    0.207449
     4  C   -0.051158
     5  H    0.040285
     6  H    0.040285
     7  H    0.028275
     8  H    0.037970
     9  H    0.037970
    10  O   -0.251615
 Sum of Mulliken charges =  -0.00000
 Mulliken charges with hydrogens summed into heavy atoms:
               1
     1  C    0.236857
     2  O   -0.245749
     3  N    0.207449
     4  C    0.053057
    10  O   -0.251615
 Electronic spatial extent (au):  <R**2>=            460.3996
 Charge=             -0.0000 electrons
 Dipole moment (field-independent basis, Debye):
    X=              2.1582    Y=             -1.3471    Z=             -0.0000  Tot=              2.5441
 Quadrupole moment (field-independent basis, Debye-Ang):
   XX=            -31.7541   YY=            -31.4731   ZZ=            -28.6494
   XY=             -0.9768   XZ=             -0.0000   YZ=             -0.0000
 Traceless Quadrupole moment (field-independent basis, Debye-Ang):
   XX=             -1.1286   YY=             -0.8475   ZZ=              1.9762
   XY=             -0.9768   XZ=             -0.0000   YZ=             -0.0000
 Octapole moment (field-independent basis, Debye-Ang**2):
  XXX=              2.0297  YYY=             -1.9567  ZZZ=              0.0000  XYY=             -0.2040
  XXY=              0.7947  XXZ=             -0.0000  XZZ=             -3.3193  YZZ=              0.4683
  YYZ=              0.0000  XYZ=              0.0000
 Hexadecapole moment (field-independent basis, Debye-Ang**3):
 XXXX=           -463.6156 YYYY=           -102.6897 ZZZZ=            -40.4567 XXXY=             25.9506
 XXXZ=             -0.0000 YYYX=             28.7943 YYYZ=             -0.0000 ZZZX=             -0.0000
 ZZZY=             -0.0000 XXYY=            -92.5281 XXZZ=            -79.0062 YYZZ=            -23.0366
 XXYZ=              0.0000 YYXZ=             -0.0000 ZZXY=             10.7639
 N-N= 1.788287314390D+02 E-N=-1.024633633745D+03  KE= 2.834595893925D+02
 Symmetry A'   KE= 2.705473786896D+02
 Symmetry A"   KE= 1.291221070288D+01
 Calling FoFJK, ICntrl=      2127 FMM=F ISym2X=1 I1Cent= 0 IOpClX= 0 NMat=1 NMatS=1 NMatT=0.
 ***** Axes restored to original set *****
 -------------------------------------------------------------------
 Center     Atomic                   Forces (Hartrees/Bohr)
 Number     Number              X              Y              Z
 -------------------------------------------------------------------
      1        6          -0.002956661    0.003208995   -0.000000000
      2        8           0.000734846    0.000185595   -0.000000000
      3        7           0.002821300    0.007209732   -0.000000000
      4        6          -0.000087754   -0.000320887    0.000000000
      5        1          -0.000889615   -0.001858143   -0.002020877
      6        1          -0.000889615   -0.001858143    0.002020877
      7        1           0.001530468   -0.001928500    0.000000000
      8        1           0.000422354    0.001531427   -0.002043155
      9        1           0.000422354    0.001531427    0.002043155
     10        8          -0.001107676   -0.007701503    0.000000000
 -------------------------------------------------------------------
 Cartesian Forces:  Max     0.007701503 RMS     0.002424311

 GradGradGradGradGradGradGradGradGradGradGradGradGradGradGradGradGradGrad
 Berny optimization.
 FormGI is forming the generalized inverse of G from B-inverse, IUseBI=4.
 Internal  Forces:  Max     0.007694044 RMS     0.001928969
 Search for a local minimum.
 Step number   1 out of a maximum of   46
 All quantities printed in internal units (Hartrees-Bohrs-Radians)
 Mixed Optimization -- RFO/linear search
 Second derivative matrix not updated -- first step.
 ITU=  0
     Eigenvalues ---    0.00537   0.01114   0.01423   0.05386   0.05623
     Eigenvalues ---    0.05652   0.05797   0.11236   0.13562   0.16000
     Eigenvalues ---    0.16000   0.16000   0.21901   0.25000   0.25000
     Eigenvalues ---    0.30628   0.34196   0.34196   0.34352   0.34451
     Eigenvalues ---    0.34451   0.39081   0.47260   1.12669
 RFO step:  Lambda=-3.02774603D-04 EMin= 5.37031296D-03
 Linear search not attempted -- first point.
 Iteration  1 RMS(Cart)=  0.01346194 RMS(Int)=  0.00008901
 Iteration  2 RMS(Cart)=  0.00009522 RMS(Int)=  0.00000078
 Iteration  3 RMS(Cart)=  0.00000001 RMS(Int)=  0.00000078
 ClnCor:  largest displacement from symmetrization is 6.52D-11 for atom    10.
 Variable       Old X    -DE/DX   Delta X   Delta X   Delta X     New X
                                 (Linear)    (Quad)   (Total)
    R1        2.72822   0.00162   0.00000   0.00415   0.00415   2.73237
    R2        2.86729  -0.00243   0.00000  -0.00791  -0.00791   2.85938
    R3        2.07000  -0.00285   0.00000  -0.00832  -0.00832   2.06168
    R4        2.07000  -0.00285   0.00000  -0.00832  -0.00832   2.06168
    R5        2.62736   0.00163   0.00000   0.00345   0.00345   2.63080
    R6        2.23955  -0.00769   0.00000  -0.00683  -0.00683   2.23273
    R7        2.06740  -0.00246   0.00000  -0.00716  -0.00716   2.06024
    R8        2.06575  -0.00258   0.00000  -0.00749  -0.00749   2.05826
    R9        2.06575  -0.00258   0.00000  -0.00749  -0.00749   2.05826
    A1        1.86731   0.00053   0.00000   0.00184   0.00185   1.86916
    A2        1.90078  -0.00014   0.00000  -0.00070  -0.00070   1.90008
    A3        1.90078  -0.00014   0.00000  -0.00070  -0.00070   1.90008
    A4        1.95985  -0.00035   0.00000  -0.00230  -0.00230   1.95755
    A5        1.95985  -0.00035   0.00000  -0.00230  -0.00230   1.95755
    A6        1.87417   0.00044   0.00000   0.00412   0.00412   1.87828
    A7        2.02649   0.00450   0.00000   0.01798   0.01798   2.04448
    A8        2.00172   0.00260   0.00000   0.01038   0.01038   2.01211
    A9        1.91395  -0.00019   0.00000  -0.00186  -0.00186   1.91209
   A10        1.93639   0.00013   0.00000   0.00117   0.00117   1.93756
   A11        1.93639   0.00013   0.00000   0.00117   0.00117   1.93756
   A12        1.89194  -0.00004   0.00000  -0.00087  -0.00087   1.89107
   A13        1.89194  -0.00004   0.00000  -0.00087  -0.00087   1.89107
   A14        1.89207  -0.00000   0.00000   0.00121   0.00120   1.89327
    D1        3.14159   0.00000   0.00000   0.00000   0.00000   3.14159
    D2       -1.01940  -0.00019   0.00000  -0.00207  -0.00207  -1.02147
    D3        1.01940   0.00019   0.00000   0.00207   0.00207   1.02147
    D4        3.14159  -0.00000   0.00000  -0.00000   0.00000   3.14159
    D5        1.05217   0.00009   0.00000   0.00155   0.00155   1.05372
    D6       -1.05217  -0.00009   0.00000  -0.00155  -0.00155  -1.05372
    D7        1.05707   0.00003   0.00000   0.00101   0.00101   1.05808
    D8       -1.03235   0.00012   0.00000   0.00256   0.00256  -1.02979
    D9       -3.13669  -0.00006   0.00000  -0.00054  -0.00054  -3.13723
   D10       -1.05707  -0.00003   0.00000  -0.00101  -0.00101  -1.05808
   D11        3.13669   0.00006   0.00000   0.00054   0.00054   3.13723
   D12        1.03235  -0.00012   0.00000  -0.00256  -0.00256   1.02979
   D13        0.00000   0.00000   0.00000   0.00000   0.00000   0.00000
         Item               Value     Threshold  Converged?
 Maximum Force            0.007694     0.000450     NO 
 RMS     Force            0.001929     0.000300     NO 
 Maximum Displacement     0.054151     0.001800     NO 
 RMS     Displacement     0.013427     0.001200     NO 
 Predicted change in Energy=-1.515314D-04
 GradGradGradGradGradGradGradGradGradGradGradGradGradGradGradGradGradGrad

                          Input orientation:                          
 ---------------------------------------------------------------------
 Center     Atomic      Atomic             Coordinates (Angstroms)
 Number     Number       Type             X           Y           Z
 ---------------------------------------------------------------------
      1          6           0       -0.828001    0.498012    0.000000
      2          8           0       -0.009720   -0.694074    0.000000
      3          7           0        1.371074   -0.516531    0.000000
      4          6           0       -2.272100    0.046232    0.000000
      5          1           0       -0.583257    1.093923    0.880491
      6          1           0       -0.583257    1.093923   -0.880491
      7          1           0       -2.927105    0.917771    0.000000
      8          1           0       -2.494796   -0.550080    0.883825
      9          1           0       -2.494796   -0.550080   -0.883825
     10          8           0        1.735362    0.607416    0.000000
 ---------------------------------------------------------------------
                    Distance matrix (angstroms):
                    1          2          3          4          5
     1  C    0.000000
     2  O    1.445910   0.000000
     3  N    2.421824   1.392161   0.000000
     4  C    1.513119   2.380424   3.686383   0.000000
     5  H    1.090996   2.073920   2.681088   2.173732   0.000000
     6  H    1.090996   2.073920   2.681088   2.173732   1.760981
     7  H    2.140662   3.333044   4.531177   1.090234   2.509963
     8  H    2.158205   2.641493   3.965756   1.089187   2.521257
     9  H    2.158205   2.641493   3.965756   1.089187   3.077261
    10  O    2.565697   2.176968   1.181509   4.046565   2.527439
                    6          7          8          9         10
     6  H    0.000000
     7  H    2.509963   0.000000
     8  H    3.077261   1.767095   0.000000
     9  H    2.521257   1.767095   1.767649   0.000000
    10  O    2.527439   4.672785   4.473833   4.473833   0.000000
 Stoichiometry    C2H5NO2
 Framework group  CS[SG(C2HNO2),X(H4)]
 Deg. of freedom    15
 Full point group                 CS      NOp   2
 Largest Abelian subgroup         CS      NOp   2
 Largest concise Abelian subgroup CS      NOp   2
                         Standard orientation:                         
 ---------------------------------------------------------------------
 Center     Atomic      Atomic             Coordinates (Angstroms)
 Number     Number       Type             X           Y           Z
 ---------------------------------------------------------------------
      1          6           0        0.650800   -0.566482    0.000000
      2          8           0        0.000000    0.724686    0.000000
      3          7           0       -1.392129    0.734160    0.000000
      4          6           0        2.142485   -0.312704    0.000000
      5          1           0        0.328255   -1.124132    0.880491
      6          1           0        0.328255   -1.124132   -0.880491
      7          1           0        2.674529   -1.264302    0.000000
      8          1           0        2.443235    0.248305    0.883825
      9          1           0        2.443235    0.248305   -0.883825
     10          8           0       -1.904040   -0.330692    0.000000
 ---------------------------------------------------------------------
 Rotational constants (GHZ):          18.4771035           2.9785732           2.6494481
 Basis read from rwf:  (5D, 7F)
 There are   161 symmetry adapted cartesian basis functions of A'  symmetry.
 There are    89 symmetry adapted cartesian basis functions of A"  symmetry.
 There are   138 symmetry adapted basis functions of A'  symmetry.
 There are    82 symmetry adapted basis functions of A"  symmetry.
   220 basis functions,   345 primitive gaussians,   250 cartesian basis functions
    20 alpha electrons       20 beta electrons
       nuclear repulsion energy       178.5851995724 Hartrees.
 NAtoms=   10 NActive=   10 NUniq=    8 SFac= 1.56D+00 NAtFMM=   60 NAOKFM=F Big=F
 Integral buffers will be    131072 words long.
 Raffenetti 2 integral format.
 Two-electron integral symmetry is turned on.
 One-electron integrals computed using PRISM.
 NBasis=   220 RedAO= T EigKep=  5.12D-04  NBF=   138    82
 NBsUse=   220 1.00D-06 EigRej= -1.00D+00 NBFU=   138    82
 Initial guess from the checkpoint file:  "/wrk/irikura/Gau-21508.chk"
 B after Tr=    -0.000000   -0.000000    0.000000
         Rot=    1.000000    0.000000    0.000000    0.000483 Ang=   0.06 deg.
 Initial guess orbital symmetries:
       Occupied  (A') (A') (A') (A') (A') (A') (A') (A') (A') (A')
                 (A') (A") (A') (A") (A') (A') (A") (A') (A") (A')
       Virtual   (A") (A') (A') (A") (A') (A') (A") (A') (A') (A')
                 (A") (A') (A") (A') (A') (A') (A") (A") (A') (A')
                 (A') (A') (A') (A") (A') (A") (A') (A') (A') (A")
                 (A') (A') (A') (A") (A') (A') (A") (A') (A') (A")
                 (A") (A') (A") (A") (A') (A') (A") (A') (A") (A')
                 (A") (A') (A') (A') (A") (A') (A") (A") (A') (A')
                 (A') (A") (A') (A') (A") (A") (A') (A') (A') (A")
                 (A') (A') (A') (A") (A') (A') (A") (A') (A') (A")
                 (A') (A") (A') (A') (A') (A") (A') (A') (A") (A')
                 (A') (A") (A") (A') (A') (A') (A') (A') (A") (A")
                 (A") (A') (A") (A') (A') (A") (A') (A") (A') (A")
                 (A') (A") (A') (A") (A') (A") (A') (A") (A") (A')
                 (A') (A") (A") (A") (A') (A") (A') (A') (A') (A')
                 (A') (A") (A') (A") (A') (A") (A') (A') (A') (A')
                 (A") (A') (A") (A') (A") (A') (A") (A') (A") (A')
                 (A") (A') (A') (A") (A') (A') (A") (A") (A') (A")
                 (A') (A') (A") (A') (A") (A') (A') (A") (A') (A')
                 (A") (A") (A") (A') (A') (A') (A") (A") (A') (A')
                 (A") (A") (A') (A') (A") (A') (A') (A") (A') (A")
                 (A') (A') (A") (A') (A") (A') (A') (A') (A') (A')
 ExpMin= 7.42D-02 ExpMax= 1.36D+04 ExpMxC= 4.64D+02 IAcc=3 IRadAn=         5 AccDes= 0.00D+00
 Harris functional with IExCor=  402 and IRadAn=       5 diagonalized for initial guess.
 HarFok:  IExCor=  402 AccDes= 0.00D+00 IRadAn=         5 IDoV= 1 UseB2=F ITyADJ=14
 ICtDFT=  3500011 ScaDFX=  1.000000  1.000000  1.000000  1.000000
 FoFCou: FMM=F IPFlag=           0 FMFlag=      100000 FMFlg1=           0
         NFxFlg=           0 DoJE=T BraDBF=F KetDBF=T FulRan=T
         wScrn=  0.000000 ICntrl=       500 IOpCl=  0 I1Cent=   200000004 NGrid=           0
         NMat0=    1 NMatS0=      1 NMatT0=    0 NMatD0=    1 NMtDS0=    0 NMtDT0=    0
 Petite list used in FoFCou.
 Keep R1 ints in memory in symmetry-blocked form, NReq=444013409.
 Requested convergence on RMS density matrix=1.00D-08 within 128 cycles.
 Requested convergence on MAX density matrix=1.00D-06.
 Requested convergence on             energy=1.00D-06.
 No special actions if energy rises.
 Integral accuracy reduced to 1.0D-05 until final iterations.
 Initial convergence to 1.0D-05 achieved.  Increase integral accuracy.
 SCF Done:  E(RB3LYP) =  -284.447495590     A.U. after   10 cycles
            NFock= 10  Conv=0.71D-08     -V/T= 2.0034
 Calling FoFJK, ICntrl=      2127 FMM=F ISym2X=1 I1Cent= 0 IOpClX= 0 NMat=1 NMatS=1 NMatT=0.
 ***** Axes restored to original set *****
 -------------------------------------------------------------------
 Center     Atomic                   Forces (Hartrees/Bohr)
 Number     Number              X              Y              Z
 -------------------------------------------------------------------
      1        6           0.000057936    0.001263208    0.000000000
      2        8          -0.000154558   -0.000301550    0.000000000
      3        7           0.002353858    0.002278489   -0.000000000
      4        6           0.000286577   -0.000235704   -0.000000000
      5        1           0.000090906   -0.000197845    0.000137005
      6        1           0.000090906   -0.000197845   -0.000137005
      7        1          -0.000033449    0.000086442   -0.000000000
      8        1          -0.000057614    0.000037038   -0.000009799
      9        1          -0.000057614    0.000037038    0.000009799
     10        8          -0.002576948   -0.002769271    0.000000000
 -------------------------------------------------------------------
 Cartesian Forces:  Max     0.002769271 RMS     0.000949452

 GradGradGradGradGradGradGradGradGradGradGradGradGradGradGradGradGradGrad
 Berny optimization.
 Using GEDIIS/GDIIS optimizer.
 FormGI is forming the generalized inverse of G from B-inverse, IUseBI=4.
 Internal  Forces:  Max     0.003566565 RMS     0.000920353
 Search for a local minimum.
 Step number   2 out of a maximum of   46
 All quantities printed in internal units (Hartrees-Bohrs-Radians)
 Mixed Optimization -- En-DIIS/RFO-DIIS
 Update second derivatives using D2CorX and points    1    2
 DE= -1.23D-04 DEPred=-1.52D-04 R= 8.12D-01
 TightC=F SS=  1.41D+00  RLast= 3.07D-02 DXNew= 5.0454D-01 9.2051D-02
 Trust test= 8.12D-01 RLast= 3.07D-02 DXMaxT set to 3.00D-01
 ITU=  1  0
 Use linear search instead of GDIIS.
     Eigenvalues ---    0.00537   0.01114   0.01423   0.05388   0.05566
     Eigenvalues ---    0.05640   0.05807   0.11230   0.13565   0.15969
     Eigenvalues ---    0.16000   0.16000   0.21583   0.23603   0.28093
     Eigenvalues ---    0.31508   0.34196   0.34289   0.34389   0.34451
     Eigenvalues ---    0.38723   0.42643   0.48179   0.99712
 RFO step:  Lambda=-5.53933534D-05 EMin= 5.37031296D-03
 Quartic linear search produced a step of -0.15309.
 Iteration  1 RMS(Cart)=  0.00613434 RMS(Int)=  0.00003645
 Iteration  2 RMS(Cart)=  0.00003133 RMS(Int)=  0.00000021
 Iteration  3 RMS(Cart)=  0.00000000 RMS(Int)=  0.00000021
 ClnCor:  largest displacement from symmetrization is 2.74D-11 for atom    10.
 Variable       Old X    -DE/DX   Delta X   Delta X   Delta X     New X
                                 (Linear)    (Quad)   (Total)
    R1        2.73237   0.00044  -0.00064   0.00234   0.00170   2.73407
    R2        2.85938  -0.00011   0.00121  -0.00293  -0.00172   2.85766
    R3        2.06168   0.00002   0.00127  -0.00271  -0.00144   2.06025
    R4        2.06168   0.00002   0.00127  -0.00271  -0.00144   2.06025
    R5        2.63080  -0.00028  -0.00053   0.00064   0.00011   2.63092
    R6        2.23273  -0.00343   0.00105  -0.00487  -0.00382   2.22891
    R7        2.06024   0.00009   0.00110  -0.00216  -0.00106   2.05918
    R8        2.05826  -0.00002   0.00115  -0.00253  -0.00138   2.05688
    R9        2.05826  -0.00002   0.00115  -0.00253  -0.00138   2.05688
    A1        1.86916   0.00012  -0.00028   0.00064   0.00035   1.86951
    A2        1.90008  -0.00015   0.00011  -0.00163  -0.00153   1.89856
    A3        1.90008  -0.00015   0.00011  -0.00163  -0.00153   1.89856
    A4        1.95755   0.00002   0.00035  -0.00026   0.00009   1.95764
    A5        1.95755   0.00002   0.00035  -0.00026   0.00009   1.95764
    A6        1.87828   0.00012  -0.00063   0.00298   0.00235   1.88063
    A7        2.04448  -0.00236  -0.00275  -0.00204  -0.00479   2.03969
    A8        2.01211  -0.00357  -0.00159  -0.00864  -0.01023   2.00188
    A9        1.91209  -0.00008   0.00029  -0.00119  -0.00091   1.91118
   A10        1.93756   0.00008  -0.00018   0.00089   0.00071   1.93827
   A11        1.93756   0.00008  -0.00018   0.00089   0.00071   1.93827
   A12        1.89107  -0.00002   0.00013  -0.00058  -0.00045   1.89062
   A13        1.89107  -0.00002   0.00013  -0.00058  -0.00045   1.89062
   A14        1.89327  -0.00004  -0.00018   0.00052   0.00034   1.89361
    D1        3.14159  -0.00000   0.00000  -0.00000   0.00000   3.14159
    D2       -1.02147   0.00001   0.00032  -0.00087  -0.00055  -1.02202
    D3        1.02147  -0.00001  -0.00032   0.00087   0.00055   1.02202
    D4        3.14159   0.00000   0.00000   0.00000   0.00000   3.14159
    D5        1.05372   0.00003  -0.00024   0.00093   0.00069   1.05441
    D6       -1.05372  -0.00003   0.00024  -0.00093  -0.00069  -1.05441
    D7        1.05808   0.00009  -0.00015   0.00175   0.00159   1.05967
    D8       -1.02979   0.00012  -0.00039   0.00268   0.00229  -1.02751
    D9       -3.13723   0.00006   0.00008   0.00082   0.00090  -3.13633
   D10       -1.05808  -0.00009   0.00015  -0.00175  -0.00159  -1.05967
   D11        3.13723  -0.00006  -0.00008  -0.00082  -0.00090   3.13633
   D12        1.02979  -0.00012   0.00039  -0.00268  -0.00229   1.02751
   D13        0.00000  -0.00000   0.00000  -0.00000   0.00000   0.00000
         Item               Value     Threshold  Converged?
 Maximum Force            0.003567     0.000450     NO 
 RMS     Force            0.000920     0.000300     NO 
 Maximum Displacement     0.030115     0.001800     NO 
 RMS     Displacement     0.006130     0.001200     NO 
 Predicted change in Energy=-3.179334D-05
 GradGradGradGradGradGradGradGradGradGradGradGradGradGradGradGradGradGrad

                          Input orientation:                          
 ---------------------------------------------------------------------
 Center     Atomic      Atomic             Coordinates (Angstroms)
 Number     Number       Type             X           Y           Z
 ---------------------------------------------------------------------
      1          6           0       -0.826252    0.496299    0.000000
      2          8           0       -0.008774   -0.697430    0.000000
      3          7           0        1.371414   -0.514787    0.000000
      4          6           0       -2.270139    0.046890    0.000000
      5          1           0       -0.580303    1.090109    0.880633
      6          1           0       -0.580303    1.090109   -0.880633
      7          1           0       -2.922746    0.919522    0.000000
      8          1           0       -2.494460   -0.548195    0.883338
      9          1           0       -2.494460   -0.548195   -0.883338
     10          8           0        1.719426    0.612189    0.000000
 ---------------------------------------------------------------------
                    Distance matrix (angstroms):
                    1          2          3          4          5
     1  C    0.000000
     2  O    1.446810   0.000000
     3  N    2.419098   1.392221   0.000000
     4  C    1.512209   2.380710   3.684615   0.000000
     5  H    1.090236   2.073030   2.675893   2.172410   0.000000
     6  H    1.090236   2.073030   2.675893   2.172410   1.761265
     7  H    2.138786   3.332531   4.527367   1.089671   2.508317
     8  H    2.157353   2.642194   3.965651   1.088454   2.519533
     9  H    2.157353   2.642194   3.965651   1.088454   3.075651
    10  O    2.548315   2.168359   1.179486   4.029416   2.508521
                    6          7          8          9         10
     6  H    0.000000
     7  H    2.508317   0.000000
     8  H    3.075651   1.765760   0.000000
     9  H    2.519533   1.765760   1.766675   0.000000
    10  O    2.508521   4.652334   4.459105   4.459105   0.000000
 Stoichiometry    C2H5NO2
 Framework group  CS[SG(C2HNO2),X(H4)]
 Deg. of freedom    15
 Full point group                 CS      NOp   2
 Largest Abelian subgroup         CS      NOp   2
 Largest concise Abelian subgroup CS      NOp   2
                         Standard orientation:                         
 ---------------------------------------------------------------------
 Center     Atomic      Atomic             Coordinates (Angstroms)
 Number     Number       Type             X           Y           Z
 ---------------------------------------------------------------------
      1          6           0        0.645301   -0.566131    0.000000
      2          8           0        0.000000    0.728800    0.000000
      3          7           0       -1.392191    0.737963    0.000000
      4          6           0        2.137319   -0.319841    0.000000
      5          1           0        0.319921   -1.120414    0.880633
      6          1           0        0.319921   -1.120414   -0.880633
      7          1           0        2.663538   -1.274030    0.000000
      8          1           0        2.441452    0.238683    0.883338
      9          1           0        2.441452    0.238683   -0.883338
     10          8           0       -1.892083   -0.330352    0.000000
 ---------------------------------------------------------------------
 Rotational constants (GHZ):          18.4070851           2.9970324           2.6625484
 Basis read from rwf:  (5D, 7F)
 There are   161 symmetry adapted cartesian basis functions of A'  symmetry.
 There are    89 symmetry adapted cartesian basis functions of A"  symmetry.
 There are   138 symmetry adapted basis functions of A'  symmetry.
 There are    82 symmetry adapted basis functions of A"  symmetry.
   220 basis functions,   345 primitive gaussians,   250 cartesian basis functions
    20 alpha electrons       20 beta electrons
       nuclear repulsion energy       178.8496251152 Hartrees.
 NAtoms=   10 NActive=   10 NUniq=    8 SFac= 1.56D+00 NAtFMM=   60 NAOKFM=F Big=F
 Integral buffers will be    131072 words long.
 Raffenetti 2 integral format.
 Two-electron integral symmetry is turned on.
 One-electron integrals computed using PRISM.
 NBasis=   220 RedAO= T EigKep=  5.08D-04  NBF=   138    82
 NBsUse=   220 1.00D-06 EigRej= -1.00D+00 NBFU=   138    82
 Initial guess from the checkpoint file:  "/wrk/irikura/Gau-21508.chk"
 B after Tr=     0.000000    0.000000   -0.000000
         Rot=    0.999999   -0.000000    0.000000    0.001078 Ang=   0.12 deg.
 Initial guess orbital symmetries:
       Occupied  (A') (A') (A') (A') (A') (A') (A') (A') (A') (A')
                 (A') (A") (A') (A") (A') (A') (A") (A') (A") (A')
       Virtual   (A") (A') (A') (A") (A') (A') (A") (A') (A') (A')
                 (A") (A') (A") (A') (A') (A') (A") (A") (A') (A')
                 (A') (A') (A') (A") (A') (A") (A') (A') (A') (A")
                 (A') (A') (A') (A") (A') (A') (A") (A') (A') (A")
                 (A") (A') (A") (A") (A') (A') (A") (A') (A") (A')
                 (A") (A') (A') (A') (A") (A') (A") (A") (A') (A')
                 (A') (A") (A') (A') (A") (A") (A') (A') (A') (A")
                 (A') (A') (A') (A") (A') (A') (A") (A') (A') (A")
                 (A') (A") (A') (A') (A') (A") (A') (A') (A") (A')
                 (A") (A') (A") (A') (A') (A') (A') (A') (A") (A")
                 (A") (A') (A") (A') (A') (A") (A') (A") (A') (A")
                 (A') (A") (A') (A") (A') (A") (A') (A") (A") (A')
                 (A') (A") (A") (A") (A') (A") (A') (A') (A') (A')
                 (A') (A") (A') (A") (A') (A") (A') (A') (A') (A')
                 (A") (A') (A") (A') (A") (A') (A") (A') (A") (A')
                 (A") (A') (A') (A") (A') (A') (A") (A") (A') (A")
                 (A') (A') (A") (A') (A") (A') (A') (A") (A') (A')
                 (A") (A") (A") (A') (A') (A") (A') (A") (A') (A')
                 (A") (A") (A') (A') (A") (A') (A') (A") (A') (A")
                 (A') (A') (A") (A') (A") (A') (A') (A') (A') (A')
 ExpMin= 7.42D-02 ExpMax= 1.36D+04 ExpMxC= 4.64D+02 IAcc=3 IRadAn=         5 AccDes= 0.00D+00
 Harris functional with IExCor=  402 and IRadAn=       5 diagonalized for initial guess.
 HarFok:  IExCor=  402 AccDes= 0.00D+00 IRadAn=         5 IDoV= 1 UseB2=F ITyADJ=14
 ICtDFT=  3500011 ScaDFX=  1.000000  1.000000  1.000000  1.000000
 FoFCou: FMM=F IPFlag=           0 FMFlag=      100000 FMFlg1=           0
         NFxFlg=           0 DoJE=T BraDBF=F KetDBF=T FulRan=T
         wScrn=  0.000000 ICntrl=       500 IOpCl=  0 I1Cent=   200000004 NGrid=           0
         NMat0=    1 NMatS0=      1 NMatT0=    0 NMatD0=    1 NMtDS0=    0 NMtDT0=    0
 Petite list used in FoFCou.
 Keep R1 ints in memory in symmetry-blocked form, NReq=444013409.
 Requested convergence on RMS density matrix=1.00D-08 within 128 cycles.
 Requested convergence on MAX density matrix=1.00D-06.
 Requested convergence on             energy=1.00D-06.
 No special actions if energy rises.
 Integral accuracy reduced to 1.0D-05 until final iterations.
 Initial convergence to 1.0D-05 achieved.  Increase integral accuracy.
 SCF Done:  E(RB3LYP) =  -284.447511626     A.U. after   10 cycles
            NFock= 10  Conv=0.47D-08     -V/T= 2.0033
 Calling FoFJK, ICntrl=      2127 FMM=F ISym2X=1 I1Cent= 0 IOpClX= 0 NMat=1 NMatS=1 NMatT=0.
 ***** Axes restored to original set *****
 -------------------------------------------------------------------
 Center     Atomic                   Forces (Hartrees/Bohr)
 Number     Number              X              Y              Z
 -------------------------------------------------------------------
      1        6           0.000268815    0.000025649   -0.000000000
      2        8          -0.001158012   -0.001732710    0.000000000
      3        7          -0.000451070    0.001365127   -0.000000000
      4        6           0.000225435   -0.000130151   -0.000000000
      5        1           0.000136277    0.000230953    0.000346547
      6        1           0.000136277    0.000230953   -0.000346547
      7        1          -0.000299562    0.000395395    0.000000000
      8        1          -0.000130719   -0.000253436    0.000365104
      9        1          -0.000130719   -0.000253436   -0.000365104
     10        8           0.001403280    0.000121655   -0.000000000
 -------------------------------------------------------------------
 Cartesian Forces:  Max     0.001732710 RMS     0.000565518

 GradGradGradGradGradGradGradGradGradGradGradGradGradGradGradGradGradGrad
 Berny optimization.
 Using GEDIIS/GDIIS optimizer.
 FormGI is forming the generalized inverse of G from B-inverse, IUseBI=4.
 Internal  Forces:  Max     0.002908854 RMS     0.000570493
 Search for a local minimum.
 Step number   3 out of a maximum of   46
 All quantities printed in internal units (Hartrees-Bohrs-Radians)
 Mixed Optimization -- En-DIIS/RFO-DIIS
 Swapping is turned off.
 Update second derivatives using D2CorX and points    1    2    3
 DE= -1.60D-05 DEPred=-3.18D-05 R= 5.04D-01
 TightC=F SS=  1.41D+00  RLast= 1.37D-02 DXNew= 5.0454D-01 4.1193D-02
 Trust test= 5.04D-01 RLast= 1.37D-02 DXMaxT set to 3.00D-01
 ITU=  1  1  0
     Eigenvalues ---    0.00537   0.01114   0.01423   0.05390   0.05392
     Eigenvalues ---    0.05632   0.05812   0.11255   0.13565   0.15880
     Eigenvalues ---    0.16000   0.16001   0.21668   0.24769   0.30999
     Eigenvalues ---    0.34190   0.34196   0.34379   0.34451   0.36384
     Eigenvalues ---    0.39186   0.43315   0.58829   0.95889
 En-DIIS/RFO-DIIS/Sim-DIIS IScMMF=       -3 using points:     3    2
 RFO step:  Lambda=-2.07394257D-05.
 DidBck=F Rises=F RFO-DIIS coefs:    0.80033    0.19967
 Iteration  1 RMS(Cart)=  0.00141929 RMS(Int)=  0.00000210
 Iteration  2 RMS(Cart)=  0.00000218 RMS(Int)=  0.00000004
 Iteration  3 RMS(Cart)=  0.00000000 RMS(Int)=  0.00000004
 ClnCor:  largest displacement from symmetrization is 8.14D-11 for atom    10.
 Variable       Old X    -DE/DX   Delta X   Delta X   Delta X     New X
                                 (Linear)    (Quad)   (Total)
    R1        2.73407   0.00009  -0.00034   0.00065   0.00031   2.73438
    R2        2.85766   0.00039   0.00034   0.00035   0.00069   2.85836
    R3        2.06025   0.00044   0.00029   0.00046   0.00075   2.06100
    R4        2.06025   0.00044   0.00029   0.00046   0.00075   2.06100
    R5        2.63092   0.00114  -0.00002   0.00143   0.00140   2.63232
    R6        2.22891   0.00053   0.00076  -0.00092  -0.00016   2.22875
    R7        2.05918   0.00050   0.00021   0.00067   0.00088   2.06006
    R8        2.05688   0.00046   0.00028   0.00050   0.00078   2.05766
    R9        2.05688   0.00046   0.00028   0.00050   0.00078   2.05766
    A1        1.86951  -0.00017  -0.00007  -0.00046  -0.00053   1.86898
    A2        1.89856   0.00003   0.00030  -0.00059  -0.00028   1.89827
    A3        1.89856   0.00003   0.00030  -0.00059  -0.00028   1.89827
    A4        1.95764   0.00007  -0.00002   0.00037   0.00035   1.95799
    A5        1.95764   0.00007  -0.00002   0.00037   0.00035   1.95799
    A6        1.88063  -0.00004  -0.00047   0.00081   0.00034   1.88097
    A7        2.03969  -0.00064   0.00096  -0.00371  -0.00276   2.03693
    A8        2.00188   0.00291   0.00204   0.00316   0.00520   2.00708
    A9        1.91118  -0.00002   0.00018  -0.00038  -0.00020   1.91098
   A10        1.93827   0.00005  -0.00014   0.00042   0.00028   1.93855
   A11        1.93827   0.00005  -0.00014   0.00042   0.00028   1.93855
   A12        1.89062  -0.00002   0.00009  -0.00026  -0.00017   1.89045
   A13        1.89062  -0.00002   0.00009  -0.00026  -0.00017   1.89045
   A14        1.89361  -0.00004  -0.00007   0.00002  -0.00005   1.89356
    D1        3.14159   0.00000  -0.00000  -0.00000   0.00000   3.14159
    D2       -1.02202   0.00000   0.00011  -0.00015  -0.00004  -1.02206
    D3        1.02202  -0.00000  -0.00011   0.00015   0.00004   1.02206
    D4        3.14159  -0.00000  -0.00000  -0.00000   0.00000   3.14159
    D5        1.05441   0.00001  -0.00014   0.00030   0.00016   1.05457
    D6       -1.05441  -0.00001   0.00014  -0.00030  -0.00016  -1.05457
    D7        1.05967   0.00003  -0.00032   0.00079   0.00048   1.06015
    D8       -1.02751   0.00003  -0.00046   0.00109   0.00064  -1.02687
    D9       -3.13633   0.00002  -0.00018   0.00050   0.00032  -3.13602
   D10       -1.05967  -0.00003   0.00032  -0.00079  -0.00048  -1.06015
   D11        3.13633  -0.00002   0.00018  -0.00050  -0.00032   3.13602
   D12        1.02751  -0.00003   0.00046  -0.00109  -0.00064   1.02687
   D13        0.00000   0.00000   0.00000  -0.00000   0.00000   0.00000
         Item               Value     Threshold  Converged?
 Maximum Force            0.002909     0.000450     NO 
 RMS     Force            0.000570     0.000300     NO 
 Maximum Displacement     0.005804     0.001800     NO 
 RMS     Displacement     0.001418     0.001200     NO 
 Predicted change in Energy=-1.037019D-05
 GradGradGradGradGradGradGradGradGradGradGradGradGradGradGradGradGradGrad

                          Input orientation:                          
 ---------------------------------------------------------------------
 Center     Atomic      Atomic             Coordinates (Angstroms)
 Number     Number       Type             X           Y           Z
 ---------------------------------------------------------------------
      1          6           0       -0.826312    0.495977    0.000000
      2          8           0       -0.009601   -0.698475    0.000000
      3          7           0        1.370948   -0.512920    0.000000
      4          6           0       -2.270636    0.046734    0.000000
      5          1           0       -0.579672    1.089593    0.881061
      6          1           0       -0.579672    1.089593   -0.881061
      7          1           0       -2.923181    0.919997    0.000000
      8          1           0       -2.495485   -0.548429    0.883657
      9          1           0       -2.495485   -0.548429   -0.883657
     10          8           0        1.722498    0.612871    0.000000
 ---------------------------------------------------------------------
                    Distance matrix (angstroms):
                    1          2          3          4          5
     1  C    0.000000
     2  O    1.446973   0.000000
     3  N    2.417815   1.392963   0.000000
     4  C    1.512577   2.380675   3.684338   0.000000
     5  H    1.090633   2.073267   2.673806   2.173288   0.000000
     6  H    1.090633   2.073267   2.673806   2.173288   1.762122
     7  H    2.139311   3.332926   4.526897   1.090139   2.509396
     8  H    2.158187   2.642533   3.966285   1.088864   2.520608
     9  H    2.158187   2.642533   3.966285   1.088864   3.076960
    10  O    2.551489   2.172509   1.179404   4.033067   2.510680
                    6          7          8          9         10
     6  H    0.000000
     7  H    2.509396   0.000000
     8  H    3.076960   1.766366   0.000000
     9  H    2.520608   1.766366   1.767313   0.000000
    10  O    2.510680   4.655820   4.463278   4.463278   0.000000
 Stoichiometry    C2H5NO2
 Framework group  CS[SG(C2HNO2),X(H4)]
 Deg. of freedom    15
 Full point group                 CS      NOp   2
 Largest Abelian subgroup         CS      NOp   2
 Largest concise Abelian subgroup CS      NOp   2
                         Standard orientation:                         
 ---------------------------------------------------------------------
 Center     Atomic      Atomic             Coordinates (Angstroms)
 Number     Number       Type             X           Y           Z
 ---------------------------------------------------------------------
      1          6           0        0.646633   -0.564606    0.000000
      2          8           0        0.000000    0.729842    0.000000
      3          7           0       -1.392958    0.733814    0.000000
      4          6           0        2.138643   -0.316017    0.000000
      5          1           0        0.321534   -1.119153    0.881061
      6          1           0        0.321534   -1.119153   -0.881061
      7          1           0        2.666329   -1.269930    0.000000
      8          1           0        2.442365    0.243027    0.883657
      9          1           0        2.442365    0.243027   -0.883657
     10          8           0       -1.894385   -0.333690    0.000000
 ---------------------------------------------------------------------
 Rotational constants (GHZ):          18.4016592           2.9936041           2.6598034
 Basis read from rwf:  (5D, 7F)
 There are   161 symmetry adapted cartesian basis functions of A'  symmetry.
 There are    89 symmetry adapted cartesian basis functions of A"  symmetry.
 There are   138 symmetry adapted basis functions of A'  symmetry.
 There are    82 symmetry adapted basis functions of A"  symmetry.
   220 basis functions,   345 primitive gaussians,   250 cartesian basis functions
    20 alpha electrons       20 beta electrons
       nuclear repulsion energy       178.7788831086 Hartrees.
 NAtoms=   10 NActive=   10 NUniq=    8 SFac= 1.56D+00 NAtFMM=   60 NAOKFM=F Big=F
 Integral buffers will be    131072 words long.
 Raffenetti 2 integral format.
 Two-electron integral symmetry is turned on.
 One-electron integrals computed using PRISM.
 NBasis=   220 RedAO= T EigKep=  5.09D-04  NBF=   138    82
 NBsUse=   220 1.00D-06 EigRej= -1.00D+00 NBFU=   138    82
 Initial guess from the checkpoint file:  "/wrk/irikura/Gau-21508.chk"
 B after Tr=    -0.000000   -0.000000    0.000000
         Rot=    1.000000   -0.000000   -0.000000   -0.000889 Ang=  -0.10 deg.
 Initial guess orbital symmetries:
       Occupied  (A') (A') (A') (A') (A') (A') (A') (A') (A') (A')
                 (A') (A") (A') (A") (A') (A') (A") (A') (A") (A')
       Virtual   (A") (A') (A') (A") (A') (A') (A") (A') (A') (A')
                 (A") (A') (A") (A') (A') (A') (A") (A") (A') (A')
                 (A') (A') (A') (A") (A') (A") (A') (A') (A') (A")
                 (A') (A') (A') (A") (A') (A') (A") (A') (A') (A")
                 (A") (A') (A") (A") (A') (A') (A") (A') (A") (A')
                 (A") (A') (A') (A') (A") (A') (A") (A") (A') (A')
                 (A') (A") (A') (A') (A") (A") (A') (A') (A') (A")
                 (A') (A') (A') (A") (A') (A') (A") (A') (A') (A")
                 (A') (A") (A') (A') (A') (A") (A') (A') (A") (A')
                 (A") (A') (A") (A') (A') (A') (A') (A') (A") (A")
                 (A") (A') (A") (A') (A') (A") (A') (A") (A') (A")
                 (A') (A") (A') (A") (A') (A") (A') (A") (A") (A')
                 (A') (A") (A") (A") (A') (A") (A') (A') (A') (A')
                 (A') (A") (A') (A") (A') (A") (A') (A') (A') (A')
                 (A") (A') (A") (A') (A") (A') (A") (A') (A") (A')
                 (A") (A') (A') (A") (A') (A') (A") (A") (A') (A")
                 (A') (A') (A") (A') (A") (A') (A') (A") (A') (A')
                 (A") (A") (A") (A') (A') (A") (A') (A") (A') (A')
                 (A") (A") (A') (A') (A") (A') (A') (A") (A') (A")
                 (A') (A') (A") (A') (A") (A') (A') (A') (A') (A')
 Keep R1 ints in memory in symmetry-blocked form, NReq=444013409.
 Requested convergence on RMS density matrix=1.00D-08 within 128 cycles.
 Requested convergence on MAX density matrix=1.00D-06.
 Requested convergence on             energy=1.00D-06.
 No special actions if energy rises.
 SCF Done:  E(RB3LYP) =  -284.447522264     A.U. after    8 cycles
            NFock=  8  Conv=0.43D-08     -V/T= 2.0033
 Calling FoFJK, ICntrl=      2127 FMM=F ISym2X=1 I1Cent= 0 IOpClX= 0 NMat=1 NMatS=1 NMatT=0.
 ***** Axes restored to original set *****
 -------------------------------------------------------------------
 Center     Atomic                   Forces (Hartrees/Bohr)
 Number     Number              X              Y              Z
 -------------------------------------------------------------------
      1        6          -0.000019048   -0.000076115    0.000000000
[...]
 Vib (Bot)    2  0.852029D+00         -0.069545         -0.160134
 Vib (Bot)    3  0.778893D+00         -0.108522         -0.249881
 Vib (Bot)    4  0.497554D+00         -0.303160         -0.698051
 Vib (Bot)    5  0.493023D+00         -0.307133         -0.707199
 Vib (V=0)       0.103098D+02          1.013252          2.333099
 Vib (V=0)    1  0.302931D+01          0.481344          1.108335
 Vib (V=0)    2  0.148790D+01          0.172575          0.397368
 Vib (V=0)    3  0.142557D+01          0.153988          0.354570
 Vib (V=0)    4  0.120538D+01          0.081124          0.186794
 Vib (V=0)    5  0.120219D+01          0.079973          0.184145
 Electronic      0.100000D+01          0.000000          0.000000
 Translational   0.255461D+08          7.407324         17.055994
 Rotational      0.717563D+05          4.855860         11.181031
 ***** Axes restored to original set *****
 -------------------------------------------------------------------
 Center     Atomic                   Forces (Hartrees/Bohr)
 Number     Number              X              Y              Z
 -------------------------------------------------------------------
      1        6           0.000063418   -0.000074570   -0.000000000
      2        8          -0.000442597    0.000030516    0.000000000
      3        7           0.000430877    0.000068884   -0.000000000
      4        6          -0.000011507    0.000013515   -0.000000000
      5        1          -0.000005013    0.000008964   -0.000004056
      6        1          -0.000005013    0.000008964    0.000004056
      7        1           0.000013919   -0.000012510   -0.000000000
      8        1           0.000009725    0.000000130   -0.000004551
      9        1           0.000009725    0.000000130    0.000004551
     10        8          -0.000063535   -0.000044023    0.000000000
 -------------------------------------------------------------------
 Cartesian Forces:  Max     0.000442597 RMS     0.000116035
 FormGI is forming the generalized inverse of G from B-inverse, IUseBI=4.

 GradGradGradGradGradGradGradGradGradGradGradGradGradGradGradGradGradGrad
 Berny optimization.
 Internal  Forces:  Max     0.000367268 RMS     0.000067002
 Search for a local minimum.
 Step number   1 out of a maximum of    2
 All quantities printed in internal units (Hartrees-Bohrs-Radians)
 Second derivative matrix not updated -- analytic derivatives used.
 ITU=  0
     Eigenvalues ---    0.00235   0.00386   0.04357   0.04472   0.04494
     Eigenvalues ---    0.04851   0.06222   0.08957   0.11790   0.12411
     Eigenvalues ---    0.13184   0.14501   0.16531   0.22513   0.25809
     Eigenvalues ---    0.30532   0.32928   0.33661   0.33774   0.34393
     Eigenvalues ---    0.34678   0.37775   0.57146   0.88643
 Angle between quadratic step and forces=  20.59 degrees.
 Linear search not attempted -- first point.
 Iteration  1 RMS(Cart)=  0.00040801 RMS(Int)=  0.00000014
 Iteration  2 RMS(Cart)=  0.00000012 RMS(Int)=  0.00000003
 ClnCor:  largest displacement from symmetrization is 1.70D-09 for atom    10.
 Variable       Old X    -DE/DX   Delta X   Delta X   Delta X     New X
                                 (Linear)    (Quad)   (Total)
    R1        2.73502  -0.00009   0.00000  -0.00088  -0.00088   2.73414
    R2        2.85890  -0.00002   0.00000   0.00007   0.00007   2.85897
    R3        2.06149   0.00000   0.00000   0.00008   0.00008   2.06157
    R4        2.06149   0.00000   0.00000   0.00008   0.00008   2.06157
    R5        2.63405   0.00037   0.00000   0.00273   0.00273   2.63678
    R6        2.22858  -0.00006   0.00000  -0.00053  -0.00053   2.22805
    R7        2.06071  -0.00002   0.00000  -0.00006  -0.00006   2.06065
    R8        2.05821  -0.00001   0.00000  -0.00001  -0.00001   2.05820
    R9        2.05821  -0.00001   0.00000  -0.00001  -0.00001   2.05820
    A1        1.86913  -0.00003   0.00000   0.00005   0.00005   1.86918
    A2        1.89828   0.00001   0.00000   0.00034   0.00034   1.89862
    A3        1.89828   0.00001   0.00000   0.00034   0.00034   1.89862
    A4        1.95791   0.00000   0.00000  -0.00023  -0.00023   1.95768
    A5        1.95791   0.00000   0.00000  -0.00023  -0.00023   1.95768
    A6        1.88098  -0.00001   0.00000  -0.00022  -0.00022   1.88075
    A7        2.03689  -0.00004   0.00000  -0.00056  -0.00056   2.03633
    A8        2.00678  -0.00011   0.00000  -0.00044  -0.00044   2.00635
    A9        1.91133  -0.00000   0.00000   0.00009   0.00009   1.91142
   A10        1.93850  -0.00001   0.00000  -0.00012  -0.00012   1.93838
   A11        1.93850  -0.00001   0.00000  -0.00012  -0.00012   1.93838
   A12        1.89035   0.00001   0.00000   0.00010   0.00010   1.89045
   A13        1.89035   0.00001   0.00000   0.00010   0.00010   1.89045
   A14        1.89352   0.00001   0.00000  -0.00003  -0.00003   1.89349
    D1        3.14159   0.00000   0.00000  -0.00000   0.00000   3.14159
    D2       -1.02207  -0.00000   0.00000  -0.00006  -0.00006  -1.02213
    D3        1.02207   0.00000   0.00000   0.00006   0.00006   1.02213
    D4        3.14159  -0.00000   0.00000  -0.00000   0.00000   3.14159
    D5        1.05451  -0.00000   0.00000  -0.00010  -0.00010   1.05441
    D6       -1.05451   0.00000   0.00000   0.00010   0.00010  -1.05441
    D7        1.06009  -0.00000   0.00000  -0.00031  -0.00031   1.05978
    D8       -1.02699  -0.00000   0.00000  -0.00042  -0.00042  -1.02740
    D9       -3.13601   0.00000   0.00000  -0.00021  -0.00021  -3.13622
   D10       -1.06009   0.00000   0.00000   0.00031   0.00031  -1.05978
   D11        3.13601  -0.00000   0.00000   0.00021   0.00021   3.13622
   D12        1.02699   0.00000   0.00000   0.00042   0.00042   1.02740
   D13        0.00000   0.00000   0.00000  -0.00000   0.00000   0.00000
         Item               Value     Threshold  Converged?
 Maximum Force            0.000367     0.000450     YES
 RMS     Force            0.000067     0.000300     YES
 Maximum Displacement     0.001600     0.001800     YES
 RMS     Displacement     0.000408     0.001200     YES
 Predicted change in Energy=-6.003358D-07
 Optimization completed.
    -- Stationary point found.
                           ----------------------------
                           !   Optimized Parameters   !
                           ! (Angstroms and Degrees)  !
 --------------------------                            --------------------------
 ! Name  Definition              Value          Derivative Info.                !
 --------------------------------------------------------------------------------
 ! R1    R(1,2)                  1.4473         -DE/DX =   -0.0001              !
 ! R2    R(1,4)                  1.5129         -DE/DX =    0.0                 !
 ! R3    R(1,5)                  1.0909         -DE/DX =    0.0                 !
 ! R4    R(1,6)                  1.0909         -DE/DX =    0.0                 !
 ! R5    R(2,3)                  1.3939         -DE/DX =    0.0004              !
 ! R6    R(3,10)                 1.1793         -DE/DX =   -0.0001              !
 ! R7    R(4,7)                  1.0905         -DE/DX =    0.0                 !
 ! R8    R(4,8)                  1.0892         -DE/DX =    0.0                 !
 ! R9    R(4,9)                  1.0892         -DE/DX =    0.0                 !
 ! A1    A(2,1,4)              107.0932         -DE/DX =    0.0                 !
 ! A2    A(2,1,5)              108.7636         -DE/DX =    0.0                 !
 ! A3    A(2,1,6)              108.7636         -DE/DX =    0.0                 !
 ! A4    A(4,1,5)              112.1801         -DE/DX =    0.0                 !
 ! A5    A(4,1,6)              112.1801         -DE/DX =    0.0                 !
 ! A6    A(5,1,6)              107.7719         -DE/DX =    0.0                 !
 ! A7    A(1,2,3)              116.7053         -DE/DX =    0.0                 !
 ! A8    A(2,3,10)             114.9803         -DE/DX =   -0.0001              !
 ! A9    A(1,4,7)              109.5111         -DE/DX =    0.0                 !
 ! A10   A(1,4,8)              111.0679         -DE/DX =    0.0                 !
 ! A11   A(1,4,9)              111.0679         -DE/DX =    0.0                 !
 ! A12   A(7,4,8)              108.3091         -DE/DX =    0.0                 !
 ! A13   A(7,4,9)              108.3091         -DE/DX =    0.0                 !
 ! A14   A(8,4,9)              108.4905         -DE/DX =    0.0                 !
 ! D1    D(4,1,2,3)            180.0            -DE/DX =    0.0                 !
 ! D2    D(5,1,2,3)            -58.5603         -DE/DX =    0.0                 !
 ! D3    D(6,1,2,3)             58.5603         -DE/DX =    0.0                 !
 ! D4    D(2,1,4,7)            180.0            -DE/DX =    0.0                 !
 ! D5    D(2,1,4,8)             60.419          -DE/DX =    0.0                 !
 ! D6    D(2,1,4,9)            -60.419          -DE/DX =    0.0                 !
 ! D7    D(5,1,4,7)             60.7389         -DE/DX =    0.0                 !
 ! D8    D(5,1,4,8)            -58.8421         -DE/DX =    0.0                 !
 ! D9    D(5,1,4,9)           -179.68           -DE/DX =    0.0                 !
 ! D10   D(6,1,4,7)            -60.7389         -DE/DX =    0.0                 !
 ! D11   D(6,1,4,8)            179.68           -DE/DX =    0.0                 !
 ! D12   D(6,1,4,9)             58.8421         -DE/DX =    0.0                 !
 ! D13   D(1,2,3,10)             0.0            -DE/DX =    0.0                 !
 --------------------------------------------------------------------------------
 GradGradGradGradGradGradGradGradGradGradGradGradGradGradGradGradGradGrad


 ----------------------------------------------------------------------

 Electric dipole moment (input orientation):
 (Debye = 10**-18 statcoulomb cm , SI units = C m)
                  (au)            (Debye)         (10**-30 SI)
   Tot        0.100013D+01      0.254209D+01      0.847949D+01
   x         -0.905982D+00     -0.230278D+01     -0.768124D+01
   y          0.423631D+00      0.107676D+01      0.359169D+01
   z          0.000000D+00      0.000000D+00      0.000000D+00

 Dipole polarizability, Alpha (input orientation).
 (esu units = cm**3 , SI units = C**2 m**2 J**-1)
 Alpha(0;0):
               (au)            (10**-24 esu)      (10**-40 SI)
   iso        0.427895D+02      0.634076D+01      0.705504D+01
   aniso      0.211222D+02      0.312999D+01      0.348258D+01
   xx         0.561742D+02      0.832416D+01      0.926187D+01
   yx         0.196937D+01      0.291831D+00      0.324705D+00
   yy         0.393338D+02      0.582867D+01      0.648527D+01
   zx         0.000000D+00      0.000000D+00      0.000000D+00
   zy         0.000000D+00      0.000000D+00      0.000000D+00
   zz         0.328606D+02      0.486944D+01      0.541798D+01

 ----------------------------------------------------------------------

 Dipole orientation:
     6          0.07945257          0.16991825          1.81153478
     8         -0.50983840         -1.09034667         -0.54320621
     7          0.09323051          0.19938392         -2.75930994
     6         -0.73602579         -1.57407380          3.92501941
     1          2.10221051          0.56411339          1.86454822
     1         -0.91497309          1.97492714          1.86454822
     1         -0.32412119         -0.69316957          5.74185162
     1          0.26909398         -3.36783981          3.83349864
     1         -2.75701269         -1.95285371          3.83349864
     8          1.02860179          2.19978042         -2.45921200

 Electric dipole moment (dipole orientation):
 (Debye = 10**-18 statcoulomb cm , SI units = C m)
                  (au)            (Debye)         (10**-30 SI)
   Tot        0.100013D+01      0.254209D+01      0.847949D+01
   x          0.000000D+00      0.000000D+00      0.000000D+00
   y          0.000000D+00      0.000000D+00      0.000000D+00
   z          0.100013D+01      0.254209D+01      0.847949D+01

 Dipole polarizability, Alpha (dipole orientation).
 (esu units = cm**3 , SI units = C**2 m**2 J**-1)
 Alpha(0;0):
               (au)            (10**-24 esu)      (10**-40 SI)
   iso        0.427895D+02      0.634076D+01      0.705504D+01
   aniso      0.211222D+02      0.312999D+01      0.348258D+01
   xx         0.348352D+02      0.516205D+01      0.574355D+01
   yx         0.422297D+01      0.625780D+00      0.696274D+00
   yy         0.418919D+02      0.620774D+01      0.690704D+01
   zx        -0.327183D+01     -0.484836D+00     -0.539453D+00
   zy        -0.699719D+01     -0.103688D+01     -0.115368D+01
   zz         0.516415D+02      0.765248D+01      0.851453D+01

 ----------------------------------------------------------------------
 1\1\GINC-GAMBA\Freq\RB3LYP\Gen\C2H5N1O2\IRIKURA\17-Jun-2022\0\\#N Geom
 =AllCheck Guess=TCheck SCRF=Check GenChk RB3LYP/ChkBas Freq\\ethyl nit
 rite, B3LYP/pcseg-2\\0,1\C,-0.8263349503,0.4959649614,0.\O,-0.00940289
 75,-0.6987440513,0.\N,1.3720415204,-0.5129785819,0.\C,-2.2709899927,0.
 046813024,0.\H,-0.5796625308,1.0897320299,0.881274397\H,-0.5796625308,
 1.0897320299,-0.881274397\H,-2.9239382898,0.9202029619,0.\H,-2.4959053
 538,-0.5485318764,0.8838806917\H,-2.4959053538,-0.5485318764,-0.883880
 6917\O,1.723163379,0.6128513788,0.\\Version=ES64L-G16RevB.01\State=1-A
 '\HF=-284.4475236\RMSD=4.749e-09\RMSF=1.160e-04\ZeroPoint=0.0765484\Th
 ermal=0.0822448\Dipole=-0.9059823,0.4236309,0.\DipoleDeriv=0.5582744,-
 0.1218204,0.,-0.2554729,0.3572489,0.,0.,0.,0.3379133,-1.5311932,-0.190
 8173,0.,0.1290561,-0.4270324,0.,0.,0.,-0.1908644,1.6388252,0.4081214,0
 .,1.0920277,0.6192332,0.,0.,0.,-0.0210102,-0.0043976,-0.0100191,0.,0.0
 353538,0.098937,0.,0.,0.,0.0926301,-0.0478832,-0.0303934,-0.0563109,0.
 0497182,-0.0033877,-0.0459775,-0.0271082,-0.0778818,-0.05335,-0.047883
 2,-0.0303934,0.0563109,0.0497182,-0.0033876,0.0459775,0.0271082,0.0778
 818,-0.05335,-0.0529821,0.0580037,0.,0.0925517,-0.0610604,0.,0.,0.,0.0
 809395,0.0322511,-0.0105375,0.0021708,-0.058724,0.0202908,0.0772218,0.
 0394946,0.0840724,-0.0532122,0.0322511,-0.0105375,-0.0021708,-0.058724
 ,0.0202908,-0.0772218,-0.0394946,-0.0840724,-0.0532122,-0.5772624,-0.0
 616064,0.,-1.0755046,-0.6211324,0.,0.,0.,-0.086484\Polar=56.1741904,1.
 9693715,39.3338207,0.,0.,32.8605999\Quadrupole=-0.5818786,-0.8706434,1
 .452522,-0.7165633,0.,0.\PG=CS [SG(C2H1N1O2),X(H4)]\NImag=0\\0.4662620
 6,0.08455836,0.47214323,0.,0.,0.60485961,-0.07107891,0.00863121,0.,0.2
 6566947,0.00364804,-0.16038599,0.,-0.01077767,0.35444289,0.,0.,-0.0736
 4958,0.,0.,0.07308815,-0.06365120,0.03836090,0.,-0.08686186,0.07514752
 ,0.,0.28619185,0.02785304,0.02868461,0.,0.07355470,-0.12181741,0.,0.00
 209085,0.83161223,0.,0.,0.02234999,0.,0.,-0.03467658,0.,0.,0.03405270,
 -0.18275476,-0.04519181,0.,-0.03806576,0.00443269,0.,0.00247272,0.0045
 7516,0.,0.48580540,-0.05398836,-0.09122401,0.,0.04409554,0.00529363,0.
 ,0.00091943,-0.01362391,0.,-0.02339064,0.56865600,0.,0.,-0.08453723,0.
 ,0.,0.00096146,0.,0.,0.00007349,0.,0.,0.57515585,-0.06234185,-0.032378
 22,-0.05250431,-0.00141088,0.01686527,0.01953906,0.00382258,0.00468040
 ,-0.00337537,-0.00729230,-0.01714067,-0.02684395,0.06984400,-0.0319268
 4,-0.11537031,-0.10557452,0.00784911,-0.03015365,-0.02362686,-0.006391
 90,-0.00211773,0.00186951,-0.00300311,-0.00334292,-0.00656737,0.030048
 28,0.13586174,-0.04879065,-0.10894152,-0.22688988,0.00715509,-0.001901
 25,0.00617044,-0.00401313,-0.00274438,-0.00094968,0.00030820,0.0018363
 1,0.00229846,0.05279253,0.12181685,0.23782580,-0.06234185,-0.03237822,
 0.05250431,-0.00141088,0.01686527,-0.01953906,0.00382258,0.00468040,0.
 00337537,-0.00729230,-0.01714067,0.02684395,0.00227858,0.00234914,-0.0
 0639897,0.06984400,-0.03192684,-0.11537031,0.10557452,0.00784912,-0.03
 015365,0.02362686,-0.00639190,-0.00211773,-0.00186951,-0.00300311,-0.0
 0334292,0.00656737,0.00234914,0.01065163,-0.01321122,0.03004828,0.1358
 6174,0.04879065,0.10894152,-0.22688988,-0.00715509,0.00190125,0.006170
 44,0.00401313,0.00274438,-0.00094968,-0.00030820,-0.00183631,0.0022984
 6,0.00639897,0.01321122,-0.02179756,-0.05279253,-0.12181685,0.23782580
 ,-0.01580924,0.02663304,0.,-0.00927118,-0.00278560,0.,0.00061637,0.004
 36295,0.,-0.13966410,0.12373966,0.,0.00101102,-0.00018387,-0.00069623,
 0.00101102,-0.00018387,0.00069623,0.15310555,-0.00559823,0.00764306,0.
 ,-0.00270734,0.00056207,0.,-0.00157288,0.00112563,0.,0.12602893,-0.217
 71470,0.,0.00074156,0.00048553,-0.00005261,0.00074156,0.00048553,0.000
 05261,-0.13749130,0.23450738,0.,0.,-0.00196539,0.,0.,0.00086423,0.,0.,
 0.00030101,0.,0.,-0.04600410,0.00011199,0.00002026,0.00003484,-0.00011
 199,-0.00002026,0.00003484,0.,0.,0.04511044,-0.00884025,-0.01900934,0.
 02942021,0.00386334,-0.00086052,-0.00006575,-0.00126743,-0.00111049,-0
 .00017756,-0.05706696,-0.02712070,0.03993491,0.00152718,0.00051959,-0.
 00041326,-0.00589244,-0.00126546,-0.00067068,0.00427217,0.00966498,-0.
 01693131,0.06301019,-0.00153492,-0.00691421,0.00841123,0.00059796,0.00
 102380,-0.00091825,-0.00002960,0.00016415,0.00018803,-0.02947222,-0.12
 577717,0.11686621,0.00025997,-0.00008826,-0.00000515,-0.00183590,0.000
 61759,-0.00060669,-0.00586857,-0.01349979,0.02075685,0.03377601,0.1336
 4764,0.00031371,-0.00093016,0.00118622,-0.00017600,-0.00019997,0.00029
 362,0.00057763,-0.00003427,0.00003785,0.04222479,0.11740711,-0.2255850
 7,0.00059137,-0.00020560,0.00090364,-0.00070628,0.00011440,0.00148239,
 -0.00107516,-0.00103821,0.00084181,-0.04617533,-0.12967796,0.24114173,
 -0.00884025,-0.01900934,-0.02942021,0.00386334,-0.00086052,0.00006575,
 -0.00126743,-0.00111049,0.00017756,-0.05706696,-0.02712070,-0.03993491
 ,-0.00589244,-0.00126546,0.00067068,0.00152718,0.00051959,0.00041326,0
 .00427217,0.00966498,0.01693131,0.00056810,0.00424005,0.00475650,0.063
 01019,-0.00153492,-0.00691421,-0.00841123,0.00059796,0.00102380,0.0009
 1825,-0.00002960,0.00016415,-0.00018803,-0.02947222,-0.12577717,-0.116
 86621,-0.00183590,0.00061759,0.00060669,0.00025997,-0.00008826,0.00000
 515,-0.00586857,-0.01349979,-0.02075685,0.00424005,0.01100192,0.014833
 30,0.03377601,0.13364764,-0.00031371,0.00093016,0.00118622,0.00017600,
 0.00019997,0.00029362,-0.00057763,0.00003427,0.00003786,-0.04222479,-0
 .11740711,-0.22558507,0.00070628,-0.00011440,0.00148239,-0.00059137,0.
 00020560,0.00090364,0.00107516,0.00103821,0.00084181,-0.00475650,-0.01
 483330,-0.02025150,0.04617533,0.12967796,0.24114173,0.00939625,-0.0102
 1660,0.,-0.06529666,-0.10167448,0.,-0.14387819,-0.11957652,0.,0.000925
 02,-0.00285288,0.,-0.00154589,0.00200506,-0.00061426,-0.00154589,0.002
 00506,0.00061426,0.00045622,0.00052773,0.,-0.00017390,-0.00013279,-0.0
 0033121,-0.00017390,-0.00013279,0.00033121,0.20183695,0.01045066,-0.01
 229184,0.,-0.12969061,-0.01983548,0.,-0.10210283,-0.72207399,0.,-0.001
 50367,0.00685319,0.,-0.00358983,0.00345638,0.00259628,-0.00358983,0.00
 345638,-0.00259628,-0.00235387,-0.00009492,0.,0.00116588,-0.00017566,-
 0.00026862,0.00116588,-0.00017566,0.00026862,0.23004821,0.74088160,0.,
 0.,-0.01565007,0.,0.,0.02048420,0.,0.,-0.02027696,0.,0.,0.00092376,0.0
 0258343,-0.00082908,0.00092156,-0.00258343,0.00082908,0.00092156,0.,0.
 ,-0.00005950,-0.00016473,-0.00018098,-0.00005069,0.00016473,0.00018098
 ,-0.00005069,0.,0.,0.01283682\\-0.00006342,0.00007457,0.,0.00044260,-0
 .00003052,0.,-0.00043088,-0.00006888,0.,0.00001151,-0.00001352,0.,0.00
 000501,-0.00000896,0.00000406,0.00000501,-0.00000896,-0.00000406,-0.00
 001392,0.00001251,0.,-0.00000973,-0.00000013,0.00000455,-0.00000973,-0
 .00000013,-0.00000455,0.00006354,0.00004402,0.\\\@


 THOSE WITH THE GOLD MAKE THE RULES.

             -- PETER'S GOLDEN RULE
 Job cpu time:       0 days  0 hours 16 minutes 23.1 seconds.
 Elapsed time:       0 days  0 hours  1 minutes 22.1 seconds.
 File lengths (MBytes):  RWF=     42 Int=      0 D2E=      0 Chk=      5 Scr=      1
 Normal termination of Gaussian 16 at Fri Jun 17 20:19:15 2022.
