 Entering Gaussian System, Link 0=g16
 AtFile(1): pcseg2.gbs
            -H     0
            S   4   1.00
                  0.754732D+02           0.427821D-02
                  0.113575D+02           0.328672D-01
                  0.260081D+01           0.159578D+00
                  0.735503D+00           0.500000D+00
            S   1   1.00
                  0.231761D+00           1.0000000
            S   1   1.00
                  0.741675D-01           1.0000000
            P   1   1.00
                  0.160000D+01           1.0000000
            P   1   1.00
                  0.450000D+00           1.0000000
            D   1   1.00
                  0.125000D+01           1.0000000
            ****
            -C     0
            S   7   1.00
                  0.731999D+04           0.695369D-03
                  0.109818D+04           0.537138D-02
                  0.250014D+03           0.274734D-01
                  0.707586D+02           0.105078D+00
                  0.228595D+02           0.291262D+00
                  0.803936D+01           0.500000D+00
                  0.289309D+01           0.362224D+00
            S   2   1.00
                  0.521640D+01          -0.957844D-01
                  0.556124D+00           0.500000D+00
            S   1   1.00
                  0.228813D+00           1.0000000
            S   1   1.00
                  0.936338D-01           1.0000000
            P   4   1.00
                  0.339855D+02           0.818395D-02
                  0.772957D+01           0.586921D-01
                  0.224954D+01           0.222514D+00
                  0.767681D+00           0.500000D+00
            P   1   1.00
                  0.263283D+00           1.0000000
            P   1   1.00
                  0.848744D-01           1.0000000
            D   1   1.00
                  0.140000D+01           1.0000000
            D   1   1.00
                  0.450000D+00           1.0000000
            F   1   1.00
                  0.950000D+00           1.0000000
            ****
            -O     0
            S   7   1.00
                  0.135887D+05           0.665492D-03
                  0.203847D+04           0.514222D-02
                  0.464041D+03           0.263472D-01
                  0.131339D+03           0.101500D+00
                  0.425340D+02           0.285877D+00
                  0.150429D+02           0.500000D+00
                  0.546616D+01           0.368211D+00
            S   2   1.00
                  0.100915D+02          -0.100084D+00
                  0.110429D+01           0.500000D+00
            S   1   1.00
                  0.448082D+00           1.0000000
            S   1   1.00
                  0.175325D+00           1.0000000
            P   4   1.00
                  0.608220D+02           0.908253D-02
                  0.140332D+02           0.645878D-01
                  0.418244D+01           0.241502D+00
                  0.142490D+01           0.500000D+00
            P   1   1.00
                  0.478741D+00           1.0000000
            P   1   1.00
                  0.146257D+00           1.0000000
            D   1   1.00
                  0.220000D+01           1.0000000
            D   1   1.00
                  0.650000D+00           1.0000000
            F   1   1.00
                  0.110000D+01           1.0000000
            ****
            -N     0
            S   7   1.00
                  0.101643D+05           0.682757D-03
                  0.152481D+04           0.527488D-02
                  0.347119D+03           0.270037D-01
                  0.982389D+02           0.103673D+00
                  0.317799D+02           0.289575D+00
                  0.112240D+02           0.500000D+00
                  0.406611D+01           0.364621D+00
            S   2   1.00
                  0.747898D+01          -0.975681D-01
                  0.805040D+00           0.500000D+00
            S   1   1.00
                  0.324626D+00           1.0000000
            S   1   1.00
                  0.128132D+00           1.0000000
            P   4   1.00
                  0.482704D+02           0.829547D-02
                  0.110815D+02           0.596223D-01
                  0.326643D+01           0.227889D+00
                  0.111680D+01           0.500000D+00
            P   1   1.00
                  0.382049D+00           1.0000000
            P   1   1.00
                  0.121222D+00           1.0000000
            D   1   1.00
                  0.180000D+01           1.0000000
            D   1   1.00
                  0.550000D+00           1.0000000
            F   1   1.00
                  0.102000D+01           1.0000000
            ****
            -F     0
            S   7   1.00
                  0.174507D+05           0.655972D-03
                  0.261768D+04           0.506944D-02
                  0.595857D+03           0.259899D-01
                  0.168651D+03           0.100353D+00
                  0.546654D+02           0.284095D+00
                  0.193717D+02           0.500000D+00
                  0.706202D+01           0.370721D+00
            S   2   1.00
                  0.131197D+02          -0.101997D+00
                  0.145046D+01           0.500000D+00
            S   1   1.00
                  0.588255D+00           1.0000000
            S   1   1.00
                  0.227960D+00           1.0000000
            P   4   1.00
                  0.779407D+02           0.931135D-02
                  0.180425D+02           0.663964D-01
                  0.542342D+01           0.246386D+00
                  0.184876D+01           0.500000D+00
            P   1   1.00
                  0.617455D+00           1.0000000
            P   1   1.00
                  0.185496D+00           1.0000000
            D   1   1.00
                  0.280000D+01           1.0000000
            D   1   1.00
                  0.800000D+00           1.0000000
            F   1   1.00
                  0.120000D+01           1.0000000
            ****
            -Cl     0
            S   8   1.00
                  0.154272D+06           0.222473D-03
                  0.231232D+05           0.172590D-02
                  0.526257D+04           0.899286D-02
                  0.148995D+04           0.367724D-01
                  0.485417D+03           0.121446D+00
                  0.174634D+03           0.304148D+00
                  0.672393D+02           0.500000D+00
                  0.265780D+02           0.360252D+00
            S   3   1.00
                  0.131826D+03          -0.531330D-01
                  0.400703D+02          -0.233346D+00
                  0.789448D+01           0.500000D+00
            S   2   1.00
                  0.427711D+01           0.500000D+00
                  0.196233D+01           0.370517D+00
            S   1   1.00
                  0.520793D+00           1.0000000
            S   1   1.00
                  0.181633D+00           1.0000000
            P   7   1.00
                  0.124440D+04           0.988206D-03
                  0.295109D+03           0.829674D-02
                  0.947224D+02           0.430906D-01
                  0.352588D+02           0.148443D+00
                  0.144211D+02           0.344744D+00
                  0.610371D+01           0.500000D+00
                  0.258886D+01           0.348278D+00
            P   2   1.00
                  0.109447D+02          -0.196768D-01
                  0.104413D+01           0.500000D+00
            P   1   1.00
                  0.376184D+00           1.0000000
            P   1   1.00
                  0.120613D+00           1.0000000
            D   1   1.00
                  0.231000D+01           1.0000000
            D   1   1.00
                  0.520000D+00           1.0000000
            F   1   1.00
                  0.720000D+00           1.0000000
            ****
            -S     0
            S   8   1.00
                  0.134700D+06           0.226231D-03
                  0.201904D+05           0.175488D-02
                  0.459528D+04           0.914190D-02
                  0.130109D+04           0.373551D-01
                  0.423902D+03           0.123121D+00
                  0.152485D+03           0.306801D+00
                  0.586925D+02           0.500000D+00
                  0.231461D+02           0.354358D+00
            S   3   1.00
                  0.116327D+03          -0.491772D-01
                  0.352841D+02          -0.215962D+00
                  0.677831D+01           0.500000D+00
            S   2   1.00
                  0.360404D+01           0.500000D+00
                  0.164871D+01           0.366278D+00
            S   1   1.00
                  0.421821D+00           1.0000000
            S   1   1.00
                  0.147554D+00           1.0000000
            P   7   1.00
                  0.104863D+04           0.105273D-02
                  0.248717D+03           0.879338D-02
                  0.797887D+02           0.453358D-01
                  0.296023D+02           0.154476D+00
                  0.120627D+02           0.352366D+00
                  0.507628D+01           0.500000D+00
                  0.213375D+01           0.346429D+00
            P   2   1.00
                  0.928958D+01          -0.185932D-01
                  0.837819D+00           0.500000D+00
            P   1   1.00
                  0.301495D+00           1.0000000
            P   1   1.00
                  0.974740D-01           1.0000000
            D   1   1.00
                  0.210000D+01           1.0000000
            D   1   1.00
                  0.480000D+00           1.0000000
            F   1   1.00
                  0.660000D+00           1.0000000
            ****
            -Br     0
            S    10   1.00
                  0.233625D+07           0.532336D-04
                  0.349961D+06           0.413715D-03
                  0.796444D+05           0.217123D-02
                  0.225555D+05           0.910109D-02
                  0.735546D+04           0.323789D-01
                  0.265352D+04           0.988755D-01
                  0.103517D+04           0.248138D+00
                  0.422205D+03           0.474328D+00
                  0.180035D+03           0.500000D+00
                  0.793308D+02           0.187769D+00
            S    4   1.00
                  0.620834D+03          -0.226511D-01
                  0.190829D+03          -0.109497D+00
                  0.312505D+02           0.500000D+00
                  0.135270D+02           0.492812D+00
            S    2   1.00
                  0.216097D+02          -0.165418D+00
                  0.372566D+01           0.500000D+00
            S    1   1.00
                  0.169770D+01           1.0000000
            S    1   1.00
                  0.489332D+00           1.0000000
            S    1   1.00
                  0.175712D+00           1.0000000
            P    8   1.00
                  0.960829D+04           0.478974D-03
                  0.227618D+04           0.417853D-02
                  0.736723D+03           0.229315D-01
                  0.281579D+03           0.892653D-01
                  0.118395D+03           0.255288D+00
                  0.527481D+02           0.479074D+00
                  0.245098D+02           0.500000D+00
                  0.112009D+02           0.200944D+00
            P    4   1.00
                  0.587849D+02          -0.189674D-01
                  0.918962D+01           0.264104D+00
                  0.413895D+01           0.500000D+00
                  0.184225D+01           0.319316D+00
            P    1   1.00
                  0.713862D+00           1.0000000
            P    1   1.00
                  0.274232D+00           1.0000000
            P    1   1.00
                  0.944411D-01           1.0000000
            D    7   1.00
                  0.398470D+03           0.204066D-02
                  0.118967D+03           0.175171D-01
                  0.450197D+02           0.829708D-01
                  0.190320D+02           0.236284D+00
                  0.855686D+01           0.428468D+00
                  0.382950D+01           0.500000D+00
                  0.166291D+01           0.349360D+00
            D    1   1.00
                  0.672953D+00           1.0000000
            D    1   1.00
                  0.252000D+00           1.0000000
            F    1   1.00
                  0.530000D+00           1.0000000
            ****
            -Si     0
            S    8   1.00
                  0.996133D+05           0.235546D-03
                  0.149311D+05           0.182707D-02
                  0.339820D+04           0.951425D-02
                  0.962140D+03           0.388172D-01
                  0.313430D+03           0.127328D+00
                  0.112683D+03           0.313522D+00
                  0.433372D+02           0.500000D+00
                  0.170029D+02           0.340347D+00
            S    3   1.00
                  0.884208D+02          -0.404451D-01
                  0.266756D+02          -0.178059D+00
                  0.479640D+01           0.500000D+00
            S    2   1.00
                  0.239385D+01           0.500000D+00
                  0.108333D+01           0.338016D+00
            S    1   1.00
                  0.252420D+00           1.0000000
            S    1   1.00
                  0.891210D-01           1.0000000
            P    7   1.00
                  0.709901D+03           0.123028D-02
                  0.168426D+03           0.101366D-01
                  0.539946D+02           0.511840D-01
                  0.198646D+02           0.169967D+00
                  0.801369D+01           0.370717D+00
                  0.331870D+01           0.500000D+00
                  0.136112D+01           0.344128D+00
            P    2   1.00
                  0.622158D+01          -0.166609D-01
                  0.503049D+00           0.500000D+00
            P    1   1.00
                  0.179848D+00           1.0000000
            P    1   1.00
                  0.591912D-01           1.0000000
            D    1   1.00
                  0.168000D+01           1.0000000
            D    1   1.00
                  0.380000D+00           1.0000000
            F    1   1.00
                  0.540000D+00           1.0000000
            ****
            -P     0
            S    8   1.00
                  0.116416D+06           0.230715D-03
                  0.174500D+05           0.178960D-02
                  0.397149D+04           0.932116D-02
                  0.112447D+04           0.380591D-01
                  0.366347D+03           0.125148D+00
                  0.131757D+03           0.310022D+00
                  0.506988D+02           0.500000D+00
                  0.199436D+02           0.347528D+00
            S    3   1.00
                  0.101878D+03          -0.446755D-01
                  0.308249D+02          -0.196376D+00
                  0.573688D+01           0.500000D+00
            S    2   1.00
                  0.296868D+01           0.500000D+00
                  0.135315D+01           0.355098D+00
            S    1   1.00
                  0.332196D+00           1.0000000
            S    1   1.00
                  0.116229D+00           1.0000000
            P    7   1.00
                  0.873928D+03           0.112375D-02
                  0.207298D+03           0.933330D-02
                  0.664628D+02           0.477213D-01
                  0.245665D+02           0.160733D+00
                  0.996820D+01           0.359760D+00
                  0.416536D+01           0.500000D+00
                  0.173022D+01           0.346593D+00
            P    2   1.00
                  0.772530D+01          -0.175718D-01
                  0.657252D+00           0.500000D+00
            P    1   1.00
                  0.239903D+00           1.0000000
            P    1   1.00
                  0.800988D-01           1.0000000
            D    1   1.00
                  0.189000D+01           1.0000000
            D    1   1.00
                  0.430000D+00           1.0000000
            F    1   1.00
                  0.600000D+00           1.0000000
            ****
            
 Initial command:
 /usr/local/apps/g16_b01_avx/g16/l1.exe "/wrk/irikura/Gau-162690.inp" -scrdir="/wrk/irikura/"
 Entering Link 1 = /usr/local/apps/g16_b01_avx/g16/l1.exe PID=    162692.
  
 Copyright (c) 1988-2017, Gaussian, Inc.  All Rights Reserved.
  
 This is part of the Gaussian(R) 16 program.  It is based on
 the Gaussian(R) 09 system (copyright 2009, Gaussian, Inc.),
 the Gaussian(R) 03 system (copyright 2003, Gaussian, Inc.),
 the Gaussian(R) 98 system (copyright 1998, Gaussian, Inc.),
 the Gaussian(R) 94 system (copyright 1995, Gaussian, Inc.),
 the Gaussian 92(TM) system (copyright 1992, Gaussian, Inc.),
 the Gaussian 90(TM) system (copyright 1990, Gaussian, Inc.),
 the Gaussian 88(TM) system (copyright 1988, Gaussian, Inc.),
 the Gaussian 86(TM) system (copyright 1986, Carnegie Mellon
 University), and the Gaussian 82(TM) system (copyright 1983,
 Carnegie Mellon University). Gaussian is a federally registered
 trademark of Gaussian, Inc.
  
 This software contains proprietary and confidential information,
 including trade secrets, belonging to Gaussian, Inc.
  
 This software is provided under written license and may be
 used, copied, transmitted, or stored only in accord with that
 written license.
  
 The following legend is applicable only to US Government
 contracts under FAR:
  
                    RESTRICTED RIGHTS LEGEND
  
 Use, reproduction and disclosure by the US Government is
 subject to restrictions as set forth in subparagraphs (a)
 and (c) of the Commercial Computer Software - Restricted
 Rights clause in FAR 52.227-19.
  
 Gaussian, Inc.
 340 Quinnipiac St., Bldg. 40, Wallingford CT 06492
  
  
 ---------------------------------------------------------------
 Warning -- This program may not be used in any manner that
 competes with the business of Gaussian, Inc. or will provide
 assistance to any competitor of Gaussian, Inc.  The licensee
 of this program is prohibited from giving any competitor of
 Gaussian, Inc. access to this program.  By using this program,
 the user acknowledges that Gaussian, Inc. is engaged in the
 business of creating and licensing software in the field of
 computational chemistry and represents and warrants to the
 licensee that it is not a competitor of Gaussian, Inc. and that
 it will not use this program in any manner prohibited above.
 ---------------------------------------------------------------
  

 Cite this work as:
 Gaussian 16, Revision B.01,
 M. J. Frisch, G. W. Trucks, H. B. Schlegel, G. E. Scuseria, 
 M. A. Robb, J. R. Cheeseman, G. Scalmani, V. Barone, 
 G. A. Petersson, H. Nakatsuji, X. Li, M. Caricato, A. V. Marenich, 
 J. Bloino, B. G. Janesko, R. Gomperts, B. Mennucci, H. P. Hratchian, 
 J. V. Ortiz, A. F. Izmaylov, J. L. Sonnenberg, D. Williams-Young, 
 F. Ding, F. Lipparini, F. Egidi, J. Goings, B. Peng, A. Petrone, 
 T. Henderson, D. Ranasinghe, V. G. Zakrzewski, J. Gao, N. Rega, 
 G. Zheng, W. Liang, M. Hada, M. Ehara, K. Toyota, R. Fukuda, 
 J. Hasegawa, M. Ishida, T. Nakajima, Y. Honda, O. Kitao, H. Nakai, 
 T. Vreven, K. Throssell, J. A. Montgomery, Jr., J. E. Peralta, 
 F. Ogliaro, M. J. Bearpark, J. J. Heyd, E. N. Brothers, K. N. Kudin, 
 V. N. Staroverov, T. A. Keith, R. Kobayashi, J. Normand, 
 K. Raghavachari, A. P. Rendell, J. C. Burant, S. S. Iyengar, 
 J. Tomasi, M. Cossi, J. M. Millam, M. Klene, C. Adamo, R. Cammi, 
 J. W. Ochterski, R. L. Martin, K. Morokuma, O. Farkas, 
 J. B. Foresman, and D. J. Fox, Gaussian, Inc., Wallingford CT, 2016.
 
 ******************************************
 Gaussian 16:  ES64L-G16RevB.01 20-Dec-2017
                28-Sep-2023 
 ******************************************
 %chk=etono.chk
 %mem=500mw
 %nprocs=4
 Will use up to    4 processors via shared memory.
 ---------------------------------------
 # b3lyp/gen opt freq CPHF(Grid=OneStep)
 ---------------------------------------
 1/18=20,19=15,26=3,38=1/1,3;
 2/9=110,12=2,17=6,18=5,40=1/2;
 3/5=7,11=2,25=1,30=1,71=1,74=-5/1,2,3;
 4//1;
 5/5=2,38=5/2;
 6/7=2,8=2,9=2,10=2,28=1/1;
 7//1,2,3,16;
 1/18=20,19=15,26=3/3(2);
 2/9=110/2;
 99//99;
 2/9=110/2;
 3/5=7,6=1,11=2,25=1,30=1,71=1,74=-5,82=7/1,2,3;
 4/5=5,16=3,69=1/1;
 5/5=2,38=5/2;
 7//1,2,3,16;
 1/18=20,19=15,26=3/3(-5);
 2/9=110/2;
 6/7=2,8=2,9=2,10=2,19=2,28=1/1;
 99/9=1/99;
 ----------------------------
 ethyl nitrite, B3LYP/pcseg-2
 ----------------------------
 Symbolic Z-matrix:
 Charge =  0 Multiplicity = 1
 C                     0.64699  -0.5646    0. 
 O                     0.        0.73005   0. 
 N                    -1.39387   0.73375   0. 
 C                     2.13929  -0.31594   0. 
 H                     0.32192  -1.11933   0.88127 
 H                     0.32192  -1.11933  -0.88127 
 H                     2.66748  -1.26996   0. 
 H                     2.44302   0.24332   0.88388 
 H                     2.44302   0.24332  -0.88388 
 O                    -1.89474  -0.33392   0. 
 

 GradGradGradGradGradGradGradGradGradGradGradGradGradGradGradGradGradGrad
 Berny optimization.
 Initialization pass.
                           ----------------------------
                           !    Initial Parameters    !
                           ! (Angstroms and Degrees)  !
 --------------------------                            --------------------------
 ! Name  Definition              Value          Derivative Info.                !
 --------------------------------------------------------------------------------
 ! R1    R(1,2)                  1.4473         estimate D2E/DX2                !
 ! R2    R(1,4)                  1.5129         estimate D2E/DX2                !
 ! R3    R(1,5)                  1.0909         estimate D2E/DX2                !
 ! R4    R(1,6)                  1.0909         estimate D2E/DX2                !
 ! R5    R(2,3)                  1.3939         estimate D2E/DX2                !
 ! R6    R(3,10)                 1.1793         estimate D2E/DX2                !
 ! R7    R(4,7)                  1.0905         estimate D2E/DX2                !
 ! R8    R(4,8)                  1.0892         estimate D2E/DX2                !
 ! R9    R(4,9)                  1.0892         estimate D2E/DX2                !
 ! A1    A(2,1,4)              107.0932         estimate D2E/DX2                !
 ! A2    A(2,1,5)              108.7636         estimate D2E/DX2                !
 ! A3    A(2,1,6)              108.7636         estimate D2E/DX2                !
 ! A4    A(4,1,5)              112.1801         estimate D2E/DX2                !
 ! A5    A(4,1,6)              112.1801         estimate D2E/DX2                !
 ! A6    A(5,1,6)              107.7719         estimate D2E/DX2                !
 ! A7    A(1,2,3)              116.7053         estimate D2E/DX2                !
 ! A8    A(2,3,10)             114.9803         estimate D2E/DX2                !
 ! A9    A(1,4,7)              109.5111         estimate D2E/DX2                !
 ! A10   A(1,4,8)              111.0679         estimate D2E/DX2                !
 ! A11   A(1,4,9)              111.0679         estimate D2E/DX2                !
 ! A12   A(7,4,8)              108.3091         estimate D2E/DX2                !
 ! A13   A(7,4,9)              108.3091         estimate D2E/DX2                !
 ! A14   A(8,4,9)              108.4906         estimate D2E/DX2                !
 ! D1    D(4,1,2,3)            180.0            estimate D2E/DX2                !
 ! D2    D(5,1,2,3)            -58.5602         estimate D2E/DX2                !
 ! D3    D(6,1,2,3)             58.5602         estimate D2E/DX2                !
 ! D4    D(2,1,4,7)            180.0            estimate D2E/DX2                !
 ! D5    D(2,1,4,8)             60.4189         estimate D2E/DX2                !
 ! D6    D(2,1,4,9)            -60.4189         estimate D2E/DX2                !
 ! D7    D(5,1,4,7)             60.7389         estimate D2E/DX2                !
 ! D8    D(5,1,4,8)            -58.8422         estimate D2E/DX2                !
 ! D9    D(5,1,4,9)           -179.68           estimate D2E/DX2                !
 ! D10   D(6,1,4,7)            -60.7389         estimate D2E/DX2                !
 ! D11   D(6,1,4,8)            179.68           estimate D2E/DX2                !
 ! D12   D(6,1,4,9)             58.8422         estimate D2E/DX2                !
 ! D13   D(1,2,3,10)             0.0            estimate D2E/DX2                !
 --------------------------------------------------------------------------------
 Trust Radius=3.00D-01 FncErr=1.00D-07 GrdErr=1.00D-06 EigMax=2.50D+02 EigMin=1.00D-04
 Number of steps in this run=     46 maximum allowed number of steps=    100.
 GradGradGradGradGradGradGradGradGradGradGradGradGradGradGradGradGradGrad

                          Input orientation:                          
 ---------------------------------------------------------------------
 Center     Atomic      Atomic             Coordinates (Angstroms)
 Number     Number       Type             X           Y           Z
 ---------------------------------------------------------------------
      1          6           0        0.646993   -0.564597    0.000000
      2          8           0        0.000000    0.730049    0.000000
      3          7           0       -1.393874    0.733745    0.000000
      4          6           0        2.139285   -0.315940    0.000000
      5          1           0        0.321916   -1.119333    0.881274
      6          1           0        0.321916   -1.119333   -0.881274
      7          1           0        2.667482   -1.269963    0.000000
      8          1           0        2.443020    0.243316    0.883881
      9          1           0        2.443020    0.243316   -0.883881
     10          8           0       -1.894738   -0.333923    0.000000
 ---------------------------------------------------------------------
                    Distance matrix (angstroms):
                    1          2          3          4          5
     1  C    0.000000
     2  O    1.447311   0.000000
     3  N    2.418849   1.393879   0.000000
     4  C    1.512867   2.381309   3.685790   0.000000
     5  H    1.090895   2.073762   2.674785   2.173687   0.000000
     6  H    1.090895   2.073762   2.674785   2.173687   1.762548
     7  H    2.140074   3.333993   4.528737   1.090482   2.510182
     8  H    2.158630   2.643199   3.967811   1.089159   2.521091
     9  H    2.158630   2.643199   3.967811   1.089159   3.077607
    10  O    2.552177   2.173032   1.179313   4.034063   2.511388
                    6          7          8          9         10
     6  H    0.000000
     7  H    2.510182   0.000000
     8  H    3.077607   1.766817   0.000000
     9  H    2.521091   1.766817   1.767762   0.000000
    10  O    2.511388   4.657255   4.464369   4.464369   0.000000
 Stoichiometry    C2H5NO2
 Framework group  CS[SG(C2HNO2),X(H4)]
 Deg. of freedom    15
 Full point group                 CS      NOp   2
 Largest Abelian subgroup         CS      NOp   2
 Largest concise Abelian subgroup CS      NOp   2
                         Standard orientation:                         
 ---------------------------------------------------------------------
 Center     Atomic      Atomic             Coordinates (Angstroms)
 Number     Number       Type             X           Y           Z
 ---------------------------------------------------------------------
      1          6           0        0.646993   -0.564597    0.000000
      2          8           0        0.000000    0.730049    0.000000
      3          7           0       -1.393874    0.733745    0.000000
      4          6           0        2.139285   -0.315940    0.000000
      5          1           0        0.321916   -1.119333    0.881274
      6          1           0        0.321916   -1.119333   -0.881274
      7          1           0        2.667482   -1.269963    0.000000
      8          1           0        2.443020    0.243316    0.883881
      9          1           0        2.443020    0.243316   -0.883881
     10          8           0       -1.894738   -0.333923    0.000000
 ---------------------------------------------------------------------
 Rotational constants (GHZ):          18.3955244           2.9916813           2.6582008
 General basis read from cards:  (5D, 7F)
 There are   161 symmetry adapted cartesian basis functions of A'  symmetry.
 There are    89 symmetry adapted cartesian basis functions of A"  symmetry.
 There are   138 symmetry adapted basis functions of A'  symmetry.
 There are    82 symmetry adapted basis functions of A"  symmetry.
   220 basis functions,   345 primitive gaussians,   250 cartesian basis functions
    20 alpha electrons       20 beta electrons
       nuclear repulsion energy       178.7311022527 Hartrees.
 NAtoms=   10 NActive=   10 NUniq=    8 SFac= 1.56D+00 NAtFMM=   60 NAOKFM=F Big=F
 Integral buffers will be    131072 words long.
 Raffenetti 2 integral format.
 Two-electron integral symmetry is turned on.
 One-electron integrals computed using PRISM.
 NBasis=   220 RedAO= T EigKep=  5.10D-04  NBF=   138    82
 NBsUse=   220 1.00D-06 EigRej= -1.00D+00 NBFU=   138    82
 ExpMin= 7.42D-02 ExpMax= 1.36D+04 ExpMxC= 4.64D+02 IAcc=3 IRadAn=         5 AccDes= 0.00D+00
 Harris functional with IExCor=  402 and IRadAn=       5 diagonalized for initial guess.
 HarFok:  IExCor=  402 AccDes= 0.00D+00 IRadAn=         5 IDoV= 1 UseB2=F ITyADJ=14
 ICtDFT=  3500011 ScaDFX=  1.000000  1.000000  1.000000  1.000000
 FoFCou: FMM=F IPFlag=           0 FMFlag=      100000 FMFlg1=           0
         NFxFlg=           0 DoJE=T BraDBF=F KetDBF=T FulRan=T
         wScrn=  0.000000 ICntrl=       500 IOpCl=  0 I1Cent=   200000004 NGrid=           0
         NMat0=    1 NMatS0=      1 NMatT0=    0 NMatD0=    1 NMtDS0=    0 NMtDT0=    0
 Petite list used in FoFCou.
 Initial guess orbital symmetries:
       Occupied  (A') (A') (A') (A') (A') (A') (A') (A') (A') (A')
                 (A') (A") (A') (A') (A") (A') (A") (A') (A") (A')
       Virtual   (A") (A') (A') (A") (A') (A') (A") (A') (A') (A')
                 (A") (A') (A') (A") (A') (A') (A') (A") (A') (A")
                 (A') (A") (A') (A') (A') (A") (A') (A') (A') (A')
                 (A") (A') (A') (A") (A') (A') (A") (A') (A') (A")
                 (A") (A') (A") (A') (A") (A') (A') (A") (A") (A')
                 (A') (A") (A') (A') (A') (A") (A") (A") (A') (A')
                 (A') (A") (A') (A') (A") (A') (A") (A') (A') (A')
                 (A") (A') (A') (A") (A') (A") (A') (A') (A') (A")
                 (A') (A") (A') (A') (A') (A") (A') (A') (A") (A')
                 (A') (A") (A") (A') (A') (A') (A') (A') (A") (A")
                 (A") (A') (A") (A') (A') (A") (A') (A") (A') (A")
                 (A') (A") (A') (A') (A") (A") (A') (A") (A") (A')
                 (A') (A") (A") (A') (A") (A") (A') (A') (A') (A')
                 (A') (A") (A') (A") (A') (A") (A') (A') (A') (A")
                 (A') (A") (A') (A') (A") (A') (A") (A') (A") (A')
                 (A") (A') (A') (A") (A') (A') (A") (A') (A") (A")
                 (A') (A') (A") (A') (A') (A") (A') (A") (A') (A")
                 (A') (A") (A") (A') (A') (A') (A") (A') (A") (A')
                 (A") (A") (A') (A') (A") (A') (A") (A') (A') (A")
                 (A') (A') (A") (A') (A") (A') (A') (A') (A') (A')
 The electronic state of the initial guess is 1-A'.
 Keep R1 ints in memory in symmetry-blocked form, NReq=444013409.
 Requested convergence on RMS density matrix=1.00D-08 within 128 cycles.
 Requested convergence on MAX density matrix=1.00D-06.
 Requested convergence on             energy=1.00D-06.
 No special actions if energy rises.
 Integral accuracy reduced to 1.0D-05 until final iterations.
 Initial convergence to 1.0D-05 achieved.  Increase integral accuracy.
 SCF Done:  E(RB3LYP) =  -284.447523559     A.U. after   13 cycles
            NFock= 13  Conv=0.95D-08     -V/T= 2.0033

 **********************************************************************

            Population analysis using the SCF Density.

 **********************************************************************

 Orbital symmetries:
       Occupied  (A') (A') (A') (A') (A') (A') (A') (A') (A') (A')
                 (A') (A") (A') (A") (A') (A') (A") (A') (A") (A')
       Virtual   (A") (A') (A') (A") (A') (A') (A") (A') (A') (A')
                 (A") (A') (A") (A') (A') (A') (A") (A") (A') (A')
                 (A') (A') (A') (A") (A') (A") (A') (A') (A') (A")
                 (A') (A') (A') (A") (A') (A') (A") (A') (A') (A")
                 (A") (A') (A") (A") (A') (A') (A") (A') (A") (A')
                 (A") (A') (A') (A') (A") (A') (A") (A") (A') (A')
                 (A') (A") (A') (A') (A") (A") (A') (A') (A') (A")
                 (A') (A') (A') (A") (A') (A') (A") (A') (A') (A")
                 (A') (A") (A') (A') (A') (A") (A') (A') (A") (A')
                 (A") (A') (A") (A') (A') (A') (A') (A') (A") (A")
                 (A") (A') (A") (A') (A') (A") (A') (A") (A') (A")
                 (A') (A") (A') (A") (A') (A") (A') (A") (A") (A')
                 (A') (A") (A") (A") (A') (A") (A') (A') (A') (A')
                 (A') (A") (A') (A") (A') (A") (A') (A') (A') (A')
                 (A") (A') (A") (A') (A") (A') (A") (A') (A") (A')
                 (A") (A') (A') (A") (A') (A') (A") (A") (A') (A")
                 (A') (A') (A") (A') (A") (A') (A') (A") (A') (A')
                 (A") (A") (A") (A') (A') (A') (A") (A") (A') (A')
                 (A") (A") (A') (A') (A") (A') (A') (A") (A') (A")
                 (A') (A') (A") (A') (A") (A') (A') (A') (A') (A')
 The electronic state is 1-A'.
 Alpha  occ. eigenvalues --  -19.20096 -19.19857 -14.49595 -10.24347 -10.18320
 Alpha  occ. eigenvalues --   -1.23048  -1.06376  -0.80153  -0.69600  -0.61634
 Alpha  occ. eigenvalues --   -0.56428  -0.52911  -0.50512  -0.47300  -0.42054
 Alpha  occ. eigenvalues --   -0.41135  -0.39070  -0.37466  -0.33215  -0.28649
 Alpha virt. eigenvalues --   -0.08366   0.00957   0.04460   0.05258   0.06552
 Alpha virt. eigenvalues --    0.08322   0.09345   0.12743   0.13899   0.15796
 Alpha virt. eigenvalues --    0.17265   0.19646   0.22290   0.23194   0.25041
 Alpha virt. eigenvalues --    0.28096   0.29169   0.31026   0.31177   0.33530
 Alpha virt. eigenvalues --    0.33939   0.34911   0.35248   0.35921   0.39203
 Alpha virt. eigenvalues --    0.42063   0.44436   0.45456   0.46645   0.49482
 Alpha virt. eigenvalues --    0.51245   0.58442   0.59478   0.66206   0.72821
 Alpha virt. eigenvalues --    0.73788   0.79673   0.80592   0.86704   0.92035
 Alpha virt. eigenvalues --    0.94428   0.95173   0.96781   0.99489   1.00894
 Alpha virt. eigenvalues --    1.04134   1.05672   1.08206   1.09026   1.12231
 Alpha virt. eigenvalues --    1.16351   1.16539   1.23302   1.25840   1.27175
 Alpha virt. eigenvalues --    1.29611   1.33895   1.39001   1.39770   1.44087
 Alpha virt. eigenvalues --    1.48051   1.51499   1.55062   1.64197   1.67136
 Alpha virt. eigenvalues --    1.67301   1.69131   1.70320   1.73011   1.76261
 Alpha virt. eigenvalues --    1.78847   1.81561   1.85116   1.86882   1.90662
 Alpha virt. eigenvalues --    1.92497   1.92955   1.96582   2.02129   2.04963
 Alpha virt. eigenvalues --    2.10705   2.14376   2.20259   2.23879   2.31999
 Alpha virt. eigenvalues --    2.32552   2.35763   2.41672   2.44516   2.51092
 Alpha virt. eigenvalues --    2.57874   2.57988   2.68390   2.72470   2.81121
 Alpha virt. eigenvalues --    3.07077   3.08760   3.11614   3.14473   3.25153
 Alpha virt. eigenvalues --    3.28240   3.28812   3.30004   3.31396   3.40403
 Alpha virt. eigenvalues --    3.42145   3.44580   3.45031   3.49925   3.53674
 Alpha virt. eigenvalues --    3.57408   3.62819   3.65413   3.73328   3.76243
 Alpha virt. eigenvalues --    3.77424   3.81481   3.83684   3.84665   3.88081
 Alpha virt. eigenvalues --    3.90138   3.93844   3.97427   3.98807   3.99412
 Alpha virt. eigenvalues --    4.03364   4.06399   4.12726   4.13148   4.25931
 Alpha virt. eigenvalues --    4.27400   4.29319   4.33507   4.35290   4.37621
 Alpha virt. eigenvalues --    4.39763   4.44369   4.47805   4.50951   4.51625
 Alpha virt. eigenvalues --    4.53534   4.56100   4.57524   4.60826   4.60965
 Alpha virt. eigenvalues --    4.61565   4.64472   4.69832   4.70626   4.78342
 Alpha virt. eigenvalues --    4.81597   4.84097   4.92484   4.95210   5.00948
 Alpha virt. eigenvalues --    5.03688   5.06523   5.07345   5.09724   5.10555
 Alpha virt. eigenvalues --    5.26085   5.27266   5.31016   5.32089   5.34327
 Alpha virt. eigenvalues --    5.38268   5.47598   5.55049   5.55197   5.63411
 Alpha virt. eigenvalues --    5.64623   5.69337   5.70008   5.72557   5.77288
 Alpha virt. eigenvalues --    5.80721   5.80948   5.88316   5.90229   5.93358
 Alpha virt. eigenvalues --    5.98202   6.02992   6.03931   6.06149   6.08721
 Alpha virt. eigenvalues --    6.17807   6.19333   6.22862   6.26823   6.33284
 Alpha virt. eigenvalues --    6.42978   6.43565   6.49568   6.50885   6.68405
 Alpha virt. eigenvalues --    6.86506   6.91724   7.10430   7.55722   9.40836
          Condensed to atoms (all electrons):
               1          2          3          4          5          6
     1  C    4.573141   0.178638  -0.012416   0.316388   0.435781   0.435781
     2  O    0.178638   8.263910   0.019822  -0.042832  -0.038360  -0.038360
     3  N   -0.012416   0.019822   6.510667   0.004344  -0.006097  -0.006097
     4  C    0.316388  -0.042832   0.004344   4.571667  -0.033723  -0.033723
     5  H    0.435781  -0.038360  -0.006097  -0.033723   0.652696  -0.047444
     6  H    0.435781  -0.038360  -0.006097  -0.033723  -0.047444   0.652696
     7  H   -0.032606   0.004311  -0.000176   0.416308  -0.003070  -0.003070
     8  H   -0.032528   0.001708  -0.000342   0.422897  -0.011759   0.010440
     9  H   -0.032528   0.001708  -0.000342   0.422897   0.010440  -0.011759
    10  O    0.011970  -0.100775   0.284469   0.003241   0.002598   0.002598
               7          8          9         10
     1  C   -0.032606  -0.032528  -0.032528   0.011970
     2  O    0.004311   0.001708   0.001708  -0.100775
     3  N   -0.000176  -0.000342  -0.000342   0.284469
     4  C    0.416308   0.422897   0.422897   0.003241
     5  H   -0.003070  -0.011759   0.010440   0.002598
     6  H   -0.003070   0.010440  -0.011759   0.002598
     7  H    0.641352  -0.025100  -0.025100   0.000499
     8  H   -0.025100   0.623406  -0.025555  -0.000084
     9  H   -0.025100  -0.025555   0.623406  -0.000084
    10  O    0.000499  -0.000084  -0.000084   8.041242
 Mulliken charges:
               1
     1  C    0.158378
     2  O   -0.249770
     3  N    0.206168
     4  C   -0.047462
     5  H    0.038939
     6  H    0.038939
     7  H    0.026653
     8  H    0.036915
     9  H    0.036915
    10  O   -0.245673
 Sum of Mulliken charges =  -0.00000
 Mulliken charges with hydrogens summed into heavy atoms:
               1
     1  C    0.236256
     2  O   -0.249770
     3  N    0.206168
     4  C    0.053020
    10  O   -0.245673
 Electronic spatial extent (au):  <R**2>=            462.2265
 Charge=             -0.0000 electrons
 Dipole moment (field-independent basis, Debye):
    X=              2.1351    Y=             -1.3797    Z=              0.0000  Tot=              2.5421
 Quadrupole moment (field-independent basis, Debye-Ang):
   XX=            -31.6251   YY=            -31.4801   ZZ=            -28.6220
   XY=             -0.9805   XZ=             -0.0000   YZ=             -0.0000
 Traceless Quadrupole moment (field-independent basis, Debye-Ang):
   XX=             -1.0493   YY=             -0.9043   ZZ=              1.9537
   XY=             -0.9805   XZ=             -0.0000   YZ=             -0.0000
 Octapole moment (field-independent basis, Debye-Ang**2):
  XXX=              1.9206  YYY=             -1.9852  ZZZ=              0.0000  XYY=             -0.2165
  XXY=              0.7677  XXZ=              0.0000  XZZ=             -3.3298  YZZ=              0.4397
  YYZ=              0.0000  XYZ=              0.0000
 Hexadecapole moment (field-independent basis, Debye-Ang**3):
 XXXX=           -465.3710 YYYY=           -102.4691 ZZZZ=            -40.2797 XXXY=             26.5116
 XXXZ=              0.0000 YYYX=             29.3477 YYYZ=             -0.0000 ZZZX=              0.0000
 ZZZY=             -0.0000 XXYY=            -92.8319 XXZZ=            -79.2740 YYZZ=            -22.9611
 XXYZ=              0.0000 YYXZ=             -0.0000 ZZXY=             10.8928
 N-N= 1.787311022527D+02 E-N=-1.024477957453D+03  KE= 2.835043224921D+02
 Symmetry A'   KE= 2.705762622345D+02
 Symmetry A"   KE= 1.292806025757D+01
 Calling FoFJK, ICntrl=      2127 FMM=F ISym2X=1 I1Cent= 0 IOpClX= 0 NMat=1 NMatS=1 NMatT=0.
 ***** Axes restored to original set *****
 -------------------------------------------------------------------
 Center     Atomic                   Forces (Hartrees/Bohr)
 Number     Number              X              Y              Z
 -------------------------------------------------------------------
      1        6          -0.000052814    0.000082539   -0.000000000
      2        8           0.000434738   -0.000090288   -0.000000000
      3        7          -0.000436401   -0.000010061    0.000000000
      4        6           0.000009469   -0.000014918    0.000000000
      5        1           0.000003750   -0.000009550   -0.000003927
      6        1           0.000003750   -0.000009550    0.000003927
      7        1          -0.000012130    0.000014504   -0.000000000
      8        1          -0.000009608    0.000001090   -0.000004727
      9        1          -0.000009608    0.000001090    0.000004727
     10        8           0.000068856    0.000035144   -0.000000000
 -------------------------------------------------------------------
 Cartesian Forces:  Max     0.000436401 RMS     0.000116106

 GradGradGradGradGradGradGradGradGradGradGradGradGradGradGradGradGradGrad
 Berny optimization.
 FormGI is forming the generalized inverse of G from B-inverse, IUseBI=4.
 Internal  Forces:  Max     0.000367498 RMS     0.000067038
 Search for a local minimum.
 Step number   1 out of a maximum of   46
 All quantities printed in internal units (Hartrees-Bohrs-Radians)
 Mixed Optimization -- En-DIIS/RFO-DIIS
 Second derivative matrix not updated -- first step.
 ITU=  0
     Eigenvalues ---    0.00596   0.01066   0.01376   0.05421   0.05665
     Eigenvalues ---    0.05666   0.05849   0.11229   0.13558   0.16000
     Eigenvalues ---    0.16000   0.16000   0.21919   0.25000   0.25000
     Eigenvalues ---    0.31064   0.34709   0.34709   0.34757   0.34910
     Eigenvalues ---    0.34910   0.38599   0.46650   1.15945
 RFO step:  Lambda=-3.76156180D-07 EMin= 5.95745468D-03
 Linear search not attempted -- first point.
 Iteration  1 RMS(Cart)=  0.00015134 RMS(Int)=  0.00000003
 Iteration  2 RMS(Cart)=  0.00000003 RMS(Int)=  0.00000000
 ClnCor:  largest displacement from symmetrization is 2.55D-11 for atom     6.
 Variable       Old X    -DE/DX   Delta X   Delta X   Delta X     New X
                                 (Linear)    (Quad)   (Total)
    R1        2.73502  -0.00009   0.00000  -0.00023  -0.00023   2.73479
    R2        2.85890  -0.00002   0.00000  -0.00007  -0.00007   2.85883
    R3        2.06149   0.00000   0.00000   0.00000   0.00000   2.06149
    R4        2.06149   0.00000   0.00000   0.00000   0.00000   2.06149
    R5        2.63405   0.00037   0.00000   0.00079   0.00079   2.63484
    R6        2.22858  -0.00006   0.00000  -0.00005  -0.00005   2.22853
    R7        2.06071  -0.00002   0.00000  -0.00005  -0.00005   2.06066
    R8        2.05821  -0.00001   0.00000  -0.00002  -0.00002   2.05820
    R9        2.05821  -0.00001   0.00000  -0.00002  -0.00002   2.05820
    A1        1.86913  -0.00003   0.00000  -0.00012  -0.00012   1.86901
    A2        1.89828   0.00001   0.00000   0.00010   0.00010   1.89838
    A3        1.89828   0.00001   0.00000   0.00010   0.00010   1.89838
    A4        1.95791   0.00000   0.00000  -0.00001  -0.00001   1.95790
    A5        1.95791   0.00000   0.00000  -0.00001  -0.00001   1.95790
    A6        1.88097  -0.00001   0.00000  -0.00005  -0.00005   1.88092
    A7        2.03689  -0.00004   0.00000  -0.00016  -0.00016   2.03673
    A8        2.00678  -0.00011   0.00000  -0.00042  -0.00042   2.00636
    A9        1.91133  -0.00000   0.00000   0.00001   0.00001   1.91134
   A10        1.93850  -0.00001   0.00000  -0.00007  -0.00007   1.93843
   A11        1.93850  -0.00001   0.00000  -0.00007  -0.00007   1.93843
   A12        1.89035   0.00001   0.00000   0.00006   0.00006   1.89041
   A13        1.89035   0.00001   0.00000   0.00006   0.00006   1.89041
   A14        1.89352   0.00001   0.00000   0.00000   0.00000   1.89352
    D1        3.14159   0.00000   0.00000   0.00000   0.00000   3.14159
    D2       -1.02207  -0.00000   0.00000  -0.00002  -0.00002  -1.02209
    D3        1.02207   0.00000   0.00000   0.00002   0.00002   1.02209
    D4        3.14159  -0.00000   0.00000  -0.00000   0.00000   3.14159
    D5        1.05451  -0.00000   0.00000  -0.00004  -0.00004   1.05447
    D6       -1.05451   0.00000   0.00000   0.00004   0.00004  -1.05447
    D7        1.06009  -0.00000   0.00000  -0.00004  -0.00004   1.06005
    D8       -1.02699  -0.00000   0.00000  -0.00009  -0.00009  -1.02708
    D9       -3.13601   0.00000   0.00000   0.00000   0.00000  -3.13601
   D10       -1.06009   0.00000   0.00000   0.00004   0.00004  -1.06005
   D11        3.13601  -0.00000   0.00000  -0.00000  -0.00000   3.13601
   D12        1.02699   0.00000   0.00000   0.00009   0.00009   1.02708
   D13        0.00000   0.00000   0.00000   0.00000   0.00000   0.00000
         Item               Value     Threshold  Converged?
 Maximum Force            0.000367     0.000450     YES
 RMS     Force            0.000067     0.000300     YES
 Maximum Displacement     0.000552     0.001800     YES
 RMS     Displacement     0.000151     0.001200     YES
 Predicted change in Energy=-1.880781D-07
 Optimization completed.
    -- Stationary point found.
                           ----------------------------
                           !   Optimized Parameters   !
                           ! (Angstroms and Degrees)  !
 --------------------------                            --------------------------
 ! Name  Definition              Value          Derivative Info.                !
 --------------------------------------------------------------------------------
 ! R1    R(1,2)                  1.4473         -DE/DX =   -0.0001              !
 ! R2    R(1,4)                  1.5129         -DE/DX =    0.0                 !
 ! R3    R(1,5)                  1.0909         -DE/DX =    0.0                 !
 ! R4    R(1,6)                  1.0909         -DE/DX =    0.0                 !
 ! R5    R(2,3)                  1.3939         -DE/DX =    0.0004              !
 ! R6    R(3,10)                 1.1793         -DE/DX =   -0.0001              !
 ! R7    R(4,7)                  1.0905         -DE/DX =    0.0                 !
 ! R8    R(4,8)                  1.0892         -DE/DX =    0.0                 !
 ! R9    R(4,9)                  1.0892         -DE/DX =    0.0                 !
 ! A1    A(2,1,4)              107.0932         -DE/DX =    0.0                 !
 ! A2    A(2,1,5)              108.7636         -DE/DX =    0.0                 !
 ! A3    A(2,1,6)              108.7636         -DE/DX =    0.0                 !
 ! A4    A(4,1,5)              112.1801         -DE/DX =    0.0                 !
 ! A5    A(4,1,6)              112.1801         -DE/DX =    0.0                 !
 ! A6    A(5,1,6)              107.7719         -DE/DX =    0.0                 !
 ! A7    A(1,2,3)              116.7053         -DE/DX =    0.0                 !
 ! A8    A(2,3,10)             114.9803         -DE/DX =   -0.0001              !
 ! A9    A(1,4,7)              109.5111         -DE/DX =    0.0                 !
 ! A10   A(1,4,8)              111.0679         -DE/DX =    0.0                 !
 ! A11   A(1,4,9)              111.0679         -DE/DX =    0.0                 !
 ! A12   A(7,4,8)              108.3091         -DE/DX =    0.0                 !
 ! A13   A(7,4,9)              108.3091         -DE/DX =    0.0                 !
 ! A14   A(8,4,9)              108.4906         -DE/DX =    0.0                 !
 ! D1    D(4,1,2,3)            180.0            -DE/DX =    0.0                 !
 ! D2    D(5,1,2,3)            -58.5602         -DE/DX =    0.0                 !
 ! D3    D(6,1,2,3)             58.5602         -DE/DX =    0.0                 !
 ! D4    D(2,1,4,7)            180.0            -DE/DX =    0.0                 !
 ! D5    D(2,1,4,8)             60.4189         -DE/DX =    0.0                 !
 ! D6    D(2,1,4,9)            -60.4189         -DE/DX =    0.0                 !
 ! D7    D(5,1,4,7)             60.7389         -DE/DX =    0.0                 !
 ! D8    D(5,1,4,8)            -58.8422         -DE/DX =    0.0                 !
 ! D9    D(5,1,4,9)           -179.68           -DE/DX =    0.0                 !
 ! D10   D(6,1,4,7)            -60.7389         -DE/DX =    0.0                 !
 ! D11   D(6,1,4,8)            179.68           -DE/DX =    0.0                 !
 ! D12   D(6,1,4,9)             58.8422         -DE/DX =    0.0                 !
 ! D13   D(1,2,3,10)             0.0            -DE/DX =    0.0                 !
 --------------------------------------------------------------------------------
 GradGradGradGradGradGradGradGradGradGradGradGradGradGradGradGradGradGrad

                          Input orientation:                          
 ---------------------------------------------------------------------
 Center     Atomic      Atomic             Coordinates (Angstroms)
 Number     Number       Type             X           Y           Z
 ---------------------------------------------------------------------
      1          6           0        0.646993   -0.564597    0.000000
      2          8           0        0.000000    0.730049    0.000000
      3          7           0       -1.393874    0.733745    0.000000
      4          6           0        2.139285   -0.315940    0.000000
      5          1           0        0.321916   -1.119333    0.881274
      6          1           0        0.321916   -1.119333   -0.881274
      7          1           0        2.667482   -1.269963    0.000000
      8          1           0        2.443020    0.243316    0.883881
      9          1           0        2.443020    0.243316   -0.883881
     10          8           0       -1.894738   -0.333923    0.000000
 ---------------------------------------------------------------------
                    Distance matrix (angstroms):
                    1          2          3          4          5
     1  C    0.000000
     2  O    1.447311   0.000000
     3  N    2.418849   1.393879   0.000000
     4  C    1.512867   2.381309   3.685790   0.000000
     5  H    1.090895   2.073762   2.674785   2.173687   0.000000
     6  H    1.090895   2.073762   2.674785   2.173687   1.762548
     7  H    2.140074   3.333993   4.528737   1.090482   2.510182
     8  H    2.158630   2.643199   3.967811   1.089159   2.521091
     9  H    2.158630   2.643199   3.967811   1.089159   3.077607
    10  O    2.552177   2.173032   1.179313   4.034063   2.511388
                    6          7          8          9         10
     6  H    0.000000
     7  H    2.510182   0.000000
     8  H    3.077607   1.766817   0.000000
     9  H    2.521091   1.766817   1.767762   0.000000
    10  O    2.511388   4.657255   4.464369   4.464369   0.000000
 Stoichiometry    C2H5NO2
 Framework group  CS[SG(C2HNO2),X(H4)]
 Deg. of freedom    15
 Full point group                 CS      NOp   2
 Largest Abelian subgroup         CS      NOp   2
 Largest concise Abelian subgroup CS      NOp   2
                         Standard orientation:                         
 ---------------------------------------------------------------------
 Center     Atomic      Atomic             Coordinates (Angstroms)
 Number     Number       Type             X           Y           Z
 ---------------------------------------------------------------------
      1          6           0        0.646993   -0.564597    0.000000
      2          8           0        0.000000    0.730049    0.000000
      3          7           0       -1.393874    0.733745    0.000000
      4          6           0        2.139285   -0.315940    0.000000
      5          1           0        0.321916   -1.119333    0.881274
      6          1           0        0.321916   -1.119333   -0.881274
      7          1           0        2.667482   -1.269963    0.000000
      8          1           0        2.443020    0.243316    0.883881
      9          1           0        2.443020    0.243316   -0.883881
     10          8           0       -1.894738   -0.333923    0.000000
 ---------------------------------------------------------------------
 Rotational constants (GHZ):          18.3955244           2.9916813           2.6582008
 1\1\GINC-GAMBA\FOpt\RB3LYP\Gen\C2H5N1O2\IRIKURA\28-Sep-2023\0\\# b3lyp
 /gen opt freq CPHF(Grid=OneStep)\\ethyl nitrite, B3LYP/pcseg-2\\0,1\C,
 0.646993,-0.564597,0.\O,0.,0.730049,0.\N,-1.393874,0.733745,0.\C,2.139
 285,-0.31594,0.\H,0.321916,-1.119333,0.881274\H,0.321916,-1.119333,-0.
 881274\H,2.667482,-1.269963,0.\H,2.44302,0.243316,0.883881\H,2.44302,0
 .243316,-0.883881\O,-1.894738,-0.333923,0.\\Version=ES64L-G16RevB.01\S
 tate=1-A'\HF=-284.4475236\RMSD=9.463e-09\RMSF=1.161e-04\Dipole=0.84000
 48,-0.5428272,0.\Quadrupole=-0.7801563,-0.6723601,1.4525163,-0.7289665
 ,0.,0.\PG=CS [SG(C2H1N1O2),X(H4)]\\@


 CHINESE FORTUNE COOKIE OF JAN 1 1967 SAY....
 ALL THINGS ARE DIFFICULT BEFORE THEY ARE EASY.
 WE LEARN SO LITTLE AND FORGET SO MUCH.
 YOU WILL OVERCOME OBSTACLES TO ACHIEVE SUCCESS.
 AH SO.
 Job cpu time:       0 days  0 hours  1 minutes 59.4 seconds.
 Elapsed time:       0 days  0 hours  0 minutes 31.5 seconds.
 File lengths (MBytes):  RWF=     26 Int=      0 D2E=      0 Chk=      4 Scr=      1
 Normal termination of Gaussian 16 at Thu Sep 28 14:14:01 2023.
 Link1:  Proceeding to internal job step number  2.
 ------------------------------------------------------------------
 #N Geom=AllCheck Guess=TCheck SCRF=Check GenChk RB3LYP/ChkBas Freq
 ------------------------------------------------------------------
 1/10=4,29=7,30=1,38=1,40=1/1,3;
 2/12=2,40=1/2;
 3/5=7,6=2,11=2,14=-4,25=1,30=1,67=1,70=2,71=2,74=-5,82=7,116=1,140=1/1,2,3;
 4/5=101/1;
 5/5=2,38=6,98=1/2;
 8/6=4,10=90,11=11/1;
 11/6=1,8=1,9=11,15=111,16=1/1,2,10;
 10/6=1,60=-420/2;
 6/7=2,8=2,9=2,10=2,28=1/1;
 7/8=1,10=1,25=1/1,2,3,16;
 1/10=4,30=1/3;
 99//99;
 Structure from the checkpoint file:  "etono.chk"
 ----------------------------
 ethyl nitrite, B3LYP/pcseg-2
 ----------------------------
 Charge =  0 Multiplicity = 1
 Redundant internal coordinates found in file.  (old form).
 C,0,0.646993,-0.564597,0.
 O,0,0.,0.730049,0.
 N,0,-1.393874,0.733745,0.
 C,0,2.139285,-0.31594,0.
 H,0,0.321916,-1.119333,0.881274
 H,0,0.321916,-1.119333,-0.881274
 H,0,2.667482,-1.269963,0.
 H,0,2.44302,0.243316,0.883881
 H,0,2.44302,0.243316,-0.883881
 O,0,-1.894738,-0.333923,0.
 Recover connectivity data from disk.

 GradGradGradGradGradGradGradGradGradGradGradGradGradGradGradGradGradGrad
 Berny optimization.
 Initialization pass.
                           ----------------------------
                           !    Initial Parameters    !
                           ! (Angstroms and Degrees)  !
 --------------------------                            --------------------------
 ! Name  Definition              Value          Derivative Info.                !
 --------------------------------------------------------------------------------
 ! R1    R(1,2)                  1.4473         calculate D2E/DX2 analytically  !
 ! R2    R(1,4)                  1.5129         calculate D2E/DX2 analytically  !
 ! R3    R(1,5)                  1.0909         calculate D2E/DX2 analytically  !
 ! R4    R(1,6)                  1.0909         calculate D2E/DX2 analytically  !
 ! R5    R(2,3)                  1.3939         calculate D2E/DX2 analytically  !
 ! R6    R(3,10)                 1.1793         calculate D2E/DX2 analytically  !
 ! R7    R(4,7)                  1.0905         calculate D2E/DX2 analytically  !
 ! R8    R(4,8)                  1.0892         calculate D2E/DX2 analytically  !
 ! R9    R(4,9)                  1.0892         calculate D2E/DX2 analytically  !
 ! A1    A(2,1,4)              107.0932         calculate D2E/DX2 analytically  !
 ! A2    A(2,1,5)              108.7636         calculate D2E/DX2 analytically  !
 ! A3    A(2,1,6)              108.7636         calculate D2E/DX2 analytically  !
 ! A4    A(4,1,5)              112.1801         calculate D2E/DX2 analytically  !
 ! A5    A(4,1,6)              112.1801         calculate D2E/DX2 analytically  !
 ! A6    A(5,1,6)              107.7719         calculate D2E/DX2 analytically  !
 ! A7    A(1,2,3)              116.7053         calculate D2E/DX2 analytically  !
 ! A8    A(2,3,10)             114.9803         calculate D2E/DX2 analytically  !
 ! A9    A(1,4,7)              109.5111         calculate D2E/DX2 analytically  !
 ! A10   A(1,4,8)              111.0679         calculate D2E/DX2 analytically  !
 ! A11   A(1,4,9)              111.0679         calculate D2E/DX2 analytically  !
 ! A12   A(7,4,8)              108.3091         calculate D2E/DX2 analytically  !
 ! A13   A(7,4,9)              108.3091         calculate D2E/DX2 analytically  !
 ! A14   A(8,4,9)              108.4906         calculate D2E/DX2 analytically  !
 ! D1    D(4,1,2,3)            180.0            calculate D2E/DX2 analytically  !
 ! D2    D(5,1,2,3)            -58.5602         calculate D2E/DX2 analytically  !
 ! D3    D(6,1,2,3)             58.5602         calculate D2E/DX2 analytically  !
 ! D4    D(2,1,4,7)            180.0            calculate D2E/DX2 analytically  !
 ! D5    D(2,1,4,8)             60.4189         calculate D2E/DX2 analytically  !
 ! D6    D(2,1,4,9)            -60.4189         calculate D2E/DX2 analytically  !
 ! D7    D(5,1,4,7)             60.7389         calculate D2E/DX2 analytically  !
 ! D8    D(5,1,4,8)            -58.8422         calculate D2E/DX2 analytically  !
 ! D9    D(5,1,4,9)           -179.68           calculate D2E/DX2 analytically  !
 ! D10   D(6,1,4,7)            -60.7389         calculate D2E/DX2 analytically  !
 ! D11   D(6,1,4,8)            179.68           calculate D2E/DX2 analytically  !
 ! D12   D(6,1,4,9)             58.8422         calculate D2E/DX2 analytically  !
 ! D13   D(1,2,3,10)             0.0            calculate D2E/DX2 analytically  !
 --------------------------------------------------------------------------------
 Trust Radius=3.00D-01 FncErr=1.00D-07 GrdErr=1.00D-07 EigMax=2.50D+02 EigMin=1.00D-04
 Number of steps in this run=      2 maximum allowed number of steps=      2.
 GradGradGradGradGradGradGradGradGradGradGradGradGradGradGradGradGradGrad

                          Input orientation:                          
 ---------------------------------------------------------------------
 Center     Atomic      Atomic             Coordinates (Angstroms)
 Number     Number       Type             X           Y           Z
 ---------------------------------------------------------------------
      1          6           0        0.646993   -0.564597    0.000000
      2          8           0        0.000000    0.730049    0.000000
      3          7           0       -1.393874    0.733745    0.000000
      4          6           0        2.139285   -0.315940    0.000000
      5          1           0        0.321916   -1.119333    0.881274
      6          1           0        0.321916   -1.119333   -0.881274
      7          1           0        2.667482   -1.269963    0.000000
      8          1           0        2.443020    0.243316    0.883881
      9          1           0        2.443020    0.243316   -0.883881
     10          8           0       -1.894738   -0.333923    0.000000
 ---------------------------------------------------------------------
                    Distance matrix (angstroms):
                    1          2          3          4          5
     1  C    0.000000
     2  O    1.447311   0.000000
     3  N    2.418849   1.393879   0.000000
     4  C    1.512867   2.381309   3.685790   0.000000
     5  H    1.090895   2.073762   2.674785   2.173687   0.000000
     6  H    1.090895   2.073762   2.674785   2.173687   1.762548
     7  H    2.140074   3.333993   4.528737   1.090482   2.510182
     8  H    2.158630   2.643199   3.967811   1.089159   2.521091
     9  H    2.158630   2.643199   3.967811   1.089159   3.077607
    10  O    2.552177   2.173032   1.179313   4.034063   2.511388
                    6          7          8          9         10
     6  H    0.000000
     7  H    2.510182   0.000000
     8  H    3.077607   1.766817   0.000000
     9  H    2.521091   1.766817   1.767762   0.000000
    10  O    2.511388   4.657255   4.464369   4.464369   0.000000
 Stoichiometry    C2H5NO2
 Framework group  CS[SG(C2HNO2),X(H4)]
 Deg. of freedom    15
 Full point group                 CS      NOp   2
 Largest Abelian subgroup         CS      NOp   2
 Largest concise Abelian subgroup CS      NOp   2
                         Standard orientation:                         
 ---------------------------------------------------------------------
 Center     Atomic      Atomic             Coordinates (Angstroms)
 Number     Number       Type             X           Y           Z
 ---------------------------------------------------------------------
      1          6           0        0.646993   -0.564597    0.000000
      2          8           0        0.000000    0.730049    0.000000
      3          7           0       -1.393874    0.733745    0.000000
      4          6           0        2.139285   -0.315940    0.000000
      5          1           0        0.321916   -1.119333    0.881274
      6          1           0        0.321916   -1.119333   -0.881274
      7          1           0        2.667482   -1.269963    0.000000
      8          1           0        2.443020    0.243316    0.883881
      9          1           0        2.443020    0.243316   -0.883881
     10          8           0       -1.894738   -0.333923    0.000000
 ---------------------------------------------------------------------
 Rotational constants (GHZ):          18.3955244           2.9916813           2.6582008
 Basis read from chk: "etono.chk" (5D, 7F)
 There are   161 symmetry adapted cartesian basis functions of A'  symmetry.
 There are    89 symmetry adapted cartesian basis functions of A"  symmetry.
 There are   138 symmetry adapted basis functions of A'  symmetry.
 There are    82 symmetry adapted basis functions of A"  symmetry.
   220 basis functions,   345 primitive gaussians,   250 cartesian basis functions
    20 alpha electrons       20 beta electrons
       nuclear repulsion energy       178.7311022527 Hartrees.
 NAtoms=   10 NActive=   10 NUniq=    8 SFac= 1.56D+00 NAtFMM=   60 NAOKFM=F Big=F
 Integral buffers will be    131072 words long.
 Raffenetti 2 integral format.
 Two-electron integral symmetry is turned on.
 One-electron integrals computed using PRISM.
 NBasis=   220 RedAO= T EigKep=  5.10D-04  NBF=   138    82
 NBsUse=   220 1.00D-06 EigRej= -1.00D+00 NBFU=   138    82
 Initial guess from the checkpoint file:  "etono.chk"
 B after Tr=     0.000000   -0.000000    0.000000
         Rot=    1.000000   -0.000000    0.000000   -0.000000 Ang=   0.00 deg.
 Initial guess orbital symmetries:
       Occupied  (A') (A') (A') (A') (A') (A') (A') (A') (A') (A')
                 (A') (A") (A') (A") (A') (A') (A") (A') (A") (A')
       Virtual   (A") (A') (A') (A") (A') (A') (A") (A') (A') (A')
                 (A") (A') (A") (A') (A') (A') (A") (A") (A') (A')
                 (A') (A') (A') (A") (A') (A") (A') (A') (A') (A")
                 (A') (A') (A') (A") (A') (A') (A") (A') (A') (A")
                 (A") (A') (A") (A") (A') (A') (A") (A') (A") (A')
                 (A") (A') (A') (A') (A") (A') (A") (A") (A') (A')
                 (A') (A") (A') (A') (A") (A") (A') (A') (A') (A")
                 (A') (A') (A') (A") (A') (A') (A") (A') (A') (A")
                 (A') (A") (A') (A') (A') (A") (A') (A') (A") (A')
                 (A") (A') (A") (A') (A') (A') (A') (A') (A") (A")
                 (A") (A') (A") (A') (A') (A") (A') (A") (A') (A")
                 (A') (A") (A') (A") (A') (A") (A') (A") (A") (A')
                 (A') (A") (A") (A") (A') (A") (A') (A') (A') (A')
                 (A') (A") (A') (A") (A') (A") (A') (A') (A') (A')
                 (A") (A') (A") (A') (A") (A') (A") (A') (A") (A')
                 (A") (A') (A') (A") (A') (A') (A") (A") (A') (A")
                 (A') (A') (A") (A') (A") (A') (A') (A") (A') (A')
                 (A") (A") (A") (A') (A') (A') (A") (A") (A') (A')
                 (A") (A") (A') (A') (A") (A') (A') (A") (A') (A")
                 (A') (A') (A") (A') (A") (A') (A') (A') (A') (A')
 Keep R1 ints in memory in symmetry-blocked form, NReq=444013409.
 Requested convergence on RMS density matrix=1.00D-08 within 128 cycles.
 Requested convergence on MAX density matrix=1.00D-06.
 Requested convergence on             energy=1.00D-06.
 No special actions if energy rises.
 SCF Done:  E(RB3LYP) =  -284.447523559     A.U. after    1 cycles
            NFock=  1  Conv=0.87D-08     -V/T= 2.0033
 DoSCS=F DFT=T ScalE2(SS,OS)=  1.000000  1.000000
 Range of M.O.s used for correlation:     1   220
 NBasis=   220 NAE=    20 NBE=    20 NFC=     0 NFV=     0
 NROrb=    220 NOA=    20 NOB=    20 NVA=   200 NVB=   200

 **** Warning!!: The largest alpha MO coefficient is  0.14736896D+02

 Symmetrizing basis deriv contribution to polar:
 IMax=3 JMax=2 DiffMx= 0.00D+00
 G2DrvN: will do    11 centers at a time, making    1 passes.
 Calling FoFCou, ICntrl=  3107 FMM=F I1Cent=   0 AccDes= 0.00D+00.
 End of G2Drv F.D. properties file   721 does not exist.
 End of G2Drv F.D. properties file   722 does not exist.
 End of G2Drv F.D. properties file   788 does not exist.
          IDoAtm=1111111111
          Differentiating once with respect to electric field.
                with respect to dipole field.
          Differentiating once with respect to nuclear coordinates.
 Keep R1 ints in memory in symmetry-blocked form, NReq=444019616.
          There are    27 degrees of freedom in the 1st order CPHF.  IDoFFX=4 NUNeed=    27.
     27 vectors produced by pass  0 Test12= 1.48D-14 3.70D-09 XBig12= 4.61D+01 4.16D+00.
 AX will form    27 AO Fock derivatives at one time.
     27 vectors produced by pass  1 Test12= 1.48D-14 3.70D-09 XBig12= 2.54D+01 1.86D+00.
     27 vectors produced by pass  2 Test12= 1.48D-14 3.70D-09 XBig12= 2.55D-01 1.16D-01.
     27 vectors produced by pass  3 Test12= 1.48D-14 3.70D-09 XBig12= 2.61D-03 1.04D-02.
     27 vectors produced by pass  4 Test12= 1.48D-14 3.70D-09 XBig12= 9.93D-06 4.80D-04.
     22 vectors produced by pass  5 Test12= 1.48D-14 3.70D-09 XBig12= 1.72D-08 1.87D-05.
      7 vectors produced by pass  6 Test12= 1.48D-14 3.70D-09 XBig12= 1.71D-11 6.80D-07.
      2 vectors produced by pass  7 Test12= 1.48D-14 3.70D-09 XBig12= 2.13D-14 2.74D-08.
 InvSVY:  IOpt=1 It=  1 EMax= 5.33D-15
 Solved reduced A of dimension   166 with    27 vectors.
 Isotropic polarizability for W=    0.000000       42.79 Bohr**3.
 End of Minotr F.D. properties file   721 does not exist.
 End of Minotr F.D. properties file   722 does not exist.
 End of Minotr F.D. properties file   788 does not exist.

 **********************************************************************

            Population analysis using the SCF Density.

 **********************************************************************

 Orbital symmetries:
       Occupied  (A') (A') (A') (A') (A') (A') (A') (A') (A') (A')
                 (A') (A") (A') (A") (A') (A') (A") (A') (A") (A')
       Virtual   (A") (A') (A') (A") (A') (A') (A") (A') (A') (A')
                 (A") (A') (A") (A') (A') (A') (A") (A") (A') (A')
                 (A') (A') (A') (A") (A') (A") (A') (A') (A') (A")
                 (A') (A') (A') (A") (A') (A') (A") (A') (A') (A")
                 (A") (A') (A") (A") (A') (A') (A") (A') (A") (A')
                 (A") (A') (A') (A') (A") (A') (A") (A") (A') (A')
                 (A') (A") (A') (A') (A") (A") (A') (A') (A') (A")
                 (A') (A') (A') (A") (A') (A') (A") (A') (A') (A")
                 (A') (A") (A') (A') (A') (A") (A') (A') (A") (A')
                 (A") (A') (A") (A') (A') (A') (A') (A') (A") (A")
                 (A") (A') (A") (A') (A') (A") (A') (A") (A') (A")
                 (A') (A") (A') (A") (A') (A") (A') (A") (A") (A')
                 (A') (A") (A") (A") (A') (A") (A') (A') (A') (A')
                 (A') (A") (A') (A") (A') (A") (A') (A') (A') (A')
                 (A") (A') (A") (A') (A") (A') (A") (A') (A") (A')
                 (A") (A') (A') (A") (A') (A') (A") (A") (A') (A")
                 (A') (A') (A") (A') (A") (A') (A') (A") (A') (A')
                 (A") (A") (A") (A') (A') (A') (A") (A") (A') (A')
                 (A") (A") (A') (A') (A") (A') (A') (A") (A') (A")
                 (A') (A') (A") (A') (A") (A') (A') (A') (A') (A')
 The electronic state is 1-A'.
 Alpha  occ. eigenvalues --  -19.20096 -19.19857 -14.49594 -10.24347 -10.18320
 Alpha  occ. eigenvalues --   -1.23048  -1.06376  -0.80153  -0.69600  -0.61634
 Alpha  occ. eigenvalues --   -0.56428  -0.52911  -0.50512  -0.47300  -0.42054
 Alpha  occ. eigenvalues --   -0.41135  -0.39070  -0.37466  -0.33215  -0.28649
 Alpha virt. eigenvalues --   -0.08366   0.00957   0.04460   0.05258   0.06552
 Alpha virt. eigenvalues --    0.08322   0.09345   0.12743   0.13899   0.15796
 Alpha virt. eigenvalues --    0.17265   0.19646   0.22290   0.23194   0.25041
 Alpha virt. eigenvalues --    0.28096   0.29169   0.31026   0.31177   0.33530
 Alpha virt. eigenvalues --    0.33939   0.34911   0.35248   0.35921   0.39203
 Alpha virt. eigenvalues --    0.42063   0.44436   0.45456   0.46645   0.49482
 Alpha virt. eigenvalues --    0.51245   0.58442   0.59478   0.66206   0.72821
 Alpha virt. eigenvalues --    0.73788   0.79673   0.80592   0.86704   0.92035
 Alpha virt. eigenvalues --    0.94428   0.95173   0.96781   0.99489   1.00894
 Alpha virt. eigenvalues --    1.04134   1.05672   1.08206   1.09026   1.12231
 Alpha virt. eigenvalues --    1.16351   1.16539   1.23302   1.25840   1.27175
 Alpha virt. eigenvalues --    1.29611   1.33895   1.39001   1.39770   1.44087
 Alpha virt. eigenvalues --    1.48051   1.51499   1.55062   1.64197   1.67136
 Alpha virt. eigenvalues --    1.67301   1.69131   1.70320   1.73011   1.76261
 Alpha virt. eigenvalues --    1.78847   1.81561   1.85117   1.86882   1.90662
 Alpha virt. eigenvalues --    1.92497   1.92955   1.96582   2.02129   2.04963
 Alpha virt. eigenvalues --    2.10705   2.14376   2.20259   2.23879   2.31999
 Alpha virt. eigenvalues --    2.32552   2.35763   2.41672   2.44516   2.51092
 Alpha virt. eigenvalues --    2.57874   2.57988   2.68390   2.72470   2.81121
 Alpha virt. eigenvalues --    3.07077   3.08760   3.11614   3.14473   3.25153
 Alpha virt. eigenvalues --    3.28240   3.28812   3.30004   3.31396   3.40403
 Alpha virt. eigenvalues --    3.42145   3.44580   3.45031   3.49925   3.53674
 Alpha virt. eigenvalues --    3.57408   3.62819   3.65413   3.73328   3.76243
 Alpha virt. eigenvalues --    3.77424   3.81481   3.83684   3.84665   3.88081
 Alpha virt. eigenvalues --    3.90138   3.93844   3.97427   3.98807   3.99412
 Alpha virt. eigenvalues --    4.03364   4.06399   4.12726   4.13148   4.25931
 Alpha virt. eigenvalues --    4.27400   4.29319   4.33507   4.35290   4.37621
 Alpha virt. eigenvalues --    4.39763   4.44369   4.47805   4.50951   4.51625
 Alpha virt. eigenvalues --    4.53534   4.56100   4.57524   4.60826   4.60965
 Alpha virt. eigenvalues --    4.61565   4.64472   4.69832   4.70626   4.78342
 Alpha virt. eigenvalues --    4.81597   4.84097   4.92484   4.95210   5.00948
 Alpha virt. eigenvalues --    5.03688   5.06523   5.07345   5.09724   5.10555
 Alpha virt. eigenvalues --    5.26085   5.27266   5.31016   5.32089   5.34327
 Alpha virt. eigenvalues --    5.38268   5.47598   5.55049   5.55197   5.63411
 Alpha virt. eigenvalues --    5.64623   5.69337   5.70008   5.72557   5.77288
 Alpha virt. eigenvalues --    5.80721   5.80948   5.88316   5.90229   5.93358
 Alpha virt. eigenvalues --    5.98202   6.02992   6.03931   6.06149   6.08721
 Alpha virt. eigenvalues --    6.17807   6.19333   6.22862   6.26823   6.33284
 Alpha virt. eigenvalues --    6.42978   6.43565   6.49568   6.50885   6.68405
 Alpha virt. eigenvalues --    6.86506   6.91724   7.10430   7.55722   9.40836
          Condensed to atoms (all electrons):
               1          2          3          4          5          6
     1  C    4.573141   0.178638  -0.012416   0.316388   0.435781   0.435781
     2  O    0.178638   8.263911   0.019823  -0.042832  -0.038360  -0.038360
     3  N   -0.012416   0.019823   6.510662   0.004344  -0.006097  -0.006097
     4  C    0.316388  -0.042832   0.004344   4.571667  -0.033723  -0.033723
     5  H    0.435781  -0.038360  -0.006097  -0.033723   0.652696  -0.047444
     6  H    0.435781  -0.038360  -0.006097  -0.033723  -0.047444   0.652696
     7  H   -0.032606   0.004311  -0.000176   0.416308  -0.003070  -0.003070
     8  H   -0.032528   0.001709  -0.000342   0.422897  -0.011759   0.010440
     9  H   -0.032528   0.001709  -0.000342   0.422897   0.010440  -0.011759
    10  O    0.011970  -0.100775   0.284468   0.003241   0.002598   0.002598
               7          8          9         10
     1  C   -0.032606  -0.032528  -0.032528   0.011970
     2  O    0.004311   0.001709   0.001709  -0.100775
     3  N   -0.000176  -0.000342  -0.000342   0.284468
     4  C    0.416308   0.422897   0.422897   0.003241
     5  H   -0.003070  -0.011759   0.010440   0.002598
     6  H   -0.003070   0.010440  -0.011759   0.002598
     7  H    0.641352  -0.025100  -0.025100   0.000499
     8  H   -0.025100   0.623406  -0.025555  -0.000084
     9  H   -0.025100  -0.025555   0.623406  -0.000084
    10  O    0.000499  -0.000084  -0.000084   8.041246
 Mulliken charges:
               1
     1  C    0.158378
     2  O   -0.249771
     3  N    0.206173
     4  C   -0.047463
     5  H    0.038939
     6  H    0.038939
     7  H    0.026653
     8  H    0.036915
     9  H    0.036915
    10  O   -0.245677
 Sum of Mulliken charges =  -0.00000
 Mulliken charges with hydrogens summed into heavy atoms:
               1
     1  C    0.236255
     2  O   -0.249771
     3  N    0.206173
     4  C    0.053019
    10  O   -0.245677
 APT charges:
               1
     1  C    0.417809
     2  O   -0.716372
     3  N    0.745686
     4  C    0.062394
     5  H   -0.034875
     6  H   -0.034875
     7  H   -0.011037
     8  H   -0.000220
     9  H   -0.000220
    10  O   -0.428291
 Sum of APT charges =   0.00000
 APT charges with hydrogens summed into heavy atoms:
               1
     1  C    0.348059
     2  O   -0.716372
     3  N    0.745686
     4  C    0.050918
    10  O   -0.428291
 Electronic spatial extent (au):  <R**2>=            462.2265
 Charge=             -0.0000 electrons
 Dipole moment (field-independent basis, Debye):
    X=              2.1351    Y=             -1.3797    Z=              0.0000  Tot=              2.5421
 Quadrupole moment (field-independent basis, Debye-Ang):
   XX=            -31.6251   YY=            -31.4801   ZZ=            -28.6220
   XY=             -0.9805   XZ=             -0.0000   YZ=             -0.0000
 Traceless Quadrupole moment (field-independent basis, Debye-Ang):
   XX=             -1.0494   YY=             -0.9043   ZZ=              1.9537
   XY=             -0.9805   XZ=             -0.0000   YZ=             -0.0000
 Octapole moment (field-independent basis, Debye-Ang**2):
  XXX=              1.9206  YYY=             -1.9852  ZZZ=             -0.0000  XYY=             -0.2165
  XXY=              0.7678  XXZ=             -0.0000  XZZ=             -3.3298  YZZ=              0.4397
  YYZ=             -0.0000  XYZ=              0.0000
 Hexadecapole moment (field-independent basis, Debye-Ang**3):
 XXXX=           -465.3711 YYYY=           -102.4691 ZZZZ=            -40.2797 XXXY=             26.5115
 XXXZ=              0.0000 YYYX=             29.3477 YYYZ=              0.0000 ZZZX=              0.0000
 ZZZY=              0.0000 XXYY=            -92.8319 XXZZ=            -79.2740 YYZZ=            -22.9611
 XXYZ=              0.0000 YYXZ=              0.0000 ZZXY=             10.8928
 N-N= 1.787311022527D+02 E-N=-1.024477960848D+03  KE= 2.835043253599D+02
 Symmetry A'   KE= 2.705762631360D+02
 Symmetry A"   KE= 1.292806222392D+01
  Exact polarizability:  56.394  -0.371  39.115   0.000  -0.000  32.860
 Approx polarizability:  77.848   7.396  60.753  -0.000  -0.000  46.626
 Calling FoFJK, ICntrl=    100127 FMM=F ISym2X=1 I1Cent= 0 IOpClX= 0 NMat=1 NMatS=1 NMatT=0.
 Full mass-weighted force constant matrix:
 Low frequencies ---   -5.5943   -1.3902   -0.0008   -0.0006    0.0003   10.0746
 Low frequencies ---   83.0251  231.0601  250.5133
 Diagonal vibrational polarizability:
       18.7807578       1.4286677       1.9164898
 Harmonic frequencies (cm**-1), IR intensities (KM/Mole), Raman scattering
 activities (A**4/AMU), depolarization ratios for plane and unpolarized
 incident light, reduced masses (AMU), force constants (mDyne/A),
 and normal coordinates:
                      1                      2                      3
                     A"                     A"                     A'
 Frequencies --     83.0199               231.0601               250.5132
 Red. masses --      2.7316                 1.1668                 4.3030
 Frc consts  --      0.0111                 0.0367                 0.1591
 IR Inten    --      0.3270                 0.0416                 1.1360
  Atom  AN      X      Y      Z        X      Y      Z        X      Y      Z
     1   6    -0.00   0.00   0.22    -0.00   0.00  -0.06    -0.11   0.21   0.00
     2   8    -0.00   0.00   0.17    -0.00   0.00   0.00    -0.02   0.24  -0.00
     3   7     0.00  -0.00  -0.06    -0.00  -0.00   0.09    -0.05  -0.04  -0.00
     4   6     0.00  -0.00  -0.18    -0.00  -0.00   0.01    -0.06  -0.20  -0.00
     5   1     0.21   0.14   0.39    -0.02  -0.03  -0.08    -0.21   0.24  -0.01
     6   1    -0.21  -0.14   0.39     0.02   0.03  -0.08    -0.21   0.24   0.01
     7   1    -0.00  -0.00  -0.13    -0.00  -0.00   0.61    -0.40  -0.39  -0.00
     8   1     0.22   0.17  -0.37    -0.14   0.47  -0.24     0.14  -0.32   0.00
     9   1    -0.22  -0.17  -0.37     0.14  -0.47  -0.24     0.14  -0.32  -0.00
    10   8     0.00  -0.00  -0.15     0.00  -0.00  -0.04     0.23  -0.17   0.00
                      4                      5                      6
                     A"                     A'                     A'
 Frequencies --    366.7169               369.4180               728.4602
 Red. masses --      4.8313                 3.8900                 8.7857
[...]

            Population analysis using the SCF Density.

 **********************************************************************

 Orbital symmetries:
       Occupied  (A') (A') (A') (A') (A') (A') (A') (A') (A') (A')
                 (A') (A') (A") (A") (A') (A') (A") (A') (A") (A')
       Virtual   (A') (A') (A") (A') (A') (A") (A") (A') (A') (A')
                 (A") (A') (A') (A") (A') (A") (A') (A') (A") (A')
                 (A') (A') (A") (A') (A') (A') (A') (A") (A') (A')
                 (A') (A") (A') (A") (A') (A") (A') (A') (A") (A')
                 (A') (A') (A") (A') (A") (A') (A") (A') (A') (A')
                 (A") (A") (A') (A') (A') (A") (A') (A') (A") (A')
                 (A') (A") (A') (A") (A') (A') (A') (A") (A') (A")
                 (A") (A') (A') (A") (A') (A') (A') (A") (A') (A')
                 (A") (A') (A") (A') (A") (A') (A') (A") (A') (A")
                 (A') (A") (A') (A") (A') (A') (A") (A') (A") (A')
                 (A') (A') (A") (A") (A') (A') (A') (A') (A") (A")
                 (A") (A') (A") (A') (A') (A') (A") (A') (A') (A")
                 (A') (A") (A') (A") (A') (A") (A') (A") (A') (A')
                 (A") (A') (A") (A') (A") (A") (A') (A') (A') (A")
                 (A') (A') (A") (A') (A') (A") (A") (A') (A') (A")
                 (A') (A") (A') (A') (A") (A') (A") (A") (A') (A')
                 (A") (A") (A') (A') (A") (A') (A") (A') (A") (A')
                 (A') (A') (A") (A') (A') (A") (A') (A") (A") (A')
                 (A') (A') (A") (A') (A") (A') (A") (A') (A") (A')
                 (A') (A') (A') (A') (A") (A') (A") (A') (A") (A')
                 (A") (A") (A') (A") (A') (A') (A') (A") (A') (A')
                 (A") (A') (A") (A') (A') (A') (A') (A") (A') (A')
                 (A") (A") (A') (A") (A') (A') (A") (A') (A') (A")
                 (A') (A') (A") (A') (A") (A") (A') (A") (A") (A')
                 (A') (A') (A') (A') (A') (A") (A") (A') (A") (A')
                 (A') (A') (A") (A') (A") (A') (A') (A") (A') (A")
                 (A') (A") (A') (A") (A') (A") (A') (A') (A") (A')
                 (A") (A') (A") (A') (A") (A') (A') (A") (A') (A')
                 (A") (A') (A') (A") (A") (A') (A') (A') (A') (A")
                 (A') (A") (A') (A') (A") (A") (A") (A') (A") (A')
                 (A') (A') (A') (A') (A") (A') (A") (A') (A") (A")
                 (A') (A') (A') (A') (A') (A') (A") (A') (A") (A')
                 (A') (A') (A') (A") (A') (A') (A') (A") (A") (A')
                 (A') (A') (A') (A') (A')
 The electronic state is 1-A'.
 Alpha  occ. eigenvalues --  -20.64491 -20.62677 -15.78058 -11.29728 -11.23243
 Alpha  occ. eigenvalues --   -1.59412  -1.39721  -1.06218  -0.93858  -0.84213
 Alpha  occ. eigenvalues --   -0.76077  -0.71400  -0.70630  -0.62568  -0.58071
 Alpha  occ. eigenvalues --   -0.56616  -0.53748  -0.52659  -0.47749  -0.45075
 Alpha virt. eigenvalues --    0.04609   0.05671   0.06493   0.06633   0.09092
 Alpha virt. eigenvalues --    0.09428   0.09719   0.09881   0.12202   0.13371
 Alpha virt. eigenvalues --    0.14398   0.16266   0.17282   0.18727   0.20336
 Alpha virt. eigenvalues --    0.20630   0.22234   0.23860   0.24655   0.25030
 Alpha virt. eigenvalues --    0.25686   0.26391   0.26585   0.28097   0.32143
 Alpha virt. eigenvalues --    0.33138   0.34611   0.36007   0.37659   0.38587
 Alpha virt. eigenvalues --    0.41389   0.42037   0.43500   0.45127   0.48229
 Alpha virt. eigenvalues --    0.48896   0.50792   0.52462   0.53044   0.54144
 Alpha virt. eigenvalues --    0.57206   0.59865   0.60435   0.61451   0.62543
 Alpha virt. eigenvalues --    0.62606   0.64795   0.66047   0.67638   0.70309
 Alpha virt. eigenvalues --    0.71596   0.73196   0.74888   0.75629   0.76992
 Alpha virt. eigenvalues --    0.77696   0.82032   0.82874   0.83405   0.83990
 Alpha virt. eigenvalues --    0.85970   0.86188   0.87844   0.90614   0.91157
 Alpha virt. eigenvalues --    0.95093   0.98876   0.99047   1.01113   1.01549
 Alpha virt. eigenvalues --    1.03302   1.03867   1.06510   1.06934   1.09191
 Alpha virt. eigenvalues --    1.13047   1.14619   1.14876   1.18810   1.21820
 Alpha virt. eigenvalues --    1.26397   1.27266   1.32495   1.32612   1.39944
 Alpha virt. eigenvalues --    1.44435   1.44749   1.45494   1.48884   1.52629
 Alpha virt. eigenvalues --    1.57718   1.58169   1.61027   1.61858   1.62654
 Alpha virt. eigenvalues --    1.63577   1.66877   1.67319   1.72288   1.74258
 Alpha virt. eigenvalues --    1.76455   1.77048   1.77079   1.81529   1.81541
 Alpha virt. eigenvalues --    1.83435   1.84746   1.88034   1.88175   1.88806
 Alpha virt. eigenvalues --    1.90417   1.91308   1.92970   1.93124   1.94934
 Alpha virt. eigenvalues --    1.96113   1.96477   1.99535   2.00948   2.00949
 Alpha virt. eigenvalues --    2.02455   2.05425   2.06336   2.07601   2.08975
 Alpha virt. eigenvalues --    2.10345   2.14464   2.17113   2.18071   2.21242
 Alpha virt. eigenvalues --    2.24369   2.25416   2.28174   2.29004   2.30094
 Alpha virt. eigenvalues --    2.31228   2.31463   2.35211   2.37329   2.39625
 Alpha virt. eigenvalues --    2.41188   2.42457   2.42462   2.44821   2.47683
 Alpha virt. eigenvalues --    2.47946   2.51618   2.54233   2.56704   2.57542
 Alpha virt. eigenvalues --    2.62550   2.64499   2.65382   2.68058   2.68272
 Alpha virt. eigenvalues --    2.70986   2.71875   2.76301   2.78520   2.80531
 Alpha virt. eigenvalues --    2.81267   2.82825   2.85056   2.86287   2.87412
 Alpha virt. eigenvalues --    2.91832   2.95673   2.99696   3.04408   3.06206
 Alpha virt. eigenvalues --    3.08650   3.10815   3.14839   3.18668   3.19119
 Alpha virt. eigenvalues --    3.23104   3.24157   3.26529   3.29050   3.29796
 Alpha virt. eigenvalues --    3.32732   3.37245   3.39792   3.45106   3.49673
 Alpha virt. eigenvalues --    3.50248   3.51312   3.53956   3.56514   3.58556
 Alpha virt. eigenvalues --    3.63090   3.66241   3.74232   3.75474   3.77420
 Alpha virt. eigenvalues --    3.78096   3.86741   3.89225   3.89387   3.91792
 Alpha virt. eigenvalues --    3.92668   3.95223   3.95942   3.97821   4.02548
 Alpha virt. eigenvalues --    4.04746   4.16029   4.20976   4.23400   4.27057
 Alpha virt. eigenvalues --    4.34113   4.34554   4.43507   4.43761   4.48453
 Alpha virt. eigenvalues --    4.68859   4.71190   4.84030   4.85052   4.86937
 Alpha virt. eigenvalues --    4.89885   4.95093   4.98803   5.11807   5.17342
 Alpha virt. eigenvalues --    5.24319   5.25664   5.41682   5.49924   5.58176
 Alpha virt. eigenvalues --    5.58607   5.70120   5.91090   5.92358   5.96099
 Alpha virt. eigenvalues --    5.98018   5.98713   6.00392   6.00945   6.01656
 Alpha virt. eigenvalues --    6.03663   6.07860   6.12010   6.17576   6.20660
 Alpha virt. eigenvalues --    6.22490   6.24258   6.28416   6.31059   6.33770
 Alpha virt. eigenvalues --    6.39041   6.45131   6.47759   6.53750   6.54904
 Alpha virt. eigenvalues --    6.67259   6.83935   6.92336   6.96273   7.03808
 Alpha virt. eigenvalues --    7.04085   7.11297   7.14592   7.18201   7.19656
 Alpha virt. eigenvalues --    7.20215   7.20779   7.27755   7.28513   7.37706
 Alpha virt. eigenvalues --    7.40224   7.45292   7.60106   7.63707   7.98843
 Alpha virt. eigenvalues --    8.00797   8.03708   8.28037   8.36248   8.40778
 Alpha virt. eigenvalues --    8.45376   8.49215   8.74367   8.77017   8.89655
 Alpha virt. eigenvalues --    8.95677   9.15957   9.22432   9.44677   9.52380
 Alpha virt. eigenvalues --    9.68008   9.72513   9.74240   9.80722  10.08210
 Alpha virt. eigenvalues --   10.16121  10.27138  10.29387  10.46717  10.47115
 Alpha virt. eigenvalues --   10.60200  10.61713  10.91265  10.99727  11.19696
 Alpha virt. eigenvalues --   11.34653  11.45766  11.48811  11.52704  11.62205
 Alpha virt. eigenvalues --   11.71244  11.82849  12.20373  12.83893  13.15504
 Alpha virt. eigenvalues --   21.46371  21.55220  21.61406  21.61818  21.72904
 Alpha virt. eigenvalues --   21.98384  22.99525  23.47374  29.34003  29.71094
 Alpha virt. eigenvalues --   30.49450  32.11475  37.60827  37.67510  37.79014
 Alpha virt. eigenvalues --   38.00840  38.30144  38.37987  42.95810  43.44177
          Condensed to atoms (all electrons):
               1          2          3          4          5          6
     1  C    4.646984   0.111437   0.011269   0.376570   0.429818   0.429818
     2  O    0.111437   8.352954   0.075705  -0.060857  -0.032341  -0.032341
     3  N    0.011269   0.075705   6.251038   0.000127  -0.002926  -0.002926
     4  C    0.376570  -0.060857   0.000127   4.810145  -0.045252  -0.045252
     5  H    0.429818  -0.032341  -0.002926  -0.045252   0.588144  -0.041948
     6  H    0.429818  -0.032341  -0.002926  -0.045252  -0.041948   0.588144
     7  H   -0.037985   0.014427   0.000718   0.432992  -0.006949  -0.006949
     8  H   -0.023132  -0.008864  -0.000685   0.400901  -0.008546   0.008264
     9  H   -0.023132  -0.008864  -0.000685   0.400901   0.008264  -0.008546
    10  O   -0.008905  -0.091666   0.404896   0.001655  -0.003735  -0.003735
               7          8          9         10
     1  C   -0.037985  -0.023132  -0.023132  -0.008905
     2  O    0.014427  -0.008864  -0.008864  -0.091666
     3  N    0.000718  -0.000685  -0.000685   0.404896
     4  C    0.432992   0.400901   0.400901   0.001655
     5  H   -0.006949  -0.008546   0.008264  -0.003735
     6  H   -0.006949   0.008264  -0.008546  -0.003735
     7  H    0.562482  -0.030659  -0.030659   0.000539
     8  H   -0.030659   0.595481  -0.034396  -0.000383
     9  H   -0.030659  -0.034396   0.595481  -0.000383
    10  O    0.000539  -0.000383  -0.000383   7.997952
          Atomic-Atomic Spin Densities.
               1          2          3          4          5          6
     1  C    0.000000   0.000000   0.000000   0.000000   0.000000   0.000000
     2  O    0.000000   0.000000   0.000000   0.000000   0.000000   0.000000
     3  N    0.000000   0.000000   0.000000   0.000000   0.000000   0.000000
     4  C    0.000000   0.000000   0.000000   0.000000   0.000000   0.000000
     5  H    0.000000   0.000000   0.000000   0.000000   0.000000   0.000000
     6  H    0.000000   0.000000   0.000000   0.000000   0.000000   0.000000
     7  H    0.000000   0.000000   0.000000   0.000000   0.000000   0.000000
     8  H    0.000000   0.000000   0.000000   0.000000   0.000000   0.000000
     9  H    0.000000   0.000000   0.000000   0.000000   0.000000   0.000000
    10  O    0.000000   0.000000   0.000000   0.000000   0.000000   0.000000
               7          8          9         10
     1  C    0.000000   0.000000   0.000000   0.000000
     2  O    0.000000   0.000000   0.000000   0.000000
     3  N    0.000000   0.000000   0.000000   0.000000
     4  C    0.000000   0.000000   0.000000   0.000000
     5  H    0.000000   0.000000   0.000000   0.000000
     6  H    0.000000   0.000000   0.000000   0.000000
     7  H    0.000000   0.000000   0.000000   0.000000
     8  H    0.000000   0.000000   0.000000   0.000000
     9  H    0.000000   0.000000   0.000000   0.000000
    10  O    0.000000   0.000000   0.000000   0.000000
 Mulliken charges and spin densities:
               1          2
     1  C    0.087256   0.000000
     2  O   -0.319589   0.000000
     3  N    0.263470   0.000000
     4  C   -0.271930   0.000000
     5  H    0.115472   0.000000
     6  H    0.115472   0.000000
     7  H    0.102046   0.000000
     8  H    0.102019   0.000000
     9  H    0.102019   0.000000
    10  O   -0.296235   0.000000
 Sum of Mulliken charges =  -0.00000   0.00000
 Mulliken charges and spin densities with hydrogens summed into heavy atoms:
               1          2
     1  C    0.318200   0.000000
     2  O   -0.319589   0.000000
     3  N    0.263470   0.000000
     4  C    0.034154   0.000000
    10  O   -0.296235   0.000000
 Electronic spatial extent (au):  <R**2>=            461.6341
 Charge=             -0.0000 electrons
 Dipole moment (field-independent basis, Debye):
    X=              1.9359    Y=             -1.2871    Z=              0.0000  Tot=              2.3247
 Quadrupole moment (field-independent basis, Debye-Ang):
   XX=            -31.3336   YY=            -31.1137   ZZ=            -28.4831
   XY=             -1.2812   XZ=              0.0000   YZ=             -0.0000
 Traceless Quadrupole moment (field-independent basis, Debye-Ang):
   XX=             -1.0235   YY=             -0.8035   ZZ=              1.8270
   XY=             -1.2812   XZ=              0.0000   YZ=             -0.0000
 Octapole moment (field-independent basis, Debye-Ang**2):
  XXX=              1.5662  YYY=             -1.9256  ZZZ=             -0.0000  XYY=             -0.7519
  XXY=              1.1942  XXZ=              0.0000  XZZ=             -3.4487  YZZ=              0.5167
  YYZ=             -0.0000  XYZ=             -0.0000
 Hexadecapole moment (field-independent basis, Debye-Ang**3):
 XXXX=           -461.2389 YYYY=            -99.6769 ZZZZ=            -38.6621 XXXY=             26.2383
 XXXZ=             -0.0000 YYYX=             29.0883 YYYZ=              0.0000 ZZZX=             -0.0000
 ZZZY=             -0.0000 XXYY=            -90.8376 XXZZ=            -78.1625 YYZZ=            -22.1284
 XXYZ=             -0.0000 YYXZ=             -0.0000 ZZXY=             10.7678
 N-N= 1.787311022527D+02 E-N=-1.022823412559D+03  KE= 2.824217584323D+02
 Symmetry A'   KE= 2.699664872607D+02
 Symmetry A"   KE= 1.245527117156D+01
 Symmetry A'   SP= 0.000000000000D+00
 Symmetry A"   SP= 0.000000000000D+00
                          Isotropic Fermi Contact Couplings
        Atom                 a.u.       MegaHertz       Gauss      10(-4) cm-1
     1  C(13)              0.00000       0.00000       0.00000       0.00000
     2  O(17)              0.00000      -0.00000      -0.00000      -0.00000
     3  N(14)              0.00000       0.00000       0.00000       0.00000
     4  C(13)              0.00000       0.00000       0.00000       0.00000
     5  H(1)               0.00000       0.00000       0.00000       0.00000
     6  H(1)               0.00000       0.00000       0.00000       0.00000
     7  H(1)               0.00000       0.00000       0.00000       0.00000
     8  H(1)               0.00000       0.00000       0.00000       0.00000
     9  H(1)               0.00000       0.00000       0.00000       0.00000
    10  O(17)              0.00000      -0.00000      -0.00000      -0.00000
 --------------------------------------------------------
       Center         ----  Spin Dipole Couplings  ----
                      3XX-RR        3YY-RR        3ZZ-RR
 --------------------------------------------------------
     1   Atom        0.000000      0.000000      0.000000
     2   Atom        0.000000      0.000000      0.000000
     3   Atom        0.000000      0.000000      0.000000
     4   Atom        0.000000      0.000000      0.000000
     5   Atom        0.000000      0.000000      0.000000
     6   Atom        0.000000      0.000000      0.000000
     7   Atom        0.000000      0.000000      0.000000
     8   Atom        0.000000      0.000000      0.000000
     9   Atom        0.000000      0.000000      0.000000
    10   Atom        0.000000      0.000000      0.000000
 --------------------------------------------------------
                        XY            XZ            YZ
 --------------------------------------------------------
     1   Atom        0.000000      0.000000      0.000000
     2   Atom        0.000000      0.000000      0.000000
     3   Atom        0.000000      0.000000      0.000000
     4   Atom        0.000000      0.000000      0.000000
     5   Atom        0.000000      0.000000      0.000000
     6   Atom        0.000000      0.000000      0.000000
     7   Atom        0.000000      0.000000      0.000000
     8   Atom        0.000000      0.000000      0.000000
     9   Atom        0.000000      0.000000      0.000000
    10   Atom        0.000000      0.000000      0.000000
 --------------------------------------------------------


 ---------------------------------------------------------------------------------
              Anisotropic Spin Dipole Couplings in Principal Axis System
 ---------------------------------------------------------------------------------

       Atom             a.u.   MegaHertz   Gauss  10(-4) cm-1        Axes

              Baa     0.0000     0.000     0.000     0.000  1.0000  0.0000  0.0000
     1 C(13)  Bbb     0.0000     0.000     0.000     0.000 -0.0000  1.0000  0.0000
              Bcc     0.0000     0.000     0.000     0.000  0.0000  0.0000  1.0000
 
              Baa     0.0000    -0.000    -0.000    -0.000  1.0000  0.0000  0.0000
     2 O(17)  Bbb     0.0000    -0.000    -0.000    -0.000 -0.0000  1.0000  0.0000
              Bcc     0.0000    -0.000    -0.000    -0.000  0.0000  0.0000  1.0000
 
              Baa     0.0000     0.000     0.000     0.000  1.0000  0.0000  0.0000
     3 N(14)  Bbb     0.0000     0.000     0.000     0.000 -0.0000  1.0000  0.0000
              Bcc     0.0000     0.000     0.000     0.000  0.0000  0.0000  1.0000
 
              Baa     0.0000     0.000     0.000     0.000  1.0000  0.0000  0.0000
     4 C(13)  Bbb     0.0000     0.000     0.000     0.000 -0.0000  1.0000  0.0000
              Bcc     0.0000     0.000     0.000     0.000  0.0000  0.0000  1.0000
 
              Baa     0.0000     0.000     0.000     0.000  1.0000  0.0000  0.0000
     5 H(1)   Bbb     0.0000     0.000     0.000     0.000 -0.0000  1.0000  0.0000
              Bcc     0.0000     0.000     0.000     0.000  0.0000  0.0000  1.0000
 
              Baa     0.0000     0.000     0.000     0.000  1.0000  0.0000  0.0000
     6 H(1)   Bbb     0.0000     0.000     0.000     0.000 -0.0000  1.0000  0.0000
              Bcc     0.0000     0.000     0.000     0.000  0.0000  0.0000  1.0000
 
              Baa     0.0000     0.000     0.000     0.000  1.0000  0.0000  0.0000
     7 H(1)   Bbb     0.0000     0.000     0.000     0.000 -0.0000  1.0000  0.0000
              Bcc     0.0000     0.000     0.000     0.000  0.0000  0.0000  1.0000
 
              Baa     0.0000     0.000     0.000     0.000  1.0000  0.0000  0.0000
     8 H(1)   Bbb     0.0000     0.000     0.000     0.000 -0.0000  1.0000  0.0000
              Bcc     0.0000     0.000     0.000     0.000  0.0000  0.0000  1.0000
 
              Baa     0.0000     0.000     0.000     0.000  1.0000  0.0000  0.0000
     9 H(1)   Bbb     0.0000     0.000     0.000     0.000 -0.0000  1.0000  0.0000
              Bcc     0.0000     0.000     0.000     0.000  0.0000  0.0000  1.0000
 
              Baa     0.0000    -0.000    -0.000    -0.000  1.0000  0.0000  0.0000
    10 O(17)  Bbb     0.0000    -0.000    -0.000    -0.000 -0.0000  1.0000  0.0000
              Bcc     0.0000    -0.000    -0.000    -0.000  0.0000  0.0000  1.0000
 

 ---------------------------------------------------------------------------------

 1\1\GINC-GAMBA\SP\ROHF\Gen\C2H5N1O2\IRIKURA\28-Sep-2023\0\\# rohf/gen 
 geom=check guess=check\\ethyl nitrite, ROHF/cc-pVTZ-F12\\0,1\C,0,0.646
 993,-0.564597,0.\O,0,0.,0.730049,0.\N,0,-1.393874,0.733745,0.\C,0,2.13
 9285,-0.31594,0.\H,0,0.321916,-1.119333,0.881274\H,0,0.321916,-1.11933
 3,-0.881274\H,0,2.667482,-1.269963,0.\H,0,2.44302,0.243316,0.883881\H,
 0,2.44302,0.243316,-0.883881\O,0,-1.894738,-0.333923,0.\\Version=ES64L
 -G16RevB.01\State=1-A'\HF=-282.831876\RMSD=5.643e-09\Dipole=0.7616575,
 -0.5063778,0.\Quadrupole=-0.76092,-0.5974182,1.3583382,-0.9525514,0.,0
 .\PG=CS [SG(C2H1N1O2),X(H4)]\\@


 HICKORY, DICKORY, DOCK
 TWO MICE RAN UP THE CLOCK
 THE CLOCK STRUCK ONE...
 THE OTHER ESCAPED WITH MINOR INJURIES.
 Job cpu time:       0 days  0 hours  9 minutes 48.3 seconds.
 Elapsed time:       0 days  0 hours  2 minutes 27.2 seconds.
 File lengths (MBytes):  RWF=     92 Int=      0 D2E=      0 Chk=     12 Scr=      1
 Normal termination of Gaussian 16 at Thu Sep 28 14:21:49 2023.
