 Entering Gaussian System, Link 0=g16
 AtFile(1): pcseg2.gbs
            -H     0
            S   4   1.00
                  0.754732D+02           0.427821D-02
                  0.113575D+02           0.328672D-01
                  0.260081D+01           0.159578D+00
                  0.735503D+00           0.500000D+00
            S   1   1.00
                  0.231761D+00           1.0000000
            S   1   1.00
                  0.741675D-01           1.0000000
            P   1   1.00
                  0.160000D+01           1.0000000
            P   1   1.00
                  0.450000D+00           1.0000000
            D   1   1.00
                  0.125000D+01           1.0000000
            ****
            -C     0
            S   7   1.00
                  0.731999D+04           0.695369D-03
                  0.109818D+04           0.537138D-02
                  0.250014D+03           0.274734D-01
                  0.707586D+02           0.105078D+00
                  0.228595D+02           0.291262D+00
                  0.803936D+01           0.500000D+00
                  0.289309D+01           0.362224D+00
            S   2   1.00
                  0.521640D+01          -0.957844D-01
                  0.556124D+00           0.500000D+00
            S   1   1.00
                  0.228813D+00           1.0000000
            S   1   1.00
                  0.936338D-01           1.0000000
            P   4   1.00
                  0.339855D+02           0.818395D-02
                  0.772957D+01           0.586921D-01
                  0.224954D+01           0.222514D+00
                  0.767681D+00           0.500000D+00
            P   1   1.00
                  0.263283D+00           1.0000000
            P   1   1.00
                  0.848744D-01           1.0000000
            D   1   1.00
                  0.140000D+01           1.0000000
            D   1   1.00
                  0.450000D+00           1.0000000
            F   1   1.00
                  0.950000D+00           1.0000000
            ****
            -O     0
            S   7   1.00
                  0.135887D+05           0.665492D-03
                  0.203847D+04           0.514222D-02
                  0.464041D+03           0.263472D-01
                  0.131339D+03           0.101500D+00
                  0.425340D+02           0.285877D+00
                  0.150429D+02           0.500000D+00
                  0.546616D+01           0.368211D+00
            S   2   1.00
                  0.100915D+02          -0.100084D+00
                  0.110429D+01           0.500000D+00
            S   1   1.00
                  0.448082D+00           1.0000000
            S   1   1.00
                  0.175325D+00           1.0000000
            P   4   1.00
                  0.608220D+02           0.908253D-02
                  0.140332D+02           0.645878D-01
                  0.418244D+01           0.241502D+00
                  0.142490D+01           0.500000D+00
            P   1   1.00
                  0.478741D+00           1.0000000
            P   1   1.00
                  0.146257D+00           1.0000000
            D   1   1.00
                  0.220000D+01           1.0000000
            D   1   1.00
                  0.650000D+00           1.0000000
            F   1   1.00
                  0.110000D+01           1.0000000
            ****
            -N     0
            S   7   1.00
                  0.101643D+05           0.682757D-03
                  0.152481D+04           0.527488D-02
                  0.347119D+03           0.270037D-01
                  0.982389D+02           0.103673D+00
                  0.317799D+02           0.289575D+00
                  0.112240D+02           0.500000D+00
                  0.406611D+01           0.364621D+00
            S   2   1.00
                  0.747898D+01          -0.975681D-01
                  0.805040D+00           0.500000D+00
            S   1   1.00
                  0.324626D+00           1.0000000
            S   1   1.00
                  0.128132D+00           1.0000000
            P   4   1.00
                  0.482704D+02           0.829547D-02
                  0.110815D+02           0.596223D-01
                  0.326643D+01           0.227889D+00
                  0.111680D+01           0.500000D+00
            P   1   1.00
                  0.382049D+00           1.0000000
            P   1   1.00
                  0.121222D+00           1.0000000
            D   1   1.00
                  0.180000D+01           1.0000000
            D   1   1.00
                  0.550000D+00           1.0000000
            F   1   1.00
                  0.102000D+01           1.0000000
            ****
            -F     0
            S   7   1.00
                  0.174507D+05           0.655972D-03
                  0.261768D+04           0.506944D-02
                  0.595857D+03           0.259899D-01
                  0.168651D+03           0.100353D+00
                  0.546654D+02           0.284095D+00
                  0.193717D+02           0.500000D+00
                  0.706202D+01           0.370721D+00
            S   2   1.00
                  0.131197D+02          -0.101997D+00
                  0.145046D+01           0.500000D+00
            S   1   1.00
                  0.588255D+00           1.0000000
            S   1   1.00
                  0.227960D+00           1.0000000
            P   4   1.00
                  0.779407D+02           0.931135D-02
                  0.180425D+02           0.663964D-01
                  0.542342D+01           0.246386D+00
                  0.184876D+01           0.500000D+00
            P   1   1.00
                  0.617455D+00           1.0000000
            P   1   1.00
                  0.185496D+00           1.0000000
            D   1   1.00
                  0.280000D+01           1.0000000
            D   1   1.00
                  0.800000D+00           1.0000000
            F   1   1.00
                  0.120000D+01           1.0000000
            ****
            -Cl     0
            S   8   1.00
                  0.154272D+06           0.222473D-03
                  0.231232D+05           0.172590D-02
                  0.526257D+04           0.899286D-02
                  0.148995D+04           0.367724D-01
                  0.485417D+03           0.121446D+00
                  0.174634D+03           0.304148D+00
                  0.672393D+02           0.500000D+00
                  0.265780D+02           0.360252D+00
            S   3   1.00
                  0.131826D+03          -0.531330D-01
                  0.400703D+02          -0.233346D+00
                  0.789448D+01           0.500000D+00
            S   2   1.00
                  0.427711D+01           0.500000D+00
                  0.196233D+01           0.370517D+00
            S   1   1.00
                  0.520793D+00           1.0000000
            S   1   1.00
                  0.181633D+00           1.0000000
            P   7   1.00
                  0.124440D+04           0.988206D-03
                  0.295109D+03           0.829674D-02
                  0.947224D+02           0.430906D-01
                  0.352588D+02           0.148443D+00
                  0.144211D+02           0.344744D+00
                  0.610371D+01           0.500000D+00
                  0.258886D+01           0.348278D+00
            P   2   1.00
                  0.109447D+02          -0.196768D-01
                  0.104413D+01           0.500000D+00
            P   1   1.00
                  0.376184D+00           1.0000000
            P   1   1.00
                  0.120613D+00           1.0000000
            D   1   1.00
                  0.231000D+01           1.0000000
            D   1   1.00
                  0.520000D+00           1.0000000
            F   1   1.00
                  0.720000D+00           1.0000000
            ****
            -S     0
            S   8   1.00
                  0.134700D+06           0.226231D-03
                  0.201904D+05           0.175488D-02
                  0.459528D+04           0.914190D-02
                  0.130109D+04           0.373551D-01
                  0.423902D+03           0.123121D+00
                  0.152485D+03           0.306801D+00
                  0.586925D+02           0.500000D+00
                  0.231461D+02           0.354358D+00
            S   3   1.00
                  0.116327D+03          -0.491772D-01
                  0.352841D+02          -0.215962D+00
                  0.677831D+01           0.500000D+00
            S   2   1.00
                  0.360404D+01           0.500000D+00
                  0.164871D+01           0.366278D+00
            S   1   1.00
                  0.421821D+00           1.0000000
            S   1   1.00
                  0.147554D+00           1.0000000
            P   7   1.00
                  0.104863D+04           0.105273D-02
                  0.248717D+03           0.879338D-02
                  0.797887D+02           0.453358D-01
                  0.296023D+02           0.154476D+00
                  0.120627D+02           0.352366D+00
                  0.507628D+01           0.500000D+00
                  0.213375D+01           0.346429D+00
            P   2   1.00
                  0.928958D+01          -0.185932D-01
                  0.837819D+00           0.500000D+00
            P   1   1.00
                  0.301495D+00           1.0000000
            P   1   1.00
                  0.974740D-01           1.0000000
            D   1   1.00
                  0.210000D+01           1.0000000
            D   1   1.00
                  0.480000D+00           1.0000000
            F   1   1.00
                  0.660000D+00           1.0000000
            ****
            -Br     0
            S    10   1.00
                  0.233625D+07           0.532336D-04
                  0.349961D+06           0.413715D-03
                  0.796444D+05           0.217123D-02
                  0.225555D+05           0.910109D-02
                  0.735546D+04           0.323789D-01
                  0.265352D+04           0.988755D-01
                  0.103517D+04           0.248138D+00
                  0.422205D+03           0.474328D+00
                  0.180035D+03           0.500000D+00
                  0.793308D+02           0.187769D+00
            S    4   1.00
                  0.620834D+03          -0.226511D-01
                  0.190829D+03          -0.109497D+00
                  0.312505D+02           0.500000D+00
                  0.135270D+02           0.492812D+00
            S    2   1.00
                  0.216097D+02          -0.165418D+00
                  0.372566D+01           0.500000D+00
            S    1   1.00
                  0.169770D+01           1.0000000
            S    1   1.00
                  0.489332D+00           1.0000000
            S    1   1.00
                  0.175712D+00           1.0000000
            P    8   1.00
                  0.960829D+04           0.478974D-03
                  0.227618D+04           0.417853D-02
                  0.736723D+03           0.229315D-01
                  0.281579D+03           0.892653D-01
                  0.118395D+03           0.255288D+00
                  0.527481D+02           0.479074D+00
                  0.245098D+02           0.500000D+00
                  0.112009D+02           0.200944D+00
            P    4   1.00
                  0.587849D+02          -0.189674D-01
                  0.918962D+01           0.264104D+00
                  0.413895D+01           0.500000D+00
                  0.184225D+01           0.319316D+00
            P    1   1.00
                  0.713862D+00           1.0000000
            P    1   1.00
                  0.274232D+00           1.0000000
            P    1   1.00
                  0.944411D-01           1.0000000
            D    7   1.00
                  0.398470D+03           0.204066D-02
                  0.118967D+03           0.175171D-01
                  0.450197D+02           0.829708D-01
                  0.190320D+02           0.236284D+00
                  0.855686D+01           0.428468D+00
                  0.382950D+01           0.500000D+00
                  0.166291D+01           0.349360D+00
            D    1   1.00
                  0.672953D+00           1.0000000
            D    1   1.00
                  0.252000D+00           1.0000000
            F    1   1.00
                  0.530000D+00           1.0000000
            ****
            -Si     0
            S    8   1.00
                  0.996133D+05           0.235546D-03
                  0.149311D+05           0.182707D-02
                  0.339820D+04           0.951425D-02
                  0.962140D+03           0.388172D-01
                  0.313430D+03           0.127328D+00
                  0.112683D+03           0.313522D+00
                  0.433372D+02           0.500000D+00
                  0.170029D+02           0.340347D+00
            S    3   1.00
                  0.884208D+02          -0.404451D-01
                  0.266756D+02          -0.178059D+00
                  0.479640D+01           0.500000D+00
            S    2   1.00
                  0.239385D+01           0.500000D+00
                  0.108333D+01           0.338016D+00
            S    1   1.00
                  0.252420D+00           1.0000000
            S    1   1.00
                  0.891210D-01           1.0000000
            P    7   1.00
                  0.709901D+03           0.123028D-02
                  0.168426D+03           0.101366D-01
                  0.539946D+02           0.511840D-01
                  0.198646D+02           0.169967D+00
                  0.801369D+01           0.370717D+00
                  0.331870D+01           0.500000D+00
                  0.136112D+01           0.344128D+00
            P    2   1.00
                  0.622158D+01          -0.166609D-01
                  0.503049D+00           0.500000D+00
            P    1   1.00
                  0.179848D+00           1.0000000
            P    1   1.00
                  0.591912D-01           1.0000000
            D    1   1.00
                  0.168000D+01           1.0000000
            D    1   1.00
                  0.380000D+00           1.0000000
            F    1   1.00
                  0.540000D+00           1.0000000
            ****
            -P     0
            S    8   1.00
                  0.116416D+06           0.230715D-03
                  0.174500D+05           0.178960D-02
                  0.397149D+04           0.932116D-02
                  0.112447D+04           0.380591D-01
                  0.366347D+03           0.125148D+00
                  0.131757D+03           0.310022D+00
                  0.506988D+02           0.500000D+00
                  0.199436D+02           0.347528D+00
            S    3   1.00
                  0.101878D+03          -0.446755D-01
                  0.308249D+02          -0.196376D+00
                  0.573688D+01           0.500000D+00
            S    2   1.00
                  0.296868D+01           0.500000D+00
                  0.135315D+01           0.355098D+00
            S    1   1.00
                  0.332196D+00           1.0000000
            S    1   1.00
                  0.116229D+00           1.0000000
            P    7   1.00
                  0.873928D+03           0.112375D-02
                  0.207298D+03           0.933330D-02
                  0.664628D+02           0.477213D-01
                  0.245665D+02           0.160733D+00
                  0.996820D+01           0.359760D+00
                  0.416536D+01           0.500000D+00
                  0.173022D+01           0.346593D+00
            P    2   1.00
                  0.772530D+01          -0.175718D-01
                  0.657252D+00           0.500000D+00
            P    1   1.00
                  0.239903D+00           1.0000000
            P    1   1.00
                  0.800988D-01           1.0000000
            D    1   1.00
                  0.189000D+01           1.0000000
            D    1   1.00
                  0.430000D+00           1.0000000
            F    1   1.00
                  0.600000D+00           1.0000000
            ****
            
 Initial command:
 /usr/local/apps/g16_b01_avx/g16/l1.exe "/wrk/irikura/Gau-453702.inp" -scrdir="/wrk/irikura/"
 Entering Link 1 = /usr/local/apps/g16_b01_avx/g16/l1.exe PID=    453704.
  
 Copyright (c) 1988-2017, Gaussian, Inc.  All Rights Reserved.
  
 This is part of the Gaussian(R) 16 program.  It is based on
 the Gaussian(R) 09 system (copyright 2009, Gaussian, Inc.),
 the Gaussian(R) 03 system (copyright 2003, Gaussian, Inc.),
 the Gaussian(R) 98 system (copyright 1998, Gaussian, Inc.),
 the Gaussian(R) 94 system (copyright 1995, Gaussian, Inc.),
 the Gaussian 92(TM) system (copyright 1992, Gaussian, Inc.),
 the Gaussian 90(TM) system (copyright 1990, Gaussian, Inc.),
 the Gaussian 88(TM) system (copyright 1988, Gaussian, Inc.),
 the Gaussian 86(TM) system (copyright 1986, Carnegie Mellon
 University), and the Gaussian 82(TM) system (copyright 1983,
 Carnegie Mellon University). Gaussian is a federally registered
 trademark of Gaussian, Inc.
  
 This software contains proprietary and confidential information,
 including trade secrets, belonging to Gaussian, Inc.
  
 This software is provided under written license and may be
 used, copied, transmitted, or stored only in accord with that
 written license.
  
 The following legend is applicable only to US Government
 contracts under FAR:
  
                    RESTRICTED RIGHTS LEGEND
  
 Use, reproduction and disclosure by the US Government is
 subject to restrictions as set forth in subparagraphs (a)
 and (c) of the Commercial Computer Software - Restricted
 Rights clause in FAR 52.227-19.
  
 Gaussian, Inc.
 340 Quinnipiac St., Bldg. 40, Wallingford CT 06492
  
  
 ---------------------------------------------------------------
 Warning -- This program may not be used in any manner that
 competes with the business of Gaussian, Inc. or will provide
 assistance to any competitor of Gaussian, Inc.  The licensee
 of this program is prohibited from giving any competitor of
 Gaussian, Inc. access to this program.  By using this program,
 the user acknowledges that Gaussian, Inc. is engaged in the
 business of creating and licensing software in the field of
 computational chemistry and represents and warrants to the
 licensee that it is not a competitor of Gaussian, Inc. and that
 it will not use this program in any manner prohibited above.
 ---------------------------------------------------------------
  

 Cite this work as:
 Gaussian 16, Revision B.01,
 M. J. Frisch, G. W. Trucks, H. B. Schlegel, G. E. Scuseria, 
 M. A. Robb, J. R. Cheeseman, G. Scalmani, V. Barone, 
 G. A. Petersson, H. Nakatsuji, X. Li, M. Caricato, A. V. Marenich, 
 J. Bloino, B. G. Janesko, R. Gomperts, B. Mennucci, H. P. Hratchian, 
 J. V. Ortiz, A. F. Izmaylov, J. L. Sonnenberg, D. Williams-Young, 
 F. Ding, F. Lipparini, F. Egidi, J. Goings, B. Peng, A. Petrone, 
 T. Henderson, D. Ranasinghe, V. G. Zakrzewski, J. Gao, N. Rega, 
 G. Zheng, W. Liang, M. Hada, M. Ehara, K. Toyota, R. Fukuda, 
 J. Hasegawa, M. Ishida, T. Nakajima, Y. Honda, O. Kitao, H. Nakai, 
 T. Vreven, K. Throssell, J. A. Montgomery, Jr., J. E. Peralta, 
 F. Ogliaro, M. J. Bearpark, J. J. Heyd, E. N. Brothers, K. N. Kudin, 
 V. N. Staroverov, T. A. Keith, R. Kobayashi, J. Normand, 
 K. Raghavachari, A. P. Rendell, J. C. Burant, S. S. Iyengar, 
 J. Tomasi, M. Cossi, J. M. Millam, M. Klene, C. Adamo, R. Cammi, 
 J. W. Ochterski, R. L. Martin, K. Morokuma, O. Farkas, 
 J. B. Foresman, and D. J. Fox, Gaussian, Inc., Wallingford CT, 2016.
 
 ******************************************
 Gaussian 16:  ES64L-G16RevB.01 20-Dec-2017
                30-Sep-2023 
 ******************************************
 %chk=f.chk
 %mem=500mw
 %nprocs=4
 Will use up to    4 processors via shared memory.
 ---------------------------------------
 # b3lyp/gen opt freq CPHF(Grid=OneStep)
 ---------------------------------------
 1/18=20,19=15,26=3,38=1/1,3;
 2/9=110,12=2,17=6,18=5,40=1/2;
 3/5=7,11=2,25=1,30=1,71=1,74=-5/1,2,3;
 4//1;
 5/5=2,38=5/2;
 6/7=2,8=2,9=2,10=2,28=1/1;
 7//1,2,3,16;
 1/18=20,19=15,26=3/3(2);
 2/9=110/2;
 99//99;
 2/9=110/2;
 3/5=7,6=1,11=2,25=1,30=1,71=1,74=-5,82=7/1,2,3;
 4/5=5,16=3,69=1/1;
 5/5=2,38=5/2;
 7//1,2,3,16;
 1/18=20,19=15,26=3/3(-5);
 2/9=110/2;
 6/7=2,8=2,9=2,10=2,19=2,28=1/1;
 99/9=1/99;
 ----------------------------
 fluorine atom, B3LYP/pcseg-2
 ----------------------------
 Symbolic Z-matrix:
 Charge =  0 Multiplicity = 2
 F                     0.        0.        0. 
 

 GradGradGradGradGradGradGradGradGradGradGradGradGradGradGradGradGradGrad
 Berny optimization.
 Initialization pass.
 No Z-matrix variables, so optimization will use Cartesian coordinates.
 Trust Radius=1.00D-01 FncErr=1.00D-07 GrdErr=1.00D-06 EigMax=2.50D+02 EigMin=1.00D-04
 Number of steps in this run=     20 maximum allowed number of steps=    100.
 GradGradGradGradGradGradGradGradGradGradGradGradGradGradGradGradGradGrad

                          Input orientation:                          
 ---------------------------------------------------------------------
 Center     Atomic      Atomic             Coordinates (Angstroms)
 Number     Number       Type             X           Y           Z
 ---------------------------------------------------------------------
      1          9           0        0.000000    0.000000    0.000000
 ---------------------------------------------------------------------
 Stoichiometry    F(2)
 Framework group  OH[O(F)]
 Deg. of freedom     0
 Full point group                 OH      NOp  48
 Largest Abelian subgroup         D2H     NOp   8
 Largest concise Abelian subgroup C1      NOp   1
                         Standard orientation:                         
 ---------------------------------------------------------------------
 Center     Atomic      Atomic             Coordinates (Angstroms)
 Number     Number       Type             X           Y           Z
 ---------------------------------------------------------------------
      1          9           0        0.000000    0.000000    0.000000
 ---------------------------------------------------------------------
 General basis read from cards:  (5D, 7F)
 There are    10 symmetry adapted cartesian basis functions of AG  symmetry.
 There are     2 symmetry adapted cartesian basis functions of B1G symmetry.
 There are     2 symmetry adapted cartesian basis functions of B2G symmetry.
 There are     2 symmetry adapted cartesian basis functions of B3G symmetry.
 There are     1 symmetry adapted cartesian basis functions of AU  symmetry.
 There are     6 symmetry adapted cartesian basis functions of B1U symmetry.
 There are     6 symmetry adapted cartesian basis functions of B2U symmetry.
 There are     6 symmetry adapted cartesian basis functions of B3U symmetry.
 There are     8 symmetry adapted basis functions of AG  symmetry.
 There are     2 symmetry adapted basis functions of B1G symmetry.
 There are     2 symmetry adapted basis functions of B2G symmetry.
 There are     2 symmetry adapted basis functions of B3G symmetry.
 There are     1 symmetry adapted basis functions of AU  symmetry.
 There are     5 symmetry adapted basis functions of B1U symmetry.
 There are     5 symmetry adapted basis functions of B2U symmetry.
 There are     5 symmetry adapted basis functions of B3U symmetry.
    30 basis functions,    51 primitive gaussians,    35 cartesian basis functions
     5 alpha electrons        4 beta electrons
       nuclear repulsion energy         0.0000000000 Hartrees.
 NAtoms=    1 NActive=    1 NUniq=    1 SFac= 1.00D+00 NAtFMM=   60 NAOKFM=F Big=F
 Integral buffers will be    131072 words long.
 Raffenetti 2 integral format.
 Two-electron integral symmetry is turned on.
 One-electron integrals computed using PRISM.
 NBasis=    30 RedAO= T EigKep=  3.56D-02  NBF=     8     2     2     2     1     5     5     5
 NBsUse=    30 1.00D-06 EigRej= -1.00D+00 NBFU=     8     2     2     2     1     5     5     5
 ExpMin= 1.85D-01 ExpMax= 1.75D+04 ExpMxC= 5.96D+02 IAcc=3 IRadAn=         5 AccDes= 0.00D+00
 Harris functional with IExCor=  402 and IRadAn=       5 diagonalized for initial guess.
 HarFok:  IExCor=  402 AccDes= 0.00D+00 IRadAn=         5 IDoV= 1 UseB2=F ITyADJ=14
 ICtDFT=  3500011 ScaDFX=  1.000000  1.000000  1.000000  1.000000
 FoFCou: FMM=F IPFlag=           0 FMFlag=      100000 FMFlg1=           0
         NFxFlg=           0 DoJE=T BraDBF=F KetDBF=T FulRan=T
         wScrn=  0.000000 ICntrl=       500 IOpCl=  0 I1Cent=   200000004 NGrid=           0
         NMat0=    1 NMatS0=      1 NMatT0=    0 NMatD0=    1 NMtDS0=    0 NMtDT0=    0
 Petite list used in FoFCou.
 Initial guess orbital symmetries:
 Alpha Orbitals:
       Occupied  (A1G) (A1G) (T1U) (T1U) (T1U)
       Virtual   (T1U) (T1U) (T1U) (A1G) (T2G) (T2G) (T2G) (EG)
                 (EG) (T1U) (T1U) (T1U) (A1G) (T2U) (T2U) (T2U)
                 (A2U) (T1U) (T1U) (T1U) (T2G) (T2G) (T2G) (EG)
                 (EG)
 Beta  Orbitals:
       Occupied  (A1G) (A1G) (T1U) (T1U)
       Virtual   (T1U) (T1U) (T1U) (T1U) (A1G) (T2G) (T2G) (T2G)
                 (EG) (EG) (T1U) (T1U) (T1U) (A1G) (T2U) (T2U)
                 (T2U) (A2U) (T1U) (T1U) (T1U) (T2G) (T2G) (T2G)
                 (EG) (EG)
 Initial guess <Sx>= 0.0000 <Sy>= 0.0000 <Sz>= 0.5000 <S**2>= 0.7500 S= 0.5000
 Keep R1 and R2 ints in memory in symmetry-blocked form, NReq=3569103.
 Requested convergence on RMS density matrix=1.00D-08 within 128 cycles.
 Requested convergence on MAX density matrix=1.00D-06.
 Requested convergence on             energy=1.00D-06.
 No special actions if energy rises.
 Integral accuracy reduced to 1.0D-05 until final iterations.
 Density matrix breaks symmetry, PCut= 1.00D-04
 Density has only Abelian symmetry.
 Density matrix breaks symmetry, PCut= 1.00D-04
 Density has only Abelian symmetry.
 Density matrix breaks symmetry, PCut= 1.00D-04
 Density has only Abelian symmetry.
 Density matrix breaks symmetry, PCut= 1.00D-04
 Density has only Abelian symmetry.
 Density matrix breaks symmetry, PCut= 1.00D-04
 Density has only Abelian symmetry.
 Initial convergence to 1.0D-05 achieved.  Increase integral accuracy.
 Density matrix breaks symmetry, PCut= 1.00D-04
 Density has only Abelian symmetry.
 Density matrix breaks symmetry, PCut= 1.00D-04
 Density has only Abelian symmetry.
 Density matrix breaks symmetry, PCut= 1.00D-04
 Density has only Abelian symmetry.
 Density matrix breaks symmetry, PCut= 1.00D-04
 Density has only Abelian symmetry.
 Density matrix breaks symmetry, PCut= 1.00D-04
 Density has only Abelian symmetry.
 SCF Done:  E(UB3LYP) =  -99.7689209571     A.U. after    9 cycles
            NFock=  9  Conv=0.59D-08     -V/T= 2.0022
 <Sx>= 0.0000 <Sy>= 0.0000 <Sz>= 0.5000 <S**2>= 0.7516 S= 0.5008
 <L.S>=  0.00000000000    
 Annihilation of the first spin contaminant:
 S**2 before annihilation     0.7516,   after     0.7500
 SCF density gives NOpUse=  8 NOpAll= 48.

 **********************************************************************

            Population analysis using the SCF Density.

 **********************************************************************

 Orbital symmetries:
 Alpha Orbitals:
       Occupied  (A1G) (?A) (?B) (?B) (?B)
       Virtual   (?B) (A1G) (?B) (?B) (?A) (T2G) (T2G) (T2G) (?A)
                 (?B) (?B) (?B) (?A) (?B) (?B) (?B) (?B) (A2U)
                 (?B) (?B) (?A) (T2G) (T2G) (T2G) (?A)
 Beta  Orbitals:
       Occupied  (A1G) (T2G) (?A) (?A)
       Virtual   (?A) (?A) (?A) (A1G) (?A) (T2G) (T2G) (T2G) (T2G)
                 (T2G) (?A) (?A) (?A) (A1G) (A2U) (?B) (?B) (?B)
                 (?B) (?B) (?B) (T2G) (EG) (T2G) (T2G) (EG)
 Unable to determine electronic state:  an orbital has unidentified symmetry.
 Alpha  occ. eigenvalues --  -24.78747  -1.23726  -0.56994  -0.48207  -0.48207
 Alpha virt. eigenvalues --    0.38625   0.41015   0.41126   0.41126   1.74103
 Alpha virt. eigenvalues --    1.75576   1.75576   1.80203   1.80203   2.67978
 Alpha virt. eigenvalues --    2.74692   2.74692   3.88041   4.28284   4.29074
 Alpha virt. eigenvalues --    4.29074   4.31358   4.31358   4.35281   4.35281
 Alpha virt. eigenvalues --    7.33639   7.35948   7.35948   7.43077   7.43077
  Beta  occ. eigenvalues --  -24.75496  -1.14598  -0.45096  -0.45096
  Beta virt. eigenvalues --   -0.27720   0.41787   0.41787   0.42921   0.43737
  Beta virt. eigenvalues --    1.80844   1.80844   1.81386   1.81386   1.82384
  Beta virt. eigenvalues --    2.76928   2.76928   2.80907   3.93258   4.35116
  Beta virt. eigenvalues --    4.35116   4.35390   4.35390   4.35518   4.35518
  Beta virt. eigenvalues --    4.35872   7.44817   7.44817   7.46641   7.46641
  Beta virt. eigenvalues --    7.49393
          Condensed to atoms (all electrons):
               1
     1  F    9.000000
          Atomic-Atomic Spin Densities.
               1
     1  F    1.000000
 Mulliken charges and spin densities:
               1          2
     1  F   -0.000000   1.000000
 Sum of Mulliken charges =  -0.00000   1.00000
 Mulliken charges and spin densities with hydrogens summed into heavy atoms:
               1          2
     1  F   -0.000000   1.000000
 Electronic spatial extent (au):  <R**2>=             10.5886
 Charge=             -0.0000 electrons
 Dipole moment (field-independent basis, Debye):
    X=              0.0000    Y=              0.0000    Z=              0.0000  Tot=              0.0000
 Quadrupole moment (field-independent basis, Debye-Ang):
   XX=             -5.0534   YY=             -4.1351   ZZ=             -5.0534
   XY=             -0.0000   XZ=              0.0000   YZ=              0.0000
 Traceless Quadrupole moment (field-independent basis, Debye-Ang):
   XX=             -0.3061   YY=              0.6122   ZZ=             -0.3061
   XY=             -0.0000   XZ=              0.0000   YZ=              0.0000
 Octapole moment (field-independent basis, Debye-Ang**2):
  XXX=              0.0000  YYY=              0.0000  ZZZ=              0.0000  XYY=              0.0000
  XXY=              0.0000  XXZ=              0.0000  XZZ=              0.0000  YZZ=              0.0000
  YYZ=              0.0000  XYZ=              0.0000
 Hexadecapole moment (field-independent basis, Debye-Ang**3):
 XXXX=             -3.4148 YYYY=             -2.3329 ZZZZ=             -3.4148 XXXY=             -0.0000
 XXXZ=             -0.0000 YYYX=             -0.0000 YYYZ=              0.0000 ZZZX=              0.0000
 ZZZY=              0.0000 XXYY=             -0.9579 XXZZ=             -1.1383 YYZZ=             -0.9579
 XXYZ=              0.0000 YYXZ=             -0.0000 ZZXY=             -0.0000
 N-N= 0.000000000000D+00 E-N=-2.387187935238D+02  KE= 9.955129659918D+01
 Symmetry AG   KE= 8.261742656189D+01
 Symmetry B1G  KE= 9.976823940597D-36
 Symmetry B2G  KE=-8.380000547155D-53
 Symmetry B3G  KE= 9.976823940597D-36
 Symmetry AU   KE= 2.665407528688D-36
 Symmetry B1U  KE= 6.701886699172D+00
 Symmetry B2U  KE= 3.530096638941D+00
 Symmetry B3U  KE= 6.701886699172D+00
 Symmetry AG   SP=-2.338759611323D-15
 Symmetry B1G  SP= 1.468200176103D-36
 Symmetry B2G  SP= 3.838841051068D-53
 Symmetry B3G  SP= 1.468200176103D-36
 Symmetry AU   SP= 4.911484543897D-37
 Symmetry B1U  SP= 3.386519038286D-15
 Symmetry B2U  SP= 1.000000000000D+00
 Symmetry B3U  SP= 4.567052573796D-15
                          Isotropic Fermi Contact Couplings
        Atom                 a.u.       MegaHertz       Gauss      10(-4) cm-1
     1  F(19)              0.22890     963.07486     343.64906     321.24719
 --------------------------------------------------------
       Center         ----  Spin Dipole Couplings  ----
                      3XX-RR        3YY-RR        3ZZ-RR
 --------------------------------------------------------
     1   Atom       -3.223253      6.446505     -3.223253
 --------------------------------------------------------
                        XY            XZ            YZ
 --------------------------------------------------------
     1   Atom        0.000000      0.000000      0.000000
 --------------------------------------------------------


 ---------------------------------------------------------------------------------
              Anisotropic Spin Dipole Couplings in Principal Axis System
 ---------------------------------------------------------------------------------

       Atom             a.u.   MegaHertz   Gauss  10(-4) cm-1        Axes

              Baa    -3.2233 -1618.800  -577.628  -539.974  0.0000  0.0000  1.0000
     1 F(19)  Bbb    -3.2233 -1618.800  -577.628  -539.974  1.0000  0.0000  0.0000
              Bcc     6.4465  3237.600  1155.256  1079.947 -0.0000  1.0000  0.0000
 

 ---------------------------------------------------------------------------------

 Density matrix has only Abelian symmetry.
 Density matrix has only Abelian symmetry.
 Calling FoFJK, ICntrl=      2127 FMM=F ISym2X=1 I1Cent= 0 IOpClX= 1 NMat=1 NMatS=1 NMatT=0.
 ***** Axes restored to original set *****
 -------------------------------------------------------------------
 Center     Atomic                   Forces (Hartrees/Bohr)
 Number     Number              X              Y              Z
 -------------------------------------------------------------------
      1        9          -0.000000000   -0.000000000   -0.000000000
 -------------------------------------------------------------------
 Cartesian Forces:  Max     0.000000000 RMS     0.000000000

 GradGradGradGradGradGradGradGradGradGradGradGradGradGradGradGradGradGrad
 Berny optimization.
 Search for a local minimum.
 Step number   1 out of a maximum of   20
 All quantities printed in internal units (Hartrees-Bohrs-Radians)
 Mixed Optimization -- En-DIIS/RFO-DIIS
 Second derivative matrix not updated -- first step.
 The second derivative matrix:
                          X1        Y1        Z1
           X1           0.00000
           Y1           0.00000   0.00000
           Z1           0.00000   0.00000   0.00000
 ITU=  0
     Eigenvalues --- 
 RFO step:  Lambda=-5.96046448D-09 EMin= 0.00000000D+00
 Linear search not attempted -- first point.
 B after Tr=     0.000000    0.000000    0.000000
         Rot=    1.000000    0.000000    0.000000    0.000000 Ang=   0.00 deg.
 Variable       Old X    -DE/DX   Delta X   Delta X   Delta X     New X
                                 (Linear)    (Quad)   (Total)
    X1        0.00000  -0.00000   0.00000   0.00000   0.00000   0.00000
    Y1        0.00000  -0.00000   0.00000   0.00000   0.00000   0.00000
    Z1        0.00000  -0.00000   0.00000   0.00000   0.00000   0.00000
         Item               Value     Threshold  Converged?
 Maximum Force            0.000000     0.000450     YES
 RMS     Force            0.000000     0.000300     YES
 Maximum Displacement     0.000000     0.001800     YES
 RMS     Displacement     0.000000     0.001200     YES
 Predicted change in Energy=-0.000000D+00
 Optimization completed.
    -- Stationary point found.
 GradGradGradGradGradGradGradGradGradGradGradGradGradGradGradGradGradGrad

                          Input orientation:                          
 ---------------------------------------------------------------------
 Center     Atomic      Atomic             Coordinates (Angstroms)
 Number     Number       Type             X           Y           Z
 ---------------------------------------------------------------------
      1          9           0        0.000000    0.000000    0.000000
 ---------------------------------------------------------------------
 Stoichiometry    F(2)
 Framework group  OH[O(F)]
 Deg. of freedom     0
 Full point group                 OH      NOp  48
 Largest Abelian subgroup         D2H     NOp   8
 Largest concise Abelian subgroup C1      NOp   1
                         Standard orientation:                         
 ---------------------------------------------------------------------
 Center     Atomic      Atomic             Coordinates (Angstroms)
 Number     Number       Type             X           Y           Z
 ---------------------------------------------------------------------
      1          9           0        0.000000    0.000000    0.000000
 ---------------------------------------------------------------------
 1\1\GINC-GAMBA\FOpt\UB3LYP\Gen\F1(2)\IRIKURA\30-Sep-2023\0\\# b3lyp/ge
 n opt freq CPHF(Grid=OneStep)\\fluorine atom, B3LYP/pcseg-2\\0,2\F,0.,
 0.,0.\\Version=ES64L-G16RevB.01\HF=-99.768921\S2=0.751601\S2-1=0.\S2A=
 0.750002\RMSD=5.921e-09\RMSF=0.000e+00\Dipole=0.,0.,0.\Quadrupole=-0.2
 275721,0.4551441,-0.2275721,0.,0.,0.\PG=OH [O(F1)]\\@


 I LOVE THOSE WHO LONG FOR THE IMPOSSIBLE.

                                 -- GOETHE
 Job cpu time:       0 days  0 hours  0 minutes  8.6 seconds.
 Elapsed time:       0 days  0 hours  0 minutes  2.2 seconds.
 File lengths (MBytes):  RWF=      6 Int=      0 D2E=      0 Chk=      1 Scr=      1
 Normal termination of Gaussian 16 at Sat Sep 30 10:40:19 2023.
 Link1:  Proceeding to internal job step number  2.
 ------------------------------------------------------------------
 #N Geom=AllCheck Guess=TCheck SCRF=Check GenChk UB3LYP/ChkBas Freq
 ------------------------------------------------------------------
 1/10=4,29=7,30=1,38=1,40=1/1,3;
 2/12=2,40=1/2;
 3/5=7,6=2,11=2,14=-4,25=1,30=1,67=1,70=2,71=2,74=-5,82=7,116=2,140=1/1,2,3;
 4/5=101/1;
 5/5=2,38=6,98=1/2;
 8/6=4,10=90,11=11/1;
 11/6=1,8=1,9=11,15=111,16=1/1,2,10;
 10/6=1,60=-420/2;
 6/7=2,8=2,9=2,10=2,28=1/1;
 7/8=1,10=1,25=1/1,2,3,16;
 1/10=4,30=1/3;
 99//99;
 Structure from the checkpoint file:  "f.chk"
 ----------------------------
 fluorine atom, B3LYP/pcseg-2
 ----------------------------
 Charge =  0 Multiplicity = 2
 No Z-Matrix found in chk file; cartesian coordinates used.
  F                                                 0.000000000000      0.000000000000      0.000000000000
 Recover connectivity data from disk.

 GradGradGradGradGradGradGradGradGradGradGradGradGradGradGradGradGradGrad
 Berny optimization.
 Initialization pass.
 Trust Radius=3.00D-01 FncErr=1.00D-07 GrdErr=1.00D-07 EigMax=2.50D+02 EigMin=1.00D-04
 Number of steps in this run=      2 maximum allowed number of steps=      2.
 GradGradGradGradGradGradGradGradGradGradGradGradGradGradGradGradGradGrad

                          Input orientation:                          
 ---------------------------------------------------------------------
 Center     Atomic      Atomic             Coordinates (Angstroms)
 Number     Number       Type             X           Y           Z
 ---------------------------------------------------------------------
      1          9           0        0.000000    0.000000    0.000000
 ---------------------------------------------------------------------
 Stoichiometry    F(2)
 Framework group  OH[O(F)]
 Deg. of freedom     0
 Full point group                 OH      NOp  48
 Largest Abelian subgroup         D2H     NOp   8
 Largest concise Abelian subgroup C1      NOp   1
                         Standard orientation:                         
 ---------------------------------------------------------------------
 Center     Atomic      Atomic             Coordinates (Angstroms)
 Number     Number       Type             X           Y           Z
 ---------------------------------------------------------------------
      1          9           0        0.000000    0.000000    0.000000
 ---------------------------------------------------------------------
 Basis read from chk: "f.chk" (5D, 7F)
 There are    10 symmetry adapted cartesian basis functions of AG  symmetry.
 There are     2 symmetry adapted cartesian basis functions of B1G symmetry.
 There are     2 symmetry adapted cartesian basis functions of B2G symmetry.
 There are     2 symmetry adapted cartesian basis functions of B3G symmetry.
 There are     1 symmetry adapted cartesian basis functions of AU  symmetry.
 There are     6 symmetry adapted cartesian basis functions of B1U symmetry.
 There are     6 symmetry adapted cartesian basis functions of B2U symmetry.
 There are     6 symmetry adapted cartesian basis functions of B3U symmetry.
 There are     8 symmetry adapted basis functions of AG  symmetry.
 There are     2 symmetry adapted basis functions of B1G symmetry.
 There are     2 symmetry adapted basis functions of B2G symmetry.
 There are     2 symmetry adapted basis functions of B3G symmetry.
 There are     1 symmetry adapted basis functions of AU  symmetry.
 There are     5 symmetry adapted basis functions of B1U symmetry.
 There are     5 symmetry adapted basis functions of B2U symmetry.
 There are     5 symmetry adapted basis functions of B3U symmetry.
    30 basis functions,    51 primitive gaussians,    35 cartesian basis functions
     5 alpha electrons        4 beta electrons
       nuclear repulsion energy         0.0000000000 Hartrees.
 NAtoms=    1 NActive=    1 NUniq=    1 SFac= 1.00D+00 NAtFMM=   60 NAOKFM=F Big=F
 Integral buffers will be    131072 words long.
 Raffenetti 2 integral format.
 Two-electron integral symmetry is turned on.
 One-electron integrals computed using PRISM.
 NBasis=    30 RedAO= T EigKep=  3.56D-02  NBF=     8     2     2     2     1     5     5     5
 NBsUse=    30 1.00D-06 EigRej= -1.00D+00 NBFU=     8     2     2     2     1     5     5     5
 Initial guess from the checkpoint file:  "f.chk"
 B after Tr=     0.000000    0.000000    0.000000
         Rot=    1.000000    0.000000    0.000000    0.000000 Ang=   0.00 deg.
 Initial guess orbital symmetries:
 Alpha Orbitals:
       Occupied  (A1G) (?A) (?B) (?B) (?B)
       Virtual   (?B) (A1G) (?B) (?B) (?A) (T2G) (T2G) (T2G) (?A)
                 (?B) (?B) (?B) (?A) (?B) (?B) (?B) (?B) (A2U)
                 (?B) (?B) (?A) (T2G) (T2G) (T2G) (?A)
 Beta  Orbitals:
       Occupied  (A1G) (T2G) (?A) (?A)
       Virtual   (?A) (?A) (?A) (A1G) (?A) (T2G) (T2G) (T2G) (T2G)
                 (T2G) (?A) (?A) (?A) (A1G) (A2U) (?B) (?B) (?B)
                 (?B) (?B) (?B) (T2G) (EG) (T2G) (T2G) (EG)
 Initial guess <Sx>= 0.0000 <Sy>= 0.0000 <Sz>= 0.5000 <S**2>= 0.7516 S= 0.5008
 Keep R1 and R2 ints in memory in symmetry-blocked form, NReq=3569103.
 Requested convergence on RMS density matrix=1.00D-08 within 128 cycles.
 Requested convergence on MAX density matrix=1.00D-06.
 Requested convergence on             energy=1.00D-06.
 No special actions if energy rises.
 Density matrix breaks symmetry, PCut= 1.00D-04
 Density has only Abelian symmetry.
 Density matrix breaks symmetry, PCut= 1.00D-04
 Density has only Abelian symmetry.
 SCF Done:  E(UB3LYP) =  -99.7689209571     A.U. after    1 cycles
            NFock=  1  Conv=0.19D-09     -V/T= 2.0022
 <Sx>= 0.0000 <Sy>= 0.0000 <Sz>= 0.5000 <S**2>= 0.7516 S= 0.5008
 <L.S>=  0.00000000000    
 Annihilation of the first spin contaminant:
 S**2 before annihilation     0.7516,   after     0.7500
 DoSCS=F DFT=T ScalE2(SS,OS)=  1.000000  1.000000
 Range of M.O.s used for correlation:     1    30
 NBasis=    30 NAE=     5 NBE=     4 NFC=     0 NFV=     0
 NROrb=     30 NOA=     5 NOB=     4 NVA=    25 NVB=    26
 Symmetrizing basis deriv contribution to polar:
 IMax=3 JMax=2 DiffMx= 0.00D+00
 G2DrvN: will do     2 centers at a time, making    1 passes.
 Calling FoFCou, ICntrl=  3107 FMM=F I1Cent=   0 AccDes= 0.00D+00.
 End of G2Drv F.D. properties file   721 does not exist.
 End of G2Drv F.D. properties file   722 does not exist.
 End of G2Drv F.D. properties file   788 does not exist.
          IDoAtm=1
          Differentiating once with respect to electric field.
                with respect to dipole field.
          Differentiating once with respect to nuclear coordinates.
 Keep R1 and R2 ints in memory in symmetry-blocked form, NReq=3560777.
 CalDSu exits because no D1Ps are significant.
          There are     6 degrees of freedom in the 1st order CPHF.  IDoFFX=6 NUNeed=     3.
      3 vectors produced by pass  0 Test12= 3.82D-15 1.67D-08 XBig12= 9.00D-01 6.92D-01.
 AX will form     3 AO Fock derivatives at one time.
      3 vectors produced by pass  1 Test12= 3.82D-15 1.67D-08 XBig12= 5.02D-02 1.64D-01.
      3 vectors produced by pass  2 Test12= 3.82D-15 1.67D-08 XBig12= 1.08D-03 1.73D-02.
      3 vectors produced by pass  3 Test12= 3.82D-15 1.67D-08 XBig12= 2.88D-06 6.58D-04.
      3 vectors produced by pass  4 Test12= 3.82D-15 1.67D-08 XBig12= 8.33D-09 5.87D-05.
      3 vectors produced by pass  5 Test12= 3.82D-15 1.67D-08 XBig12= 7.90D-12 1.25D-06.
      1 vectors produced by pass  6 Test12= 3.82D-15 1.67D-08 XBig12= 7.92D-15 3.53D-08.
 InvSVY:  IOpt=1 It=  1 EMax= 2.22D-16
 Solved reduced A of dimension    19 with     3 vectors.
 Isotropic polarizability for W=    0.000000        2.00 Bohr**3.
 End of Minotr F.D. properties file   721 does not exist.
 End of Minotr F.D. properties file   722 does not exist.
 End of Minotr F.D. properties file   788 does not exist.
 SCF density gives NOpUse=  8 NOpAll= 48.

 **********************************************************************

            Population analysis using the SCF Density.

 **********************************************************************

 Orbital symmetries:
 Alpha Orbitals:
       Occupied  (A1G) (?A) (?B) (?B) (?B)
       Virtual   (?B) (A1G) (?B) (?B) (?A) (T2G) (T2G) (T2G) (?A)
                 (?B) (?B) (?B) (?A) (?B) (?B) (?B) (?B) (A2U)
                 (?B) (?B) (?A) (T2G) (T2G) (T2G) (?A)
 Beta  Orbitals:
       Occupied  (A1G) (T2G) (?A) (?A)
       Virtual   (?A) (?A) (?A) (A1G) (?A) (T2G) (T2G) (T2G) (T2G)
                 (T2G) (?A) (?A) (?A) (A1G) (A2U) (?B) (?B) (?B)
                 (?B) (?B) (?B) (T2G) (EG) (T2G) (T2G) (EG)
 Unable to determine electronic state:  an orbital has unidentified symmetry.
 Alpha  occ. eigenvalues --  -24.78747  -1.23726  -0.56994  -0.48207  -0.48207
 Alpha virt. eigenvalues --    0.38625   0.41015   0.41126   0.41126   1.74103
 Alpha virt. eigenvalues --    1.75576   1.75576   1.80203   1.80203   2.67978
 Alpha virt. eigenvalues --    2.74692   2.74692   3.88041   4.28284   4.29074
 Alpha virt. eigenvalues --    4.29074   4.31358   4.31358   4.35281   4.35281
 Alpha virt. eigenvalues --    7.33639   7.35948   7.35948   7.43077   7.43077
  Beta  occ. eigenvalues --  -24.75496  -1.14598  -0.45096  -0.45096
  Beta virt. eigenvalues --   -0.27720   0.41787   0.41787   0.42921   0.43737
  Beta virt. eigenvalues --    1.80844   1.80844   1.81386   1.81386   1.82384
  Beta virt. eigenvalues --    2.76928   2.76928   2.80907   3.93258   4.35116
  Beta virt. eigenvalues --    4.35116   4.35390   4.35390   4.35518   4.35518
  Beta virt. eigenvalues --    4.35872   7.44817   7.44817   7.46641   7.46641
  Beta virt. eigenvalues --    7.49393
          Condensed to atoms (all electrons):
               1
     1  F    9.000000
          Atomic-Atomic Spin Densities.
               1
     1  F    1.000000
 Mulliken charges and spin densities:
               1          2
     1  F   -0.000000   1.000000
 Sum of Mulliken charges =  -0.00000   1.00000
 Mulliken charges and spin densities with hydrogens summed into heavy atoms:
               1          2
     1  F   -0.000000   1.000000
 APT charges:
               1
     1  F   -0.000000
 Sum of APT charges =  -0.00000
 APT charges with hydrogens summed into heavy atoms:
               1
     1  F   -0.000000
 Electronic spatial extent (au):  <R**2>=             10.5886
 Charge=             -0.0000 electrons
 Dipole moment (field-independent basis, Debye):
    X=              0.0000    Y=              0.0000    Z=              0.0000  Tot=              0.0000
 Quadrupole moment (field-independent basis, Debye-Ang):
   XX=             -5.0534   YY=             -4.1351   ZZ=             -5.0534
   XY=             -0.0000   XZ=              0.0000   YZ=              0.0000
 Traceless Quadrupole moment (field-independent basis, Debye-Ang):
   XX=             -0.3061   YY=              0.6122   ZZ=             -0.3061
   XY=             -0.0000   XZ=              0.0000   YZ=              0.0000
 Octapole moment (field-independent basis, Debye-Ang**2):
  XXX=              0.0000  YYY=              0.0000  ZZZ=              0.0000  XYY=              0.0000
  XXY=              0.0000  XXZ=              0.0000  XZZ=              0.0000  YZZ=              0.0000
  YYZ=              0.0000  XYZ=              0.0000
 Hexadecapole moment (field-independent basis, Debye-Ang**3):
 XXXX=             -3.4148 YYYY=             -2.3329 ZZZZ=             -3.4148 XXXY=             -0.0000
 XXXZ=             -0.0000 YYYX=             -0.0000 YYYZ=              0.0000 ZZZX=              0.0000
 ZZZY=              0.0000 XXYY=             -0.9579 XXZZ=             -1.1383 YYZZ=             -0.9579
 XXYZ=              0.0000 YYXZ=              0.0000 ZZXY=             -0.0000
 N-N= 0.000000000000D+00 E-N=-2.387187935408D+02  KE= 9.955129660845D+01
 Symmetry AG   KE= 8.261742655761D+01
 Symmetry B1G  KE= 9.976824578223D-36
 Symmetry B2G  KE=-3.316813758659D-52
 Symmetry B3G  KE= 9.976824578223D-36
 Symmetry AU   KE= 2.665407542374D-36
 Symmetry B1U  KE= 6.701886692257D+00
 Symmetry B2U  KE= 3.530096666327D+00
 Symmetry B3U  KE= 6.701886692257D+00
 Symmetry AG   SP= 5.548675668238D-16
 Symmetry B1G  SP= 1.468200142867D-36
 Symmetry B2G  SP=-1.634656140890D-53
 Symmetry B3G  SP= 1.468200142867D-36
 Symmetry AU   SP= 4.911484536361D-37
 Symmetry B1U  SP=-8.230449741881D-16
 Symmetry B2U  SP= 1.000000000000D+00
 Symmetry B3U  SP=-3.239325040844D-16
  Exact polarizability:   1.999   0.000   2.004   0.000   0.000   1.999
 Approx polarizability:   2.114  -0.000   2.365  -0.000  -0.000   2.114
                          Isotropic Fermi Contact Couplings
        Atom                 a.u.       MegaHertz       Gauss      10(-4) cm-1
     1  F(19)              0.22890     963.07507     343.64913     321.24726
 --------------------------------------------------------
       Center         ----  Spin Dipole Couplings  ----
                      3XX-RR        3YY-RR        3ZZ-RR
 --------------------------------------------------------
     1   Atom       -3.223253      6.446505     -3.223253
 --------------------------------------------------------
                        XY            XZ            YZ
 --------------------------------------------------------
     1   Atom        0.000000      0.000000      0.000000
 --------------------------------------------------------


 ---------------------------------------------------------------------------------
              Anisotropic Spin Dipole Couplings in Principal Axis System
 ---------------------------------------------------------------------------------

       Atom             a.u.   MegaHertz   Gauss  10(-4) cm-1        Axes

              Baa    -3.2233 -1618.800  -577.628  -539.974  0.0000  0.0000  1.0000
     1 F(19)  Bbb    -3.2233 -1618.800  -577.628  -539.974  1.0000  0.0000  0.0000
              Bcc     6.4465  3237.600  1155.256  1079.947 -0.0000  1.0000  0.0000
 

 ---------------------------------------------------------------------------------

 Density matrix has only Abelian symmetry.
 Density matrix has only Abelian symmetry.
 Calling FoFJK, ICntrl=    100127 FMM=F ISym2X=1 I1Cent= 0 IOpClX= 1 NMat=1 NMatS=1 NMatT=0.
 Full mass-weighted force constant matrix:
 Low frequencies ---   -0.0000   -0.0000   -0.0000
 Diagonal vibrational polarizability:
        0.0000000       0.0000000       0.0000000
 Harmonic frequencies (cm**-1), IR intensities (KM/Mole), Raman scattering
 activities (A**4/AMU), depolarization ratios for plane and unpolarized
 incident light, reduced masses (AMU), force constants (mDyne/A),
 and normal coordinates:

 -------------------
 - Thermochemistry -
 -------------------
 Temperature   298.150 Kelvin.  Pressure   1.00000 Atm.
 Atom     1 has atomic number  9 and mass  18.99840
 Molecular mass:    18.99840 amu.
 Zero-point vibrational energy          0.0 (Joules/Mol)
                                    0.00000 (Kcal/Mol)
 Vibrational temperatures: 
          (Kelvin)
 
 Zero-point correction=                           0.000000 (Hartree/Particle)
 Thermal correction to Energy=                    0.001416
 Thermal correction to Enthalpy=                  0.002360
 Thermal correction to Gibbs Free Energy=        -0.014813
 Sum of electronic and zero-point Energies=            -99.768921
 Sum of electronic and thermal Energies=               -99.767505
 Sum of electronic and thermal Enthalpies=             -99.766560
 Sum of electronic and thermal Free Energies=          -99.783734
 
                     E (Thermal)             CV                S
                      KCal/Mol        Cal/Mol-Kelvin    Cal/Mol-Kelvin
 Total                    0.889              2.981             36.145
 Electronic               0.000              0.000              1.377
 Translational            0.889              2.981             34.767
 Rotational               0.000              0.000              0.000
 Vibrational              0.000              0.000              0.000
                       Q            Log10(Q)             Ln(Q)
 Total Bot       0.650968D+07          6.813560         15.688801
 Total V=0       0.650968D+07          6.813560         15.688801
 Vib (Bot)       0.100000D+01          0.000000          0.000000
 Vib (V=0)       0.100000D+01          0.000000          0.000000
 Electronic      0.200000D+01          0.301030          0.693147
 Translational   0.325484D+07          6.512530         14.995653
 Rotational      0.100000D+01          0.000000          0.000000
 ***** Axes restored to original set *****
 -------------------------------------------------------------------
 Center     Atomic                   Forces (Hartrees/Bohr)
 Number     Number              X              Y              Z
 -------------------------------------------------------------------
      1        9          -0.000000000   -0.000000000   -0.000000000
 -------------------------------------------------------------------
 Cartesian Forces:  Max     0.000000000 RMS     0.000000000

 GradGradGradGradGradGradGradGradGradGradGradGradGradGradGradGradGradGrad
 Berny optimization.
 Search for a local minimum.
 Step number   1 out of a maximum of    2
 All quantities printed in internal units (Hartrees-Bohrs-Radians)
 Second derivative matrix not updated -- analytic derivatives used.
 The second derivative matrix:
                          X1        Y1        Z1
           X1          -0.00000
           Y1          -0.00000  -0.00000
           Z1          -0.00000   0.00000  -0.00000
 ITU=  0
     Eigenvalues --- 
 Angle between quadratic step and forces=  90.00 degrees.
 Linear search not attempted -- first point.
 B after Tr=     0.000000    0.000000    0.000000
         Rot=    1.000000    0.000000    0.000000    0.000000 Ang=   0.00 deg.
 Variable       Old X    -DE/DX   Delta X   Delta X   Delta X     New X
                                 (Linear)    (Quad)   (Total)
    X1        0.00000  -0.00000   0.00000   0.00000   0.00000   0.00000
    Y1        0.00000  -0.00000   0.00000   0.00000   0.00000   0.00000
    Z1        0.00000  -0.00000   0.00000   0.00000   0.00000   0.00000
         Item               Value     Threshold  Converged?
 Maximum Force            0.000000     0.000450     YES
 RMS     Force            0.000000     0.000300     YES
 Maximum Displacement     0.000000     0.001800     YES
 RMS     Displacement     0.000000     0.001200     YES
 Predicted change in Energy=-0.000000D+00
 Optimization completed.
    -- Stationary point found.
 GradGradGradGradGradGradGradGradGradGradGradGradGradGradGradGradGradGrad

 Dipole is zero, so no output in dipole orientation.

 ----------------------------------------------------------------------

 Electric dipole moment (input orientation):
 (Debye = 10**-18 statcoulomb cm , SI units = C m)
                  (au)            (Debye)         (10**-30 SI)
   Tot        0.000000D+00      0.000000D+00      0.000000D+00
   x          0.000000D+00      0.000000D+00      0.000000D+00
   y          0.000000D+00      0.000000D+00      0.000000D+00
   z          0.000000D+00      0.000000D+00      0.000000D+00

 Dipole polarizability, Alpha (input orientation).
 (esu units = cm**3 , SI units = C**2 m**2 J**-1)
 Alpha(0;0):
               (au)            (10**-24 esu)      (10**-40 SI)
   iso        0.200046D+01      0.296438D+00      0.329831D+00
   aniso      0.587478D-02      0.870552D-03      0.968620D-03
   xx         0.199850D+01      0.296147D+00      0.329508D+00
   yx         0.000000D+00      0.000000D+00      0.000000D+00
   yy         0.200438D+01      0.297018D+00      0.330477D+00
   zx         0.000000D+00      0.000000D+00      0.000000D+00
   zy         0.000000D+00      0.000000D+00      0.000000D+00
   zz         0.199850D+01      0.296147D+00      0.329508D+00

 ----------------------------------------------------------------------
 1\1\GINC-GAMBA\Freq\UB3LYP\Gen\F1(2)\IRIKURA\30-Sep-2023\0\\#N Geom=Al
 lCheck Guess=TCheck SCRF=Check GenChk UB3LYP/ChkBas Freq\\fluorine ato
 m, B3LYP/pcseg-2\\0,2\F,0.,0.,0.\\Version=ES64L-G16RevB.01\HF=-99.7689
 21\S2=0.751601\S2-1=0.\S2A=0.750002\RMSD=1.878e-10\RMSF=0.000e+00\Ther
 mal=0.0014163\Dipole=0.,0.,0.\DipoleDeriv=0.,0.,0.,0.,0.,0.,0.,0.,0.\P
 olar=1.9985021,0.,2.0043768,0.,0.,1.9985021\Quadrupole=-0.2275721,0.45
 51441,-0.2275721,0.,0.,0.\PG=OH [O(F1)]\NImag=0\\0.,0.,0.,0.,0.,0.\\0.
 ,0.,0.\\\@


 IT CANNOT BE MY BEAUTY, FOR I HAVE NONE; AND IT CANNOT BE MY WIT,
 FOR HE HAS NOT ENOUGH TO KNOW THAT I HAVE ANY.
 -- CATHARINE SEDLEY, PUZZLED ABOUT WHY SHE WAS MISTRESS TO JAMES II
 Job cpu time:       0 days  0 hours  0 minutes 13.7 seconds.
 Elapsed time:       0 days  0 hours  0 minutes  3.4 seconds.
 File lengths (MBytes):  RWF=      6 Int=      0 D2E=      0 Chk=      1 Scr=      1
 Normal termination of Gaussian 16 at Sat Sep 30 10:40:22 2023.
 AtFile(1): ccpvtz-f12.gbs
            -H     0
            S    3   1.00
                 82.6400000              0.0020060
                 12.4100000              0.0153430
                  2.8240000              0.0755790
            S    1   1.00
                  0.7977000              1.0000000
            S    1   1.00
                  0.2581000              1.0000000
            S    1   1.00
                  0.0898900              1.0000000
            P    1   1.00
                  1.5513000              1.0000000
            P    1   1.00
                  0.5580000              1.0000000
            P    1   1.00
                  0.2007000              1.0000000
            D    1   1.00
                  0.4648000              1.0000000
            ****
            -He     0
            S    4   1.00
                528.5000000              0.0009400
                 79.3100000              0.0072140
                 18.0500000              0.0359750
                  5.0850000              0.1277820
            S    1   1.00
                  1.6090000              1.0000000
            S    1   1.00
                  0.5363000              1.0000000
            S    1   1.00
                  0.1833000              1.0000000
            S    1   1.00
                  0.0481900              1.0000000
            P    1   1.00
                  3.7026000              1.0000000
            P    1   1.00
                  1.2284000              1.0000000
            P    1   1.00
                  0.4075000              1.0000000
            D    1   1.00
                  0.6525000              1.0000000
            ****
            -Li     0
            S    9   1.00
               6601.0000000              0.0001170
                989.7000000              0.0009110
                225.7000000              0.0047280
                 64.2900000              0.0191970
                 21.1800000              0.0630470
                  7.7240000              0.1632080
                  3.0030000              0.3148270
                  1.2120000              0.3939360
                  0.4930000              0.1969180
            S    9   1.00
               6601.0000000             -0.0000180
                989.7000000             -0.0001420
                225.7000000             -0.0007410
                 64.2900000             -0.0030200
                 21.1800000             -0.0101230
                  7.7240000             -0.0270940
                  3.0030000             -0.0573590
                  1.2120000             -0.0938950
                  0.4930000             -0.1210910
            S    1   1.00
                  0.0951500              1.0000000
            S    1   1.00
                  0.0479100              1.0000000
            S    1   1.00
                  0.0222000              1.0000000
            S    1   1.00
                  0.0064000              1.0000000
            P    2   1.00
                  6.2500000              0.0033880
                  1.3700000              0.0193160
            P    1   1.00
                  0.3672000              1.0000000
            P    1   1.00
                  0.1192000              1.0000000
            P    1   1.00
                  0.0447400              1.0000000
            P    1   1.00
                  0.0179500              1.0000000
            P    1   1.00
                  0.0075000              1.0000000
            D    1   1.00
                  0.2351180              1.0000000
            D    1   1.00
                  0.1194040              1.0000000
            D    1   1.00
                  0.0606390              1.0000000
            F    1   1.00
                  0.1637750              1.0000000
            F    1   1.00
                  0.0759100              1.0000000
            ****
            -Be     0
            S    9   1.00
              14630.0000000              0.0000920
               2191.0000000              0.0007130
                498.2000000              0.0037350
                140.9000000              0.0154680
                 45.8600000              0.0528740
                 16.4700000              0.1456940
                  6.3190000              0.3026810
                  2.5350000              0.4049360
                  1.0350000              0.2223870
            S    9   1.00
              14630.0000000             -0.0000170
               2191.0000000             -0.0001300
                498.2000000             -0.0006790
                140.9000000             -0.0028570
                 45.8600000             -0.0098130
                 16.4700000             -0.0286090
                  6.3190000             -0.0637600
                  2.5350000             -0.1172310
                  1.0350000             -0.1212020
            S    1   1.00
                  0.2528000              1.0000000
            S    1   1.00
                  0.1052000              1.0000000
            S    1   1.00
                  0.0426100              1.0000000
            S    1   1.00
                  0.0141000              1.0000000
            P    2   1.00
                 14.0300000              0.0040990
                  3.1680000              0.0256260
            P    1   1.00
                  0.9024000              1.0000000
            P    1   1.00
                  0.3036000              1.0000000
            P    1   1.00
                  0.1130000              1.0000000
            P    1   1.00
                  0.0428600              1.0000000
            P    1   1.00
                  0.0084000              1.0000000
            D    1   1.00
                  0.4670460              1.0000000
            D    1   1.00
                  0.2205970              1.0000000
            D    1   1.00
                  0.1041940              1.0000000
            F    1   1.00
                  0.3166400              1.0000000
            F    1   1.00
                  0.1457880              1.0000000
            ****
            -B     0
            S    9   1.00
              23870.0000000              0.0000880
               3575.0000000              0.0006870
                812.8000000              0.0036000
                229.7000000              0.0149490
                 74.6900000              0.0514350
                 26.8100000              0.1433020
                 10.3200000              0.3009350
                  4.1780000              0.4035260
                  1.7270000              0.2253400
            S    9   1.00
              23870.0000000             -0.0000180
               3575.0000000             -0.0001390
                812.8000000             -0.0007250
                229.7000000             -0.0030630
                 74.6900000             -0.0105810
                 26.8100000             -0.0313650
                 10.3200000             -0.0710120
                  4.1780000             -0.1321030
                  1.7270000             -0.1230720
            S    1   1.00
                  0.4704000              1.0000000
            S    1   1.00
                  0.1896000              1.0000000
            S    1   1.00
                  0.0739400              1.0000000
            S    1   1.00
                  0.0272100              1.0000000
            P    2   1.00
                 22.2600000              0.0050950
                  5.0580000              0.0332060
            P    1   1.00
                  1.4870000              1.0000000
            P    1   1.00
                  0.5071000              1.0000000
            P    1   1.00
                  0.1812000              1.0000000
            P    1   1.00
                  0.0646300              1.0000000
            P    1   1.00
                  0.0187800              1.0000000
            D    1   1.00
                  1.4403000              1.0000000
            D    1   1.00
                  0.5333000              1.0000000
            D    1   1.00
                  0.1975000              1.0000000
            F    1   1.00
                  0.8479000              1.0000000
            F    1   1.00
                  0.2484000              1.0000000
            ****
            -C     0
            S    9   1.00
              33980.0000000              0.0000910
               5089.0000000              0.0007040
               1157.0000000              0.0036930
                326.6000000              0.0153600
                106.1000000              0.0529290
                 38.1100000              0.1470430
                 14.7500000              0.3056310
                  6.0350000              0.3993450
                  2.5300000              0.2170510
            S    9   1.00
              33980.0000000             -0.0000190
               5089.0000000             -0.0001510
               1157.0000000             -0.0007850
                326.6000000             -0.0033240
                106.1000000             -0.0115120
                 38.1100000             -0.0341600
                 14.7500000             -0.0771730
                  6.0350000             -0.1414930
                  2.5300000             -0.1180190
            S    1   1.00
                  0.7355000              1.0000000
            S    1   1.00
                  0.2905000              1.0000000
            S    1   1.00
                  0.1111000              1.0000000
            S    1   1.00
                  0.0414500              1.0000000
            P    2   1.00
                 34.5100000              0.0053780
                  7.9150000              0.0361320
            P    1   1.00
                  2.3680000              1.0000000
            P    1   1.00
                  0.8132000              1.0000000
            P    1   1.00
                  0.2890000              1.0000000
            P    1   1.00
                  0.1007000              1.0000000
            P    1   1.00
                  0.0321800              1.0000000
            D    1   1.00
                  2.2805000              1.0000000
            D    1   1.00
                  0.7834000              1.0000000
            D    1   1.00
                  0.2691000              1.0000000
            F    1   1.00
                  1.0371000              1.0000000
            F    1   1.00
                  0.3459000              1.0000000
            ****
            -N     0
            S    9   1.00
              45840.0000000              0.0000920
               6868.0000000              0.0007170
               1563.0000000              0.0037490
                442.4000000              0.0155320
                144.3000000              0.0531460
                 52.1800000              0.1467870
                 20.3400000              0.3046630
                  8.3810000              0.3976840
                  3.5290000              0.2176410
            S    9   1.00
              45840.0000000             -0.0000200
               6868.0000000             -0.0001590
               1563.0000000             -0.0008240
                442.4000000             -0.0034780
                144.3000000             -0.0119660
                 52.1800000             -0.0353880
                 20.3400000             -0.0800770
                  8.3810000             -0.1467220
                  3.5290000             -0.1163600
            S    1   1.00
                  1.0540000              1.0000000
            S    1   1.00
                  0.4118000              1.0000000
            S    1   1.00
                  0.1552000              1.0000000
            S    1   1.00
                  0.0546400              1.0000000
            P    2   1.00
                 49.3300000              0.0055330
                 11.3700000              0.0379620
            P    1   1.00
                  3.4350000              1.0000000
            P    1   1.00
                  1.1820000              1.0000000
            P    1   1.00
                  0.4173000              1.0000000
            P    1   1.00
                  0.1428000              1.0000000
            P    1   1.00
                  0.0440200              1.0000000
            D    1   1.00
                  3.0521000              1.0000000
            D    1   1.00
                  1.0393000              1.0000000
            D    1   1.00
                  0.3539000              1.0000000
            F    1   1.00
                  1.3498000              1.0000000
            F    1   1.00
                  0.4638000              1.0000000
            ****
            -O     0
            S    9   1.00
              61420.0000000              0.0000900
               9199.0000000              0.0006980
               2091.0000000              0.0036640
                590.9000000              0.0152180
                192.3000000              0.0524230
                 69.3200000              0.1459210
                 26.9700000              0.3052580
                 11.1000000              0.3985080
                  4.6820000              0.2169800
            S    9   1.00
              61420.0000000             -0.0000200
               9199.0000000             -0.0001590
               2091.0000000             -0.0008290
                590.9000000             -0.0035080
                192.3000000             -0.0121560
                 69.3200000             -0.0362610
                 26.9700000             -0.0829920
                 11.1000000             -0.1520900
                  4.6820000             -0.1153310
            S    1   1.00
                  1.4280000              1.0000000
            S    1   1.00
                  0.5547000              1.0000000
            S    1   1.00
                  0.2067000              1.0000000
            S    1   1.00
                  0.0695900              1.0000000
            P    2   1.00
                 63.4200000              0.0060440
                 14.6600000              0.0417990
            P    1   1.00
                  4.4590000              1.0000000
            P    1   1.00
                  1.5310000              1.0000000
            P    1   1.00
                  0.5302000              1.0000000
            P    1   1.00
                  0.1750000              1.0000000
            P    1   1.00
                  0.0534800              1.0000000
            D    1   1.00
                  3.3422000              1.0000000
            D    1   1.00
                  1.1491000              1.0000000
            D    1   1.00
                  0.3951000              1.0000000
            F    1   1.00
                  1.4956000              1.0000000
            F    1   1.00
                  0.5379000              1.0000000
            ****
            -F     0
            S    9   1.00
              74530.0000000              0.0000950
              11170.0000000              0.0007380
               2543.0000000              0.0038580
                721.0000000              0.0159260
                235.9000000              0.0542890
                 85.6000000              0.1495130
                 33.5500000              0.3082520
                 13.9300000              0.3948530
                  5.9150000              0.2110310
            S    9   1.00
              74530.0000000             -0.0000220
              11170.0000000             -0.0001720
               2543.0000000             -0.0008910
                721.0000000             -0.0037480
                235.9000000             -0.0128620
                 85.6000000             -0.0380610
                 33.5500000             -0.0862390
                 13.9300000             -0.1558650
                  5.9150000             -0.1109140
            S    1   1.00
                  1.8430000              1.0000000
            S    1   1.00
                  0.7124000              1.0000000
            S    1   1.00
                  0.2637000              1.0000000
            S    1   1.00
                  0.0859400              1.0000000
            P    2   1.00
                 80.3900000              0.0063470
                 18.6300000              0.0442040
            P    1   1.00
                  5.6940000              1.0000000
            P    1   1.00
                  1.9530000              1.0000000
            P    1   1.00
                  0.6702000              1.0000000
            P    1   1.00
                  0.2166000              1.0000000
            P    1   1.00
                  0.0656800              1.0000000
            D    1   1.00
                  4.2272000              1.0000000
            D    1   1.00
                  1.3897000              1.0000000
            D    1   1.00
                  0.4569000              1.0000000
            F    1   1.00
                  2.5974000              1.0000000
            F    1   1.00
                  0.8514000              1.0000000
            ****
            -Ne     0
            S    9   1.00
              99920.0000000              0.0000860
              14960.0000000              0.0006690
               3399.0000000              0.0035180
                958.9000000              0.0146670
                311.2000000              0.0509620
                111.7000000              0.1437440
                 43.3200000              0.3045620
                 17.8000000              0.4001050
                  7.5030000              0.2186440
            S    9   1.00
              99920.0000000             -0.0000200
              14960.0000000             -0.0001580
               3399.0000000             -0.0008240
                958.9000000             -0.0035000
                311.2000000             -0.0122330
                111.7000000             -0.0370170
                 43.3200000             -0.0861130
                 17.8000000             -0.1583810
                  7.5030000             -0.1142880
            S    1   1.00
                  2.3370000              1.0000000
            S    1   1.00
                  0.9001000              1.0000000
            S    1   1.00
                  0.3301000              1.0000000
            S    1   1.00
                  0.1054000              1.0000000
            P    2   1.00
                 99.6800000              0.0065660
                 23.1500000              0.0459790
            P    1   1.00
                  7.1080000              1.0000000
            P    1   1.00
                  2.4410000              1.0000000
            P    1   1.00
                  0.8339000              1.0000000
            P    1   1.00
                  0.2662000              1.0000000
            P    1   1.00
                  0.0817800              1.0000000
            D    1   1.00
                  6.7295000              1.0000000
            D    1   1.00
                  2.0114000              1.0000000
            D    1   1.00
                  0.6012000              1.0000000
            F    1   1.00
                  4.1702000              1.0000000
            F    1   1.00
                  0.9443000              1.0000000
            ****
            -Na     0
            S    16   1.00
            1224000.0000000              0.0000048
             183200.0000000              0.0000372
              41700.0000000              0.0001958
              11810.0000000              0.0008267
               3853.0000000              0.0030025
               1391.0000000              0.0097031
                542.5000000              0.0282337
                224.9000000              0.0732058
                 97.9300000              0.1628970
                 44.3100000              0.2887080
                 20.6500000              0.3468290
                  9.7290000              0.2068650
                  4.2280000              0.0328009
                  1.9690000             -0.0006477
                  0.8890000              0.0014588
                  0.3964000             -0.0001783
            S    16   1.00
            1224000.0000000             -0.0000012
             183200.0000000             -0.0000091
              41700.0000000             -0.0000478
              11810.0000000             -0.0002020
               3853.0000000             -0.0007358
               1391.0000000             -0.0023875
                542.5000000             -0.0070497
                224.9000000             -0.0187856
                 97.9300000             -0.0446153
                 44.3100000             -0.0897741
                 20.6500000             -0.1429400
                  9.7290000             -0.1243150
                  4.2280000              0.0999648
                  1.9690000              0.4170800
                  0.8890000              0.4751230
                  0.3964000              0.1632680
            S    16   1.00
            1224000.0000000              0.0000002
             183200.0000000              0.0000014
              41700.0000000              0.0000072
              11810.0000000              0.0000303
               3853.0000000              0.0001108
               1391.0000000              0.0003586
                542.5000000              0.0010627
                224.9000000              0.0028269
                 97.9300000              0.0067674
                 44.3100000              0.0136480
                 20.6500000              0.0222814
[...]
                  2.6780000              0.4503550
            S    13   1.00
             950600.0000000              0.0000020
             142300.0000000              0.0000157
              32360.0000000              0.0000829
               9145.0000000              0.0003493
               2970.0000000              0.0012798
               1064.0000000              0.0041037
                410.8000000              0.0117789
                168.0000000              0.0283868
                 71.9900000              0.0552406
                 31.6700000              0.0607492
                 12.8900000             -0.0362012
                  5.9290000             -0.2753980
                  2.6780000             -0.3628450
            S    1   1.00
                  0.9416000              1.0000000
            S    1   1.00
                  0.4239000              1.0000000
            S    1   1.00
                  0.1714000              1.0000000
            S    1   1.00
                  0.0610000              1.0000000
            P    8   1.00
               1890.0000000             -0.0001389
                447.8000000             -0.0011887
                144.6000000             -0.0063255
                 54.4600000             -0.0238813
                 22.5100000             -0.0649238
                  9.7740000             -0.1154440
                  4.3680000             -0.1236510
                  1.9590000              0.0649055
            P    8   1.00
               1890.0000000              0.0004958
                447.8000000              0.0042517
                144.6000000              0.0223277
                 54.4600000              0.0830878
                 22.5100000              0.2171100
                  9.7740000              0.3745070
                  4.3680000              0.3664450
                  1.9590000              0.1292450
            P    1   1.00
                  6.3209000              1.0000000
            P    1   1.00
                  0.8260000              1.0000000
            P    1   1.00
                  0.3297000              1.0000000
            P    1   1.00
                  0.1242000              1.0000000
            P    1   1.00
                  0.0435000              1.0000000
            D    1   1.00
                 12.6860000              1.0000000
            D    1   1.00
                  3.0405000              1.0000000
            D    1   1.00
                  0.8085000              1.0000000
            D    1   1.00
                  0.2864000              1.0000000
            F    1   1.00
                  1.1691000              1.0000000
            F    1   1.00
                  0.4006000              1.0000000
            ****
            
 Initial command:
 /usr/local/apps/g16_b01_avx/g16/l1.exe "/wrk/irikura/Gau-453702.inp" -scrdir="/wrk/irikura/"
 Entering Link 1 = /usr/local/apps/g16_b01_avx/g16/l1.exe PID=    453825.
  
 Copyright (c) 1988-2017, Gaussian, Inc.  All Rights Reserved.
  
 This is part of the Gaussian(R) 16 program.  It is based on
 the Gaussian(R) 09 system (copyright 2009, Gaussian, Inc.),
 the Gaussian(R) 03 system (copyright 2003, Gaussian, Inc.),
 the Gaussian(R) 98 system (copyright 1998, Gaussian, Inc.),
 the Gaussian(R) 94 system (copyright 1995, Gaussian, Inc.),
 the Gaussian 92(TM) system (copyright 1992, Gaussian, Inc.),
 the Gaussian 90(TM) system (copyright 1990, Gaussian, Inc.),
 the Gaussian 88(TM) system (copyright 1988, Gaussian, Inc.),
 the Gaussian 86(TM) system (copyright 1986, Carnegie Mellon
 University), and the Gaussian 82(TM) system (copyright 1983,
 Carnegie Mellon University). Gaussian is a federally registered
 trademark of Gaussian, Inc.
  
 This software contains proprietary and confidential information,
 including trade secrets, belonging to Gaussian, Inc.
  
 This software is provided under written license and may be
 used, copied, transmitted, or stored only in accord with that
 written license.
  
 The following legend is applicable only to US Government
 contracts under FAR:
  
                    RESTRICTED RIGHTS LEGEND
  
 Use, reproduction and disclosure by the US Government is
 subject to restrictions as set forth in subparagraphs (a)
 and (c) of the Commercial Computer Software - Restricted
 Rights clause in FAR 52.227-19.
  
 Gaussian, Inc.
 340 Quinnipiac St., Bldg. 40, Wallingford CT 06492
  
  
 ---------------------------------------------------------------
 Warning -- This program may not be used in any manner that
 competes with the business of Gaussian, Inc. or will provide
 assistance to any competitor of Gaussian, Inc.  The licensee
 of this program is prohibited from giving any competitor of
 Gaussian, Inc. access to this program.  By using this program,
 the user acknowledges that Gaussian, Inc. is engaged in the
 business of creating and licensing software in the field of
 computational chemistry and represents and warrants to the
 licensee that it is not a competitor of Gaussian, Inc. and that
 it will not use this program in any manner prohibited above.
 ---------------------------------------------------------------
  

 Cite this work as:
 Gaussian 16, Revision B.01,
 M. J. Frisch, G. W. Trucks, H. B. Schlegel, G. E. Scuseria, 
 M. A. Robb, J. R. Cheeseman, G. Scalmani, V. Barone, 
 G. A. Petersson, H. Nakatsuji, X. Li, M. Caricato, A. V. Marenich, 
 J. Bloino, B. G. Janesko, R. Gomperts, B. Mennucci, H. P. Hratchian, 
 J. V. Ortiz, A. F. Izmaylov, J. L. Sonnenberg, D. Williams-Young, 
 F. Ding, F. Lipparini, F. Egidi, J. Goings, B. Peng, A. Petrone, 
 T. Henderson, D. Ranasinghe, V. G. Zakrzewski, J. Gao, N. Rega, 
 G. Zheng, W. Liang, M. Hada, M. Ehara, K. Toyota, R. Fukuda, 
 J. Hasegawa, M. Ishida, T. Nakajima, Y. Honda, O. Kitao, H. Nakai, 
 T. Vreven, K. Throssell, J. A. Montgomery, Jr., J. E. Peralta, 
 F. Ogliaro, M. J. Bearpark, J. J. Heyd, E. N. Brothers, K. N. Kudin, 
 V. N. Staroverov, T. A. Keith, R. Kobayashi, J. Normand, 
 K. Raghavachari, A. P. Rendell, J. C. Burant, S. S. Iyengar, 
 J. Tomasi, M. Cossi, J. M. Millam, M. Klene, C. Adamo, R. Cammi, 
 J. W. Ochterski, R. L. Martin, K. Morokuma, O. Farkas, 
 J. B. Foresman, and D. J. Fox, Gaussian, Inc., Wallingford CT, 2016.
 
 ******************************************
 Gaussian 16:  ES64L-G16RevB.01 20-Dec-2017
                30-Sep-2023 
 ******************************************
 %chk=f.chk
 %mem=500mw
 %nprocs=4
 Will use up to    4 processors via shared memory.
 ---------------------------------
 # rohf/gen geom=check guess=check
 ---------------------------------
 1/29=2,38=1,172=1/1;
 2/12=2,40=1/2;
 3/5=7,11=2,14=-4,25=1,30=1,116=101/1,2,3;
 4/5=1/1;
 5/5=2,38=6/2;
 6/7=2,8=2,9=2,10=2,28=1/1;
 99/5=1,9=1/99;
 -------------------------------
 fluorine atom, ROHF/cc-pVTZ-F12
 -------------------------------
 Structure from the checkpoint file:  "f.chk"
 Charge =  0 Multiplicity = 2
 No Z-Matrix found in chk file; cartesian coordinates used.
  F                                                 0.000000000000      0.000000000000      0.000000000000
 Recover connectivity data from disk.
                          Input orientation:                          
 ---------------------------------------------------------------------
 Center     Atomic      Atomic             Coordinates (Angstroms)
 Number     Number       Type             X           Y           Z
 ---------------------------------------------------------------------
      1          9           0        0.000000    0.000000    0.000000
 ---------------------------------------------------------------------
 Stoichiometry    F(2)
 Framework group  OH[O(F)]
 Deg. of freedom     0
 Full point group                 OH      NOp  48
 Largest Abelian subgroup         D2H     NOp   8
 Largest concise Abelian subgroup C1      NOp   1
                         Standard orientation:                         
 ---------------------------------------------------------------------
 Center     Atomic      Atomic             Coordinates (Angstroms)
 Number     Number       Type             X           Y           Z
 ---------------------------------------------------------------------
      1          9           0        0.000000    0.000000    0.000000
 ---------------------------------------------------------------------
 General basis read from cards:  (5D, 7F)
 There are    15 symmetry adapted cartesian basis functions of AG  symmetry.
 There are     3 symmetry adapted cartesian basis functions of B1G symmetry.
 There are     3 symmetry adapted cartesian basis functions of B2G symmetry.
 There are     3 symmetry adapted cartesian basis functions of B3G symmetry.
 There are     2 symmetry adapted cartesian basis functions of AU  symmetry.
 There are    12 symmetry adapted cartesian basis functions of B1U symmetry.
 There are    12 symmetry adapted cartesian basis functions of B2U symmetry.
 There are    12 symmetry adapted cartesian basis functions of B3U symmetry.
 There are    12 symmetry adapted basis functions of AG  symmetry.
 There are     3 symmetry adapted basis functions of B1G symmetry.
 There are     3 symmetry adapted basis functions of B2G symmetry.
 There are     3 symmetry adapted basis functions of B3G symmetry.
 There are     2 symmetry adapted basis functions of AU  symmetry.
 There are    10 symmetry adapted basis functions of B1U symmetry.
 There are    10 symmetry adapted basis functions of B2U symmetry.
 There are    10 symmetry adapted basis functions of B3U symmetry.
    53 basis functions,    78 primitive gaussians,    62 cartesian basis functions
     5 alpha electrons        4 beta electrons
       nuclear repulsion energy         0.0000000000 Hartrees.
 NAtoms=    1 NActive=    1 NUniq=    1 SFac= 1.00D+00 NAtFMM=   60 NAOKFM=F Big=F
 Integral buffers will be    131072 words long.
 Raffenetti 2 integral format.
 Two-electron integral symmetry is turned on.
 One-electron integrals computed using PRISM.
 NBasis=    53 RedAO= T EigKep=  1.85D-02  NBF=    12     3     3     3     2    10    10    10
 NBsUse=    53 1.00D-06 EigRej= -1.00D+00 NBFU=    12     3     3     3     2    10    10    10
 Initial guess from the checkpoint file:  "f.chk"
 B after Tr=     0.000000    0.000000    0.000000
         Rot=    1.000000    0.000000    0.000000    0.000000 Ang=   0.00 deg.
 BiOrM2:  NumA=       5 NumB=       4.
 Eigenvalues of SAB:
  0.99999971  0.99983845  0.99983845  0.99952838  1.56419207
 BiOrM2:  NumA=       1 NumB=      49.
 Eigenvalues of SAB:
  1.00000000  0.00000000  0.00000000 -0.64196023  0.00000000
  0.00000000  0.00000000  0.00000000  0.00000000  0.00000000
  0.00000000  0.00000000  0.00000000  0.00000000  0.00000000
  0.00000000  0.00000000  0.00000000  0.00000000 -0.00000000
  0.00000000  0.00000000  0.00000000  0.00000000  0.00000000
  0.00000000  0.00000000  0.00000000  0.00000000 -0.00000000
  0.00000000  0.00000000  0.00000000  0.00000000  0.00000000
  0.00000000  0.00000000  0.00000000  0.00000000  0.00000000
  0.15921620  0.00000000  0.00000000  0.25792268  0.00000000
  0.00000000  0.30949333  0.00000000  0.00000000
 BiOrM2:  NumA=      48 NumB=      48.
 Eigenvalues of SAB:
  1.00000000  1.00000000  1.00000000  1.00000000  1.00000000
  1.00000000  1.00000000  1.00000000  1.00000000  1.00000000
  1.00000000  1.00000000  1.00000000  1.00000000  1.00000000
  1.00000000  1.00000000  1.00000000  1.00000000  1.00000000
  1.00000000  1.00000000  1.00000000  1.00000000  1.00000000
  1.00000000  1.00000000  1.00000000  1.00000000  1.00000000
  1.00000000  1.00000000  1.00000000  1.00000000  1.00000000
  1.00000000  1.00000000  1.00000000  1.00000000  1.00000000
  1.00000000  1.00000000  1.00000000  1.00000000  0.99999971
  0.99983845  0.99983845  0.99952838
 Initial guess orbital symmetries:
       Occupied  (A1G) (?A) (?A) (?A) (?A)
       Virtual   (?A) (?A) (?A) (?A) (?A) (?A) (?A) (?A) (?A) (?A)
                 (?A) (?A) (?A) (?A) (?A) (?A) (?A) (?A) (?A) (?A)
                 (?A) (?A) (?A) (?A) (?A) (?A) (?A) (?A) (?A) (?A)
                 (?A) (?A) (?A) (?A) (?A) (?A) (?A) (?A) (?A) (?A)
                 (?A) (?A) (?A) (?A) (?A) (?A) (?A) (?A)
 Keep R1 and R2 ints in memory in symmetry-blocked form, NReq=2991921.
 Requested convergence on RMS density matrix=1.00D-08 within 128 cycles.
 Requested convergence on MAX density matrix=1.00D-06.
 Requested convergence on             energy=1.00D-06.
 No special actions if energy rises.
 An orbital has undefined symmetry, so N**3 symmetry is turned off.
 Density matrix breaks symmetry, PCut= 1.00D-07
 Density has only Abelian symmetry.
 Density matrix breaks symmetry, PCut= 1.00D-07
 Density has only Abelian symmetry.
 Density matrix breaks symmetry, PCut= 1.00D-07
 Density has only Abelian symmetry.
 Density matrix breaks symmetry, PCut= 1.00D-07
 Density has only Abelian symmetry.
 Density matrix breaks symmetry, PCut= 1.00D-07
 Density has only Abelian symmetry.
 Density matrix breaks symmetry, PCut= 1.00D-07
 Density has only Abelian symmetry.
 Density matrix breaks symmetry, PCut= 1.00D-07
 Density has only Abelian symmetry.
 Density matrix breaks symmetry, PCut= 1.00D-07
 Density has only Abelian symmetry.
 Density matrix breaks symmetry, PCut= 1.00D-07
 Density has only Abelian symmetry.
 SCF Done:  E(ROHF) =  -99.4091831793     A.U. after    8 cycles
            NFock=  8  Conv=0.83D-08     -V/T= 2.0001
 <Sx>= 0.0000 <Sy>= 0.0000 <Sz>= 0.5000 <S**2>= 0.7500 S= 0.5000
 <L.S>=  0.00000000000    
 Annihilation of the first spin contaminant:
 S**2 before annihilation     0.7500,   after     0.7500
 SCF density gives NOpUse=  8 NOpAll= 48.

 **********************************************************************

            Population analysis using the SCF Density.

 **********************************************************************

 Orbital symmetries:
       Occupied  (A1G) (A1G) (?A) (?A) (?A)
       Virtual   (?A) (?A) (?A) (A1G) (?A) (?A) (?A) (T2G) (T2G)
                 (T2G) (T2G) (T2G) (T2G) (?B) (?B) (?B) (?B) (?B)
                 (?B) (A2U) (?B) (?B) (?B) (?C) (?C) (?C) (?C)
                 (?C) (?C) (?D) (?D) (?D) (?D) (?D) (?D) (?D) (?D)
                 (?D) (?D) (?E) (?E) (?E) (?E) (?E) (T1U) (T1U)
                 (T1U) (A1G)
 Unable to determine electronic state:  an orbital has unidentified symmetry.
 Alpha  occ. eigenvalues --  -26.37712  -1.54331  -0.69823  -0.69823  -0.23926
 Alpha virt. eigenvalues --    0.16405   0.16877   0.16877   0.17168   0.84936
 Alpha virt. eigenvalues --    0.86266   0.86266   1.11573   1.26558   1.27045
 Alpha virt. eigenvalues --    1.27045   1.28727   1.28727   3.30476   3.33809
 Alpha virt. eigenvalues --    3.33809   3.37951   3.38554   3.38554   3.39443
 Alpha virt. eigenvalues --    3.39443   3.41986   3.41986   4.26991   4.28279
 Alpha virt. eigenvalues --    4.28279   4.31917   4.31917   4.97678  11.17226
 Alpha virt. eigenvalues --   11.18203  11.18203  11.21024  11.21024  11.25539
 Alpha virt. eigenvalues --   11.25539  11.65803  11.71581  11.71581  13.39003
 Alpha virt. eigenvalues --   13.40725  13.40725  13.45900  13.45900  46.64073
 Alpha virt. eigenvalues --   46.69017  46.69017  52.98230
          Condensed to atoms (all electrons):
               1
     1  F    9.000000
          Atomic-Atomic Spin Densities.
               1
     1  F    1.000000
 Mulliken charges and spin densities:
               1          2
     1  F    0.000000   1.000000
 Sum of Mulliken charges =   0.00000   1.00000
 Mulliken charges and spin densities with hydrogens summed into heavy atoms:
               1          2
     1  F    0.000000   1.000000
 Electronic spatial extent (au):  <R**2>=             10.2583
 Charge=              0.0000 electrons
 Dipole moment (field-independent basis, Debye):
    X=             -0.0000    Y=             -0.0000    Z=              0.0000  Tot=              0.0000
 Quadrupole moment (field-independent basis, Debye-Ang):
   XX=             -4.9010   YY=             -3.9958   ZZ=             -4.9010
   XY=             -0.0000   XZ=             -0.0000   YZ=              0.0000
 Traceless Quadrupole moment (field-independent basis, Debye-Ang):
   XX=             -0.3017   YY=              0.6034   ZZ=             -0.3017
   XY=             -0.0000   XZ=             -0.0000   YZ=              0.0000
 Octapole moment (field-independent basis, Debye-Ang**2):
  XXX=             -0.0000  YYY=              0.0000  ZZZ=              0.0000  XYY=             -0.0000
  XXY=              0.0000  XXZ=              0.0000  XZZ=             -0.0000  YZZ=              0.0000
  YYZ=              0.0000  XYZ=              0.0000
 Hexadecapole moment (field-independent basis, Debye-Ang**3):
 XXXX=             -3.0665 YYYY=             -2.0842 ZZZZ=             -3.0665 XXXY=             -0.0000
 XXXZ=             -0.0000 YYYX=             -0.0000 YYYZ=              0.0000 ZZZX=             -0.0000
 ZZZY=              0.0000 XXYY=             -0.8585 XXZZ=             -1.0222 YYZZ=             -0.8585
 XXYZ=              0.0000 YYXZ=             -0.0000 ZZXY=             -0.0000
 N-N= 0.000000000000D+00 E-N=-2.386478052058D+02  KE= 9.940327767516D+01
 Symmetry AG   KE= 8.270813085148D+01
 Symmetry B1G  KE= 2.669124891084D-29
 Symmetry B2G  KE= 6.128968422064D-30
 Symmetry B3G  KE= 2.991193058693D-30
 Symmetry AU   KE= 4.008435844155D-30
 Symmetry B1U  KE= 6.609948974170D+00
 Symmetry B2U  KE= 3.475248875334D+00
 Symmetry B3U  KE= 6.609948974170D+00
 Symmetry AG   SP= 8.089468256939D-68
 Symmetry B1G  SP= 1.639442310656D-31
 Symmetry B2G  SP= 8.261926720433D-32
 Symmetry B3G  SP= 1.755926220976D-32
 Symmetry AU   SP= 4.633319860525D-33
 Symmetry B1U  SP= 1.530099661485D-50
 Symmetry B2U  SP= 1.000000000000D+00
 Symmetry B3U  SP= 1.819938665807D-50
                          Isotropic Fermi Contact Couplings
        Atom                 a.u.       MegaHertz       Gauss      10(-4) cm-1
     1  F(19)              0.00000       0.00000       0.00000       0.00000
 --------------------------------------------------------
       Center         ----  Spin Dipole Couplings  ----
                      3XX-RR        3YY-RR        3ZZ-RR
 --------------------------------------------------------
     1   Atom       -3.125487      6.250975     -3.125487
 --------------------------------------------------------
                        XY            XZ            YZ
 --------------------------------------------------------
     1   Atom        0.000000      0.000000      0.000000
 --------------------------------------------------------


 ---------------------------------------------------------------------------------
              Anisotropic Spin Dipole Couplings in Principal Axis System
 ---------------------------------------------------------------------------------

       Atom             a.u.   MegaHertz   Gauss  10(-4) cm-1        Axes

              Baa    -3.1255 -1569.700  -560.108  -523.595  0.0000  0.0000  1.0000
     1 F(19)  Bbb    -3.1255 -1569.700  -560.108  -523.595  1.0000  0.0000  0.0000
              Bcc     6.2510  3139.399  1120.216  1047.191 -0.0000  1.0000  0.0000
 

 ---------------------------------------------------------------------------------

 1\1\GINC-GAMBA\SP\ROHF\Gen\F1(2)\IRIKURA\30-Sep-2023\0\\# rohf/gen geo
 m=check guess=check\\fluorine atom, ROHF/cc-pVTZ-F12\\0,2\F,0.,0.,0.\\
 Version=ES64L-G16RevB.01\HF=-99.4091832\RMSD=8.285e-09\Dipole=0.,0.,0.
 \Quadrupole=-0.22432,0.4486399,-0.22432,0.,0.,0.\PG=OH [O(F1)]\\@


 ERWIN WITH HIS PSI CAN DO
 CALCULATIONS QUITE A FEW.
 BUT ONE THING HAS NOT BEEN SEEN
 JUST WHAT DOES PSI REALLY MEAN.
 -- WALTER HUCKEL, TRANS. BY FELIX BLOCH
 Job cpu time:       0 days  0 hours  0 minutes  6.1 seconds.
 Elapsed time:       0 days  0 hours  0 minutes  1.5 seconds.
 File lengths (MBytes):  RWF=      6 Int=      0 D2E=      0 Chk=      1 Scr=      1
 Normal termination of Gaussian 16 at Sat Sep 30 10:40:24 2023.
