 Entering Gaussian System, Link 0=g16
 AtFile(1): pcseg2.gbs
            -H     0
            S    4   1.00
                  0.754732D+02           0.427821D-02
                  0.113575D+02           0.328672D-01
                  0.260081D+01           0.159578D+00
                  0.735503D+00           0.500000D+00
            S    1   1.00
                  0.231761D+00           1.0000000
            S    1   1.00
                  0.741675D-01           1.0000000
            P    1   1.00
                  0.160000D+01           1.0000000
            P    1   1.00
                  0.450000D+00           1.0000000
            D    1   1.00
                  0.125000D+01           1.0000000
            ****
            -He     0
            S    4   1.00
                  0.221782D+03           0.504144D-02
                  0.333758D+02           0.381184D-01
                  0.761157D+01           0.175609D+00
                  0.210893D+01           0.500000D+00
            S    1   1.00
                  0.628783D+00           1.0000000
            S    1   1.00
                  0.184690D+00           1.0000000
            P    1   1.00
                  0.240000D+01           1.0000000
            P    1   1.00
                  0.680000D+00           1.0000000
            D    1   1.00
                  0.180000D+01           1.0000000
            ****
            -Li     0
            S    7   1.00
                  0.155855D+04           0.820882D-03
                  0.233908D+03           0.633220D-02
                  0.532801D+02           0.321400D-01
                  0.150819D+02           0.119124D+00
                  0.483549D+01           0.308154D+00
                  0.165502D+01           0.500000D+00
                  0.580558D+00           0.376030D+00
            S    1   1.00
                  0.684458D-01           1.0000000
            S    2   1.00
                  0.770933D+00          -0.847279D-01
                  0.751972D-01           0.500000D+00
            S    1   1.00
                  0.257666D-01           1.0000000
            P    3   1.00
                  0.237235D+01           0.394733D-01
                  0.468805D+00           0.203928D+00
                  0.127393D+00           0.500000D+00
            P    1   1.00
                  0.348095D-01           1.0000000
            D    1   1.00
                  0.260000D+00           1.0000000
            ****
            -Be     0
            S    7   1.00
                  0.294475D+04           0.773431D-03
                  0.441879D+03           0.596942D-02
                  0.100624D+03           0.304024D-01
                  0.284712D+02           0.114358D+00
                  0.914444D+01           0.305833D+00
                  0.317664D+01           0.500000D+00
                  0.112275D+01           0.347539D+00
            S    2   1.00
                  0.192303D+01          -0.886331D-01
                  0.191413D+00           0.500000D+00
            S    1   1.00
                  0.833307D-01           1.0000000
            S    1   1.00
                  0.374215D-01           1.0000000
            P    3   1.00
                  0.372379D+01           0.406783D-01
                  0.752088D+00           0.210745D+00
                  0.204375D+00           0.500000D+00
            P    1   1.00
                  0.548729D-01           1.0000000
            D    1   1.00
                  0.390000D+00           1.0000000
            ****
            -B     0
            S    7   1.00
                  0.491006D+04           0.719963D-03
                  0.736668D+03           0.555998D-02
                  0.167722D+03           0.283969D-01
                  0.474653D+02           0.107966D+00
                  0.152998D+02           0.295582D+00
                  0.535059D+01           0.500000D+00
                  0.191018D+01           0.356938D+00
            S    2   1.00
                  0.336487D+01          -0.927184D-01
                  0.351154D+00           0.500000D+00
            S    1   1.00
                  0.147529D+00           1.0000000
            S    1   1.00
                  0.631265D-01           1.0000000
            P    4   1.00
                  0.219892D+02           0.807954D-02
                  0.493853D+01           0.573813D-01
                  0.141047D+01           0.215067D+00
                  0.480433D+00           0.500000D+00
            P    1   1.00
                  0.165050D+00           1.0000000
            P    1   1.00
                  0.542186D-01           1.0000000
            D    1   1.00
                  0.105000D+01           1.0000000
            D    1   1.00
                  0.350000D+00           1.0000000
            F    1   1.00
                  0.870000D+00           1.0000000
            ****
            -C     0
            S    7   1.00
                  0.731999D+04           0.695369D-03
                  0.109818D+04           0.537138D-02
                  0.250014D+03           0.274734D-01
                  0.707586D+02           0.105078D+00
                  0.228595D+02           0.291262D+00
                  0.803936D+01           0.500000D+00
                  0.289309D+01           0.362224D+00
            S    2   1.00
                  0.521640D+01          -0.957844D-01
                  0.556124D+00           0.500000D+00
            S    1   1.00
                  0.228813D+00           1.0000000
            S    1   1.00
                  0.936338D-01           1.0000000
            P    4   1.00
                  0.339855D+02           0.818395D-02
                  0.772957D+01           0.586921D-01
                  0.224954D+01           0.222514D+00
                  0.767681D+00           0.500000D+00
            P    1   1.00
                  0.263283D+00           1.0000000
            P    1   1.00
                  0.848744D-01           1.0000000
            D    1   1.00
                  0.140000D+01           1.0000000
            D    1   1.00
                  0.450000D+00           1.0000000
            F    1   1.00
                  0.950000D+00           1.0000000
            ****
            -N     0
            S    7   1.00
                  0.101643D+05           0.682757D-03
                  0.152481D+04           0.527488D-02
                  0.347119D+03           0.270037D-01
                  0.982389D+02           0.103673D+00
                  0.317799D+02           0.289575D+00
                  0.112240D+02           0.500000D+00
                  0.406611D+01           0.364621D+00
            S    2   1.00
                  0.747898D+01          -0.975681D-01
                  0.805040D+00           0.500000D+00
            S    1   1.00
                  0.324626D+00           1.0000000
            S    1   1.00
                  0.128132D+00           1.0000000
            P    4   1.00
                  0.482704D+02           0.829547D-02
                  0.110815D+02           0.596223D-01
                  0.326643D+01           0.227889D+00
                  0.111680D+01           0.500000D+00
            P    1   1.00
                  0.382049D+00           1.0000000
            P    1   1.00
                  0.121222D+00           1.0000000
            D    1   1.00
                  0.180000D+01           1.0000000
            D    1   1.00
                  0.550000D+00           1.0000000
            F    1   1.00
                  0.102000D+01           1.0000000
            ****
            -O     0
            S    7   1.00
                  0.135887D+05           0.665492D-03
                  0.203847D+04           0.514222D-02
                  0.464041D+03           0.263472D-01
                  0.131339D+03           0.101500D+00
                  0.425340D+02           0.285877D+00
                  0.150429D+02           0.500000D+00
                  0.546616D+01           0.368211D+00
            S    2   1.00
                  0.100915D+02          -0.100084D+00
                  0.110429D+01           0.500000D+00
            S    1   1.00
                  0.448082D+00           1.0000000
            S    1   1.00
                  0.175325D+00           1.0000000
            P    4   1.00
                  0.608220D+02           0.908253D-02
                  0.140332D+02           0.645878D-01
                  0.418244D+01           0.241502D+00
                  0.142490D+01           0.500000D+00
            P    1   1.00
                  0.478741D+00           1.0000000
            P    1   1.00
                  0.146257D+00           1.0000000
            D    1   1.00
                  0.220000D+01           1.0000000
            D    1   1.00
                  0.650000D+00           1.0000000
            F    1   1.00
                  0.110000D+01           1.0000000
            ****
            -F     0
            S    7   1.00
                  0.174507D+05           0.655972D-03
                  0.261768D+04           0.506944D-02
                  0.595857D+03           0.259899D-01
                  0.168651D+03           0.100353D+00
                  0.546654D+02           0.284095D+00
                  0.193717D+02           0.500000D+00
                  0.706202D+01           0.370721D+00
            S    2   1.00
                  0.131197D+02          -0.101997D+00
                  0.145046D+01           0.500000D+00
            S    1   1.00
                  0.588255D+00           1.0000000
            S    1   1.00
                  0.227960D+00           1.0000000
            P    4   1.00
                  0.779407D+02           0.931135D-02
                  0.180425D+02           0.663964D-01
                  0.542342D+01           0.246386D+00
                  0.184876D+01           0.500000D+00
            P    1   1.00
                  0.617455D+00           1.0000000
            P    1   1.00
                  0.185496D+00           1.0000000
            D    1   1.00
                  0.280000D+01           1.0000000
            D    1   1.00
                  0.800000D+00           1.0000000
            F    1   1.00
                  0.120000D+01           1.0000000
            ****
            -Ne     0
            S    7   1.00
                  0.217224D+05           0.651348D-03
                  0.325842D+04           0.503391D-02
                  0.741722D+03           0.258151D-01
                  0.209944D+03           0.998321D-01
                  0.680916D+02           0.283541D+00
                  0.241760D+02           0.500000D+00
                  0.884214D+01           0.371672D+00
            S    2   1.00
                  0.165667D+02          -0.102833D+00
                  0.183862D+01           0.500000D+00
            S    1   1.00
                  0.740431D+00           1.0000000
            S    1   1.00
                  0.283937D+00           1.0000000
            P    4   1.00
                  0.973358D+02           0.945185D-02
                  0.226052D+02           0.674728D-01
                  0.683524D+01           0.249630D+00
                  0.233071D+01           0.500000D+00
            P    1   1.00
                  0.775470D+00           1.0000000
            P    1   1.00
                  0.230572D+00           1.0000000
            D    1   1.00
                  0.300000D+01           1.0000000
            D    1   1.00
                  0.850000D+00           1.0000000
            F    1   1.00
                  0.130000D+01           1.0000000
            ****
            -Na     0
            S    8   1.00
                  0.570255D+05           0.257591D-03
                  0.854710D+04           0.199792D-02
                  0.194516D+04           0.103946D-01
                  0.550737D+03           0.422553D-01
                  0.179362D+03           0.137082D+00
                  0.643703D+02           0.329261D+00
                  0.247211D+02           0.500000D+00
                  0.962704D+01           0.312399D+00
            S    3   1.00
                  0.547955D+02          -0.274204D-01
                  0.162859D+02          -0.124741D+00
                  0.249115D+01           0.500000D+00
            S    2   1.00
                  0.102140D+01           0.500000D+00
                  0.414410D+00           0.217447D+00
            S    1   1.00
                  0.626192D-01           1.0000000
            S    1   1.00
                  0.223001D-01           1.0000000
            P    7   1.00
                  0.230133D+03           0.336899D-02
                  0.541082D+02           0.261720D-01
                  0.173774D+02           0.110467D+00
                  0.630965D+01           0.307494D+00
                  0.240664D+01           0.505540D+00
                  0.901852D+00           0.500000D+00
                  0.314401D+00           0.218440D+00
            P    1   1.00
                  0.121000D+00           1.0000000
            P    1   1.00
                  0.390000D-01           1.0000000
            D    1   1.00
                  0.240000D+00           1.0000000
            ****
            -Mg     0
            S    8   1.00
                  0.696037D+05           0.249938D-03
                  0.104340D+05           0.193826D-02
                  0.237475D+04           0.100873D-01
                  0.672334D+03           0.410647D-01
                  0.218958D+03           0.133776D+00
                  0.786250D+02           0.323983D+00
                  0.302141D+02           0.500000D+00
                  0.117909D+02           0.321048D+00
            S    3   1.00
                  0.650711D+02          -0.303312D-01
                  0.194626D+02          -0.136074D+00
                  0.312938D+01           0.500000D+00
            S    2   1.00
                  0.137154D+01           0.500000D+00
                  0.593539D+00           0.251494D+00
            S    1   1.00
                  0.115034D+00           1.0000000
            S    1   1.00
                  0.403001D-01           1.0000000
            P    7   1.00
                  0.308909D+03           0.287113D-02
                  0.728662D+02           0.225671D-01
                  0.234913D+02           0.986025D-01
                  0.856264D+01           0.285692D+00
                  0.330686D+01           0.494702D+00
                  0.126930D+01           0.500000D+00
                  0.461127D+00           0.204239D+00
            P    1   1.00
                  0.177000D+00           1.0000000
            P    1   1.00
                  0.570000D-01           1.0000000
            D    1   1.00
                  0.300000D+00           1.0000000
            ****
            -Al     0
            S    8   1.00
                  0.839008D+05           0.242171D-03
                  0.125769D+05           0.187813D-02
                  0.286262D+04           0.977638D-02
                  0.810575D+03           0.398378D-01
                  0.264080D+03           0.130219D+00
                  0.949196D+02           0.318122D+00
                  0.364975D+02           0.500000D+00
                  0.142821D+02           0.331616D+00
            S    3   1.00
                  0.760827D+02          -0.355982D-01
                  0.228710D+02          -0.157455D+00
                  0.392618D+01           0.500000D+00
            S    2   1.00
                  0.185485D+01           0.500000D+00
                  0.827583D+00           0.302771D+00
            S    1   1.00
                  0.180478D+00           1.0000000
            S    1   1.00
                  0.638999D-01           1.0000000
            P    7   1.00
                  0.576213D+03           0.132187D-02
                  0.136705D+03           0.108113D-01
                  0.437989D+02           0.539925D-01
                  0.160383D+02           0.176991D+00
                  0.643523D+01           0.377687D+00
                  0.264221D+01           0.500000D+00
                  0.106841D+01           0.352071D+00
            P    2   1.00
                  0.458274D+01          -0.162529D-01
                  0.390489D+00           0.500000D+00
            P    1   1.00
                  0.133161D+00           1.0000000
            P    1   1.00
                  0.418671D-01           1.0000000
            D    1   1.00
                  0.147000D+01           1.0000000
            D    1   1.00
                  0.330000D+00           1.0000000
            F    1   1.00
                  0.480000D+00           1.0000000
            ****
            -Si     0
            S    8   1.00
                  0.996133D+05           0.235546D-03
                  0.149311D+05           0.182707D-02
                  0.339820D+04           0.951425D-02
                  0.962140D+03           0.388172D-01
                  0.313430D+03           0.127328D+00
                  0.112683D+03           0.313522D+00
                  0.433372D+02           0.500000D+00
                  0.170029D+02           0.340347D+00
            S    3   1.00
                  0.884208D+02          -0.404451D-01
                  0.266756D+02          -0.178059D+00
                  0.479640D+01           0.500000D+00
            S    2   1.00
                  0.239385D+01           0.500000D+00
                  0.108333D+01           0.338016D+00
            S    1   1.00
                  0.252420D+00           1.0000000
            S    1   1.00
                  0.891210D-01           1.0000000
            P    7   1.00
                  0.709901D+03           0.123028D-02
                  0.168426D+03           0.101366D-01
                  0.539946D+02           0.511840D-01
                  0.198646D+02           0.169967D+00
                  0.801369D+01           0.370717D+00
                  0.331870D+01           0.500000D+00
                  0.136112D+01           0.344128D+00
            P    2   1.00
                  0.622158D+01          -0.166609D-01
                  0.503049D+00           0.500000D+00
            P    1   1.00
                  0.179848D+00           1.0000000
            P    1   1.00
                  0.591912D-01           1.0000000
            D    1   1.00
                  0.168000D+01           1.0000000
            D    1   1.00
                  0.380000D+00           1.0000000
            F    1   1.00
                  0.540000D+00           1.0000000
            ****
            -P     0
            S    8   1.00
                  0.116416D+06           0.230715D-03
                  0.174500D+05           0.178960D-02
                  0.397149D+04           0.932116D-02
                  0.112447D+04           0.380591D-01
                  0.366347D+03           0.125148D+00
                  0.131757D+03           0.310022D+00
                  0.506988D+02           0.500000D+00
                  0.199436D+02           0.347528D+00
            S    3   1.00
                  0.101878D+03          -0.446755D-01
                  0.308249D+02          -0.196376D+00
                  0.573688D+01           0.500000D+00
            S    2   1.00
                  0.296868D+01           0.500000D+00
                  0.135315D+01           0.355098D+00
            S    1   1.00
                  0.332196D+00           1.0000000
            S    1   1.00
                  0.116229D+00           1.0000000
            P    7   1.00
                  0.873928D+03           0.112375D-02
                  0.207298D+03           0.933330D-02
                  0.664628D+02           0.477213D-01
                  0.245665D+02           0.160733D+00
                  0.996820D+01           0.359760D+00
                  0.416536D+01           0.500000D+00
                  0.173022D+01           0.346593D+00
            P    2   1.00
                  0.772530D+01          -0.175718D-01
                  0.657252D+00           0.500000D+00
            P    1   1.00
                  0.239903D+00           1.0000000
            P    1   1.00
                  0.800988D-01           1.0000000
            D    1   1.00
                  0.189000D+01           1.0000000
            D    1   1.00
                  0.430000D+00           1.0000000
            F    1   1.00
                  0.600000D+00           1.0000000
            ****
            -S     0
            S    8   1.00
                  0.134700D+06           0.226231D-03
                  0.201904D+05           0.175488D-02
                  0.459528D+04           0.914190D-02
                  0.130109D+04           0.373551D-01
                  0.423902D+03           0.123121D+00
                  0.152485D+03           0.306801D+00
                  0.586925D+02           0.500000D+00
                  0.231461D+02           0.354358D+00
            S    3   1.00
                  0.116327D+03          -0.491772D-01
                  0.352841D+02          -0.215962D+00
                  0.677831D+01           0.500000D+00
            S    2   1.00
                  0.360404D+01           0.500000D+00
                  0.164871D+01           0.366278D+00
            S    1   1.00
                  0.421821D+00           1.0000000
            S    1   1.00
                  0.147554D+00           1.0000000
            P    7   1.00
                  0.104863D+04           0.105273D-02
                  0.248717D+03           0.879338D-02
                  0.797887D+02           0.453358D-01
                  0.296023D+02           0.154476D+00
                  0.120627D+02           0.352366D+00
                  0.507628D+01           0.500000D+00
                  0.213375D+01           0.346429D+00
            P    2   1.00
                  0.928958D+01          -0.185932D-01
                  0.837819D+00           0.500000D+00
            P    1   1.00
                  0.301495D+00           1.0000000
            P    1   1.00
                  0.974740D-01           1.0000000
            D    1   1.00
                  0.210000D+01           1.0000000
            D    1   1.00
                  0.480000D+00           1.0000000
            F    1   1.00
                  0.660000D+00           1.0000000
            ****
            -Cl     0
            S    8   1.00
                  0.154272D+06           0.222473D-03
                  0.231232D+05           0.172590D-02
                  0.526257D+04           0.899286D-02
                  0.148995D+04           0.367724D-01
                  0.485417D+03           0.121446D+00
                  0.174634D+03           0.304148D+00
                  0.672393D+02           0.500000D+00
                  0.265780D+02           0.360252D+00
            S    3   1.00
                  0.131826D+03          -0.531330D-01
                  0.400703D+02          -0.233346D+00
                  0.789448D+01           0.500000D+00
            S    2   1.00
                  0.427711D+01           0.500000D+00
                  0.196233D+01           0.370517D+00
            S    1   1.00
                  0.520793D+00           1.0000000
            S    1   1.00
                  0.181633D+00           1.0000000
            P    7   1.00
                  0.124440D+04           0.988206D-03
                  0.295109D+03           0.829674D-02
                  0.947224D+02           0.430906D-01
                  0.352588D+02           0.148443D+00
                  0.144211D+02           0.344744D+00
                  0.610371D+01           0.500000D+00
                  0.258886D+01           0.348278D+00
            P    2   1.00
                  0.109447D+02          -0.196768D-01
                  0.104413D+01           0.500000D+00
            P    1   1.00
                  0.376184D+00           1.0000000
            P    1   1.00
                  0.120613D+00           1.0000000
            D    1   1.00
                  0.231000D+01           1.0000000
            D    1   1.00
                  0.520000D+00           1.0000000
            F    1   1.00
                  0.720000D+00           1.0000000
            ****
            -Ar     0
            S    8   1.00
                  0.175137D+06           0.219259D-03
                  0.262511D+05           0.170097D-02
                  0.597452D+04           0.886404D-02
                  0.169157D+04           0.362630D-01
                  0.551142D+03           0.119964D+00
                  0.198307D+03           0.301800D+00
                  0.763750D+02           0.500000D+00
                  0.302538D+02           0.365614D+00
            S    3   1.00
                  0.148283D+03          -0.568620D-01
                  0.451591D+02          -0.249693D+00
                  0.910015D+01           0.500000D+00
            S    2   1.00
                  0.499086D+01           0.500000D+00
                  0.229346D+01           0.369638D+00
            S    1   1.00
                  0.628631D+00           1.0000000
            S    1   1.00
                  0.218001D+00           1.0000000
            P    7   1.00
                  0.145363D+04           0.938521D-03
                  0.344725D+03           0.790992D-02
                  0.110728D+03           0.413060D-01
                  0.413308D+02           0.143629D+00
                  0.169589D+02           0.338309D+00
                  0.721074D+01           0.500000D+00
                  0.307788D+01           0.349376D+00
            P    2   1.00
                  0.127445D+02          -0.204792D-01
                  0.126589D+01           0.500000D+00
            P    1   1.00
                  0.457325D+00           1.0000000
            P    1   1.00
                  0.146322D+00           1.0000000
            D    1   1.00
                  0.252000D+01           1.0000000
            D    1   1.00
                  0.570000D+00           1.0000000
            F    1   1.00
                  0.780000D+00           1.0000000
            ****
            -K     0
            S    10   1.00
                  0.644867D+06           0.581413D-04
                  0.966213D+05           0.451700D-03
                  0.219928D+05           0.236957D-02
                  0.622966D+04           0.992121D-02
                  0.203222D+04           0.351840D-01
                  0.733520D+03           0.106509D+00
                  0.286219D+03           0.262413D+00
                  0.116889D+03           0.488396D+00
                  0.494284D+02           0.500000D+00
                  0.213657D+02           0.174582D+00
            S    4   1.00
                  0.178609D+03          -0.202773D-01
                  0.538372D+02          -0.989686D-01
                  0.787012D+01           0.500000D+00
                  0.312173D+01           0.501996D+00
            S    2   1.00
                  0.476697D+01          -0.140008D+00
                  0.707985D+00           0.500000D+00
            S    1   1.00
                  0.278690D+00           1.0000000
            S    1   1.00
                  0.473858D-01           1.0000000
            S    1   1.00
                  0.187717D-01           1.0000000
            P    8   1.00
                  0.216505D+04           0.667716D-03
                  0.512883D+03           0.574192D-02
                  0.164970D+03           0.307875D-01
                  0.626593D+02           0.111673D+00
                  0.260790D+02           0.294532D+00
                  0.113621D+02           0.507640D+00
                  0.510959D+01           0.500000D+00
                  0.224049D+01           0.197319D+00
            P    4   1.00
                  0.135242D+02          -0.150961D-01
                  0.176313D+01           0.239761D+00
                  0.799503D+00           0.500000D+00
                  0.349973D+00           0.449647D+00
            P    1   1.00
                  0.143463D+00           1.0000000
            P    1   1.00
                  0.404000D-01           1.0000000
            D    3   1.00
                  0.103178D+02           0.547646D-01
                  0.268886D+01           0.236314D+00
                  0.829610D+00           0.500000D+00
            D    1   1.00
                  0.238395D+00           1.0000000
            D    1   1.00
                  0.622820D-01           1.0000000
            ****
            -Ca     0
            S    10   1.00
                  0.720395D+06           0.575164D-04
                  0.107938D+06           0.446824D-03
                  0.245703D+05           0.234380D-02
                  0.696031D+04           0.981319D-02
                  0.227077D+04           0.348089D-01
                  0.819657D+03           0.105484D+00
                  0.319823D+03           0.260558D+00
                  0.130583D+03           0.486476D+00
                  0.553052D+02           0.500000D+00
                  0.239765D+02           0.177349D+00
            S    4   1.00
                  0.197312D+03          -0.208439D-01
                  0.596728D+02          -0.100875D+00
                  0.890338D+01           0.500000D+00
                  0.358443D+01           0.508309D+00
            S    2   1.00
                  0.544530D+01          -0.144098D+00
                  0.846321D+00           0.500000D+00
            S    1   1.00
                  0.354132D+00           1.0000000
            S    1   1.00
                  0.779382D-01           1.0000000
            S    1   1.00
                  0.300109D-01           1.0000000
            P    8   1.00
                  0.250573D+04           0.624240D-03
                  0.593538D+03           0.538210D-02
                  0.191110D+03           0.289490D-01
                  0.727089D+02           0.106090D+00
                  0.303004D+02           0.283963D+00
                  0.132416D+02           0.497946D+00
                  0.598823D+01           0.500000D+00
                  0.264558D+01           0.202389D+00
            P    4   1.00
                  0.153883D+02          -0.164739D-01
                  0.208144D+01           0.247930D+00
                  0.978121D+00           0.500000D+00
                  0.448888D+00           0.442743D+00
            P    1   1.00
                  0.192527D+00           1.0000000
            P    1   1.00
                  0.541000D-01           1.0000000
            D    3   1.00
                  0.132089D+02           0.502008D-01
                  0.350108D+01           0.226143D+00
                  0.110007D+01           0.500000D+00
            D    1   1.00
                  0.327669D+00           1.0000000
            D    1   1.00
                  0.878047D-01           1.0000000
            ****
            -Sc     0
            S    10   1.00
                  0.799406D+06           0.570135D-04
                  0.119776D+06           0.442929D-03
                  0.272655D+05           0.232333D-02
                  0.772387D+04           0.972857D-02
                  0.251967D+04           0.345244D-01
                  0.909366D+03           0.104727D+00
                  0.354780D+03           0.259193D+00
                  0.144828D+03           0.485144D+00
                  0.613865D+02           0.500000D+00
                  0.266622D+02           0.178628D+00
            S    4   1.00
                  0.217851D+03          -0.210965D-01
                  0.660220D+02          -0.101874D+00
                  0.996657D+01           0.500000D+00
                  0.405209D+01           0.506081D+00
            S    2   1.00
                  0.621156D+01          -0.147507D+00
                  0.980079D+00           0.500000D+00
            S    1   1.00
                  0.410850D+00           1.0000000
            S    1   1.00
                  0.913215D-01           1.0000000
            S    1   1.00
                  0.340733D-01           1.0000000
            P    8   1.00
                  0.284819D+04           0.599355D-03
                  0.674674D+03           0.517641D-02
                  0.217413D+03           0.279064D-01
                  0.828002D+02           0.103074D+00
                  0.345384D+02           0.278674D+00
                  0.151256D+02           0.494120D+00
                  0.686359D+01           0.500000D+00
                  0.304644D+01           0.202762D+00
            P    4   1.00
                  0.174124D+02          -0.171062D-01
                  0.240994D+01           0.253298D+00
                  0.113463D+01           0.500000D+00
                  0.523074D+00           0.431211D+00
            P    1   1.00
                  0.225879D+00           1.0000000
            P    1   1.00
                  0.640000D-01           1.0000000
            D    6   1.00
                  0.765007D+02           0.296453D-02
                  0.226497D+02           0.215006D-01
                  0.830279D+01           0.888353D-01
                  0.322503D+01           0.242312D+00
                  0.133688D+01           0.415304D+00
                  0.541237D+00           0.500000D+00
            D    1   1.00
                  0.204900D+00           1.0000000
            D    1   1.00
                  0.696367D-01           1.0000000
            F    1   1.00
                  0.220600D+01           1.0000000
            F    1   1.00
                  0.490000D+00           1.0000000
            G    1   1.00
                  0.111800D+01           1.0000000
            ****
            -Ti     0
            S    10   1.00
                  0.881322D+06           0.566841D-04
                  0.132045D+06           0.440379D-03
                  0.300580D+05           0.231008D-02
                  0.851451D+04           0.967443D-02
                  0.277754D+04           0.343380D-01
                  0.100247D+04           0.104214D+00
                  0.391166D+03           0.258207D+00
                  0.159704D+03           0.484155D+00
                  0.677547D+02           0.500000D+00
                  0.294822D+02           0.179676D+00
            S    4   1.00
                  0.239523D+03          -0.213026D-01
                  0.727201D+02          -0.102735D+00
                  0.110898D+02           0.500000D+00
                  0.454569D+01           0.503860D+00
            S    2   1.00
                  0.702224D+01          -0.149836D+00
                  0.112078D+01           0.500000D+00
            S    1   1.00
                  0.470298D+00           1.0000000
            S    1   1.00
                  0.103568D+00           1.0000000
            S    1   1.00
                  0.379615D-01           1.0000000
            P    8   1.00
                  0.320389D+04           0.581565D-03
                  0.758987D+03           0.502920D-02
                  0.244740D+03           0.271691D-01
                  0.932732D+02           0.101003D+00
                  0.389438D+02           0.275151D+00
                  0.170882D+02           0.491986D+00
                  0.777728D+01           0.500000D+00
                  0.346621D+01           0.202514D+00
            P    4   1.00
                  0.195703D+02          -0.175817D-01
                  0.275468D+01           0.258395D+00
                  0.129439D+01           0.500000D+00
                  0.597849D+00           0.420555D+00
            P    1   1.00
                  0.259198D+00           1.0000000
            P    1   1.00
                  0.740000D-01           1.0000000
            D    6   1.00
                  0.870556D+02           0.317276D-02
                  0.257984D+02           0.232651D-01
                  0.952023D+01           0.955475D-01
                  0.373742D+01           0.259226D+00
                  0.155867D+01           0.434112D+00
                  0.635491D+00           0.500000D+00
            D    1   1.00
                  0.245564D+00           1.0000000
            D    1   1.00
                  0.858965D-01           1.0000000
            F    1   1.00
                  0.242600D+01           1.0000000
            F    1   1.00
                  0.539000D+00           1.0000000
            G    1   1.00
                  0.122900D+01           1.0000000
            ****
            -V     0
            S    10   1.00
                  0.967841D+06           0.563248D-04
                  0.145004D+06           0.437598D-03
                  0.330081D+05           0.229549D-02
                  0.935001D+04           0.961437D-02
                  0.304997D+04           0.341333D-01
                  0.110075D+04           0.103661D+00
                  0.429510D+03           0.257185D+00
                  0.175347D+03           0.483177D+00
                  0.744357D+02           0.500000D+00
                  0.324359D+02           0.180468D+00
            S    4   1.00
                  0.262409D+03          -0.214508D-01
                  0.797883D+02          -0.103421D+00
                  0.122687D+02           0.500000D+00
                  0.506274D+01           0.500969D+00
            S    2   1.00
                  0.788269D+01          -0.151938D+00
                  0.126725D+01           0.500000D+00
            S    1   1.00
                  0.529910D+00           1.0000000
            S    1   1.00
                  0.114975D+00           1.0000000
            S    1   1.00
                  0.412561D-01           1.0000000
            P    8   1.00
                  0.358102D+04           0.565757D-03
                  0.848292D+03           0.489889D-02
                  0.273688D+03           0.265140D-01
                  0.104363D+03           0.991575D-01
                  0.436075D+02           0.271987D+00
                  0.191676D+02           0.489957D+00
                  0.874351D+01           0.500000D+00
                  0.390871D+01           0.202051D+00
            P    4   1.00
                  0.218289D+02          -0.180360D-01
                  0.312794D+01           0.261197D+00
                  0.146827D+01           0.500000D+00
                  0.677511D+00           0.416808D+00
            P    1   1.00
                  0.293525D+00           1.0000000
            P    1   1.00
                  0.840000D-01           1.0000000
            D    6   1.00
                  0.101232D+03           0.312157D-02
                  0.300289D+02           0.233383D-01
                  0.111079D+02           0.973155D-01
                  0.439511D+01           0.263664D+00
                  0.184617D+01           0.439787D+00
                  0.757898D+00           0.500000D+00
            D    1   1.00
                  0.294371D+00           1.0000000
            D    1   1.00
                  0.102984D+00           1.0000000
            F    1   1.00
                  0.266900D+01           1.0000000
            F    1   1.00
                  0.593000D+00           1.0000000
            G    1   1.00
                  0.135200D+01           1.0000000
            ****
            -Cr     0
            S    10   1.00
                  0.105726D+07           0.560980D-04
                  0.158400D+06           0.435853D-03
                  0.360545D+05           0.228671D-02
                  0.102120D+05           0.957928D-02
                  0.333073D+04           0.340199D-01
                  0.120199D+04           0.103357D+00
                  0.469092D+03           0.256563D+00
                  0.191557D+03           0.482556D+00
                  0.813769D+02           0.500000D+00
                  0.355118D+02           0.180991D+00
            S    4   1.00
                  0.286443D+03          -0.215692D-01
                  0.872104D+02          -0.104016D+00
                  0.135063D+02           0.500000D+00
                  0.560535D+01           0.498145D+00
            S    2   1.00
                  0.878991D+01          -0.153695D+00
                  0.142072D+01           0.500000D+00
            S    1   1.00
                  0.591660D+00           1.0000000
            S    1   1.00
                  0.126372D+00           1.0000000
            S    1   1.00
                  0.444357D-01           1.0000000
            P    8   1.00
                  0.397317D+04           0.553435D-03
                  0.941238D+03           0.479650D-02
                  0.303848D+03           0.259971D-01
                  0.115929D+03           0.977018D-01
                  0.484844D+02           0.269444D+00
                  0.213499D+02           0.488296D+00
                  0.975953D+01           0.500000D+00
                  0.437471D+01           0.201543D+00
            P    4   1.00
                  0.241931D+02          -0.184906D-01
                  0.352725D+01           0.263185D+00
                  0.165617D+01           0.500000D+00
                  0.764191D+00           0.416508D+00
            P    1   1.00
                  0.330772D+00           1.0000000
            P    1   1.00
                  0.930000D-01           1.0000000
            D    6   1.00
                  0.114289D+03           0.317328D-02
                  0.339278D+02           0.239943D-01
                  0.125902D+02           0.100415D+00
                  0.501718D+01           0.270478D+00
                  0.211639D+01           0.446297D+00
                  0.871255D+00           0.500000D+00
            D    1   1.00
                  0.338209D+00           1.0000000
            D    1   1.00
                  0.117487D+00           1.0000000
            F    1   1.00
                  0.293600D+01           1.0000000
            F    1   1.00
                  0.652000D+00           1.0000000
            G    1   1.00
                  0.148800D+01           1.0000000
            ****
            -Mn     0
            S    10   1.00
                  0.115018D+07           0.559207D-04
                  0.172325D+06           0.434470D-03
                  0.392240D+05           0.227946D-02
                  0.111098D+05           0.954893D-02
                  0.362369D+04           0.339148D-01
                  0.130769D+04           0.103091D+00
                  0.510307D+03           0.256150D+00
                  0.208359D+03           0.482375D+00
                  0.885419D+02           0.500000D+00
                  0.386850D+02           0.180982D+00
            S    4   1.00
                  0.311658D+03          -0.216548D-01
                  0.949940D+02          -0.104503D+00
                  0.148006D+02           0.500000D+00
                  0.617225D+01           0.495149D+00
            S    2   1.00
                  0.974433D+01          -0.155007D+00
                  0.158024D+01           0.500000D+00
            S    1   1.00
                  0.654789D+00           1.0000000
            S    1   1.00
                  0.136937D+00           1.0000000
            S    1   1.00
                  0.473109D-01           1.0000000
            P    8   1.00
                  0.439140D+04           0.541101D-03
                  0.104032D+04           0.469413D-02
                  0.335950D+03           0.254887D-01
                  0.128203D+03           0.962905D-01
                  0.536454D+02           0.267003D+00
                  0.236580D+02           0.486571D+00
                  0.108336D+02           0.500000D+00
                  0.486679D+01           0.201168D+00
            P    4   1.00
                  0.266735D+02          -0.189516D-01
                  0.395275D+01           0.264587D+00
                  0.185875D+01           0.500000D+00
                  0.858583D+00           0.419292D+00
            P    1   1.00
                  0.371174D+00           1.0000000
            P    1   1.00
                  0.104000D+00           1.0000000
            D    6   1.00
                  0.128837D+03           0.317729D-02
                  0.382797D+02           0.242919D-01
                  0.142498D+02           0.102147D+00
                  0.571587D+01           0.274670D+00
                  0.242249D+01           0.450782D+00
                  0.100149D+01           0.500000D+00
            D    1   1.00
                  0.390690D+00           1.0000000
            D    1   1.00
                  0.136262D+00           1.0000000
            F    1   1.00
                  0.323000D+01           1.0000000
            F    1   1.00
                  0.718000D+00           1.0000000
            G    1   1.00
                  0.163600D+01           1.0000000
            ****
            -Fe     0
            S    10   1.00
                  0.124866D+07           0.556470D-04
                  0.187039D+06           0.432457D-03
                  0.425683D+05           0.226917D-02
                  0.120562D+05           0.950693D-02
                  0.393233D+04           0.337679D-01
                  0.141914D+04           0.102683D+00
                  0.553832D+03           0.255373D+00
                  0.226129D+03           0.481641D+00
                  0.961317D+02           0.500000D+00
                  0.420443D+02           0.181434D+00
            S    4   1.00
                  0.337941D+03          -0.217335D-01
                  0.103114D+03          -0.104953D+00
                  0.161551D+02           0.500000D+00
                  0.676652D+01           0.492509D+00
            S    2   1.00
                  0.107404D+02          -0.156319D+00
                  0.174932D+01           0.500000D+00
            S    1   1.00
                  0.723737D+00           1.0000000
            S    1   1.00
                  0.147147D+00           1.0000000
            S    1   1.00
                  0.503270D-01           1.0000000
            P    8   1.00
                  0.483551D+04           0.528807D-03
                  0.114553D+04           0.459172D-02
                  0.370070D+03           0.249702D-01
                  0.141266D+03           0.947891D-01
                  0.591370D+02           0.264344D+00
                  0.261088D+02           0.484617D+00
                  0.119731D+02           0.500000D+00
                  0.538806D+01           0.201124D+00
            P    4   1.00
                  0.293038D+02          -0.192403D-01
                  0.439039D+01           0.266421D+00
                  0.206040D+01           0.500000D+00
                  0.952685D+00           0.415150D+00
            P    1   1.00
                  0.412454D+00           1.0000000
            P    1   1.00
                  0.115000D+00           1.0000000
            D    6   1.00
                  0.138418D+03           0.345330D-02
                  0.411431D+02           0.263915D-01
                  0.153511D+02           0.109884D+00
                  0.618032D+01           0.290275D+00
                  0.261339D+01           0.463287D+00
                  0.107371D+01           0.500000D+00
            D    1   1.00
                  0.413063D+00           1.0000000
            D    1   1.00
                  0.140918D+00           1.0000000
            F    1   1.00
                  0.355300D+01           1.0000000
            F    1   1.00
                  0.789000D+00           1.0000000
            G    1   1.00
                  0.180000D+01           1.0000000
            ****
            -Co     0
            S    10   1.00
                  0.135034D+07           0.554029D-04
                  0.202328D+06           0.430403D-03
                  0.460566D+05           0.225792D-02
                  0.130467D+05           0.945738D-02
                  0.425628D+04           0.335887D-01
                  0.153630D+04           0.102168D+00
                  0.599631D+03           0.254357D+00
                  0.244815D+03           0.480628D+00
                  0.104104D+03           0.500000D+00
                  0.455673D+02           0.182026D+00
            S    4   1.00
                  0.365374D+03          -0.217931D-01
                  0.111588D+03          -0.105338D+00
                  0.175673D+02           0.500000D+00
                  0.738565D+01           0.489865D+00
            S    2   1.00
                  0.117836D+02          -0.157480D+00
                  0.192539D+01           0.500000D+00
            S    1   1.00
                  0.794368D+00           1.0000000
            S    1   1.00
                  0.156782D+00           1.0000000
            S    1   1.00
                  0.529934D-01           1.0000000
            P    8   1.00
                  0.527281D+04           0.524213D-03
                  0.124910D+04           0.455457D-02
                  0.403649D+03           0.247960D-01
                  0.154114D+03           0.944291D-01
                  0.645609D+02           0.264055D+00
                  0.285430D+02           0.485191D+00
                  0.131137D+02           0.500000D+00
                  0.591573D+01           0.200096D+00
            P    4   1.00
                  0.320557D+02          -0.194450D-01
                  0.484854D+01           0.267567D+00
                  0.226800D+01           0.500000D+00
                  0.104658D+01           0.411051D+00
            P    1   1.00
                  0.452824D+00           1.0000000
            P    1   1.00
                  0.127000D+00           1.0000000
            D    6   1.00
                  0.153053D+03           0.349174D-02
                  0.455196D+02           0.269024D-01
                  0.170055D+02           0.112613D+00
                  0.687149D+01           0.295757D+00
                  0.291149D+01           0.467814D+00
                  0.119738D+01           0.500000D+00
            D    1   1.00
                  0.460362D+00           1.0000000
            D    1   1.00
                  0.156851D+00           1.0000000
            F    1   1.00
                  0.390800D+01           1.0000000
            F    1   1.00
                  0.868000D+00           1.0000000
            G    1   1.00
                  0.198000D+01           1.0000000
            ****
            -Ni     0
            S    10   1.00
                  0.146257D+07           0.548342D-04
                  0.219107D+06           0.426081D-03
                  0.498724D+05           0.223546D-02
                  0.141259D+05           0.936615D-02
                  0.460735D+04           0.332852D-01
                  0.166244D+04           0.101365D+00
                  0.648606D+03           0.252855D+00
                  0.264689D+03           0.479041D+00
                  0.112561D+03           0.500000D+00
                  0.492916D+02           0.183007D+00
            S    4   1.00
                  0.393899D+03          -0.218494D-01
                  0.120405D+03          -0.105702D+00
                  0.190399D+02           0.500000D+00
                  0.803151D+01           0.487556D+00
            S    2   1.00
                  0.128736D+02          -0.158461D+00
                  0.210873D+01           0.500000D+00
            S    1   1.00
                  0.867388D+00           1.0000000
            S    1   1.00
                  0.166834D+00           1.0000000
            S    1   1.00
                  0.557165D-01           1.0000000
            P    8   1.00
                  0.574804D+04           0.515949D-03
                  0.136168D+04           0.448607D-02
                  0.440134D+03           0.244558D-01
                  0.168074D+03           0.934792D-01
                  0.704369D+02           0.262488D+00
                  0.311704D+02           0.484289D+00
                  0.143366D+02           0.500000D+00
                  0.647618D+01           0.199575D+00
            P    4   1.00
                  0.349196D+02          -0.196357D-01
                  0.533044D+01           0.268238D+00
                  0.248674D+01           0.500000D+00
                  0.114423D+01           0.408392D+00
            P    1   1.00
                  0.494088D+00           1.0000000
            P    1   1.00
                  0.139000D+00           1.0000000
            D    6   1.00
                  0.167506D+03           0.355811D-02
                  0.498486D+02           0.275655D-01
                  0.186562D+02           0.115521D+00
                  0.756638D+01           0.301390D+00
                  0.321070D+01           0.472193D+00
                  0.132072D+01           0.500000D+00
            D    1   1.00
                  0.506898D+00           1.0000000
            D    1   1.00
                  0.171943D+00           1.0000000
            F    1   1.00
                  0.429900D+01           1.0000000
            F    1   1.00
                  0.955000D+00           1.0000000
            G    1   1.00
                  0.217800D+01           1.0000000
            ****
            -Cu     0
            S    10   1.00
                  0.157060D+07           0.547769D-04
                  0.235279D+06           0.425676D-03
                  0.535493D+05           0.223357D-02
                  0.151669D+05           0.935835D-02
                  0.494699D+04           0.332567D-01
                  0.178518D+04           0.101280D+00
                  0.696614D+03           0.252698D+00
                  0.284321D+03           0.479028D+00
                  0.120953D+03           0.500000D+00
                  0.530174D+02           0.182890D+00
            S    4   1.00
                  0.423595D+03          -0.218890D-01
                  0.129580D+03          -0.106016D+00
                  0.205697D+02           0.500000D+00
                  0.870273D+01           0.485265D+00
            S    2   1.00
                  0.140108D+02          -0.159251D+00
                  0.229919D+01           0.500000D+00
            S    1   1.00
                  0.942808D+00           1.0000000
            S    1   1.00
                  0.177390D+00           1.0000000
            S    1   1.00
                  0.585297D-01           1.0000000
            P    8   1.00
                  0.623502D+04           0.509979D-03
                  0.147707D+04           0.443656D-02
                  0.477562D+03           0.242106D-01
                  0.182396D+03           0.928335D-01
                  0.764757D+02           0.261491D+00
                  0.338786D+02           0.483870D+00
                  0.156002D+02           0.500000D+00
                  0.705689D+01           0.198917D+00
            P    4   1.00
                  0.379007D+02          -0.198123D-01
                  0.583427D+01           0.268826D+00
                  0.271517D+01           0.500000D+00
                  0.124587D+01           0.406308D+00
            P    1   1.00
                  0.536810D+00           1.0000000
            P    1   1.00
                  0.151000D+00           1.0000000
            D    6   1.00
                  0.182163D+03           0.363157D-02
                  0.542407D+02           0.282563D-01
                  0.203359D+02           0.118381D+00
                  0.827487D+01           0.306851D+00
                  0.351445D+01           0.476323D+00
                  0.144484D+01           0.500000D+00
            D    1   1.00
                  0.553001D+00           1.0000000
            D    1   1.00
                  0.186360D+00           1.0000000
            F    1   1.00
                  0.472900D+01           1.0000000
            F    1   1.00
                  0.105100D+01           1.0000000
            G    1   1.00
                  0.239600D+01           1.0000000
            ****
            -Zn     0
            S    10   1.00
                  0.167955D+07           0.548640D-04
                  0.251608D+06           0.426330D-03
                  0.572671D+05           0.223692D-02
                  0.162205D+05           0.937168D-02
                  0.529132D+04           0.332949D-01
                  0.190992D+04           0.101364D+00
                  0.745576D+03           0.252816D+00
                  0.304424D+03           0.479280D+00
                  0.129568D+03           0.500000D+00
                  0.568519D+02           0.182608D+00
            S    4   1.00
                  0.454432D+03          -0.219166D-01
                  0.139109D+03          -0.106281D+00
                  0.221566D+02           0.500000D+00
                  0.939858D+01           0.482945D+00
            S    2   1.00
                  0.151959D+02          -0.159820D+00
                  0.249568D+01           0.500000D+00
            S    1   1.00
                  0.101945D+01           1.0000000
            S    1   1.00
                  0.187503D+00           1.0000000
            S    1   1.00
                  0.611397D-01           1.0000000
            P    8   1.00
                  0.674485D+04           0.503986D-03
                  0.159782D+04           0.438698D-02
                  0.516693D+03           0.239676D-01
                  0.197359D+03           0.921783D-01
                  0.827869D+02           0.260399D+00
                  0.367118D+02           0.483241D+00
                  0.169220D+02           0.500000D+00
                  0.766344D+01           0.198387D+00
            P    4   1.00
                  0.410050D+02          -0.199873D-01
                  0.636232D+01           0.269132D+00
                  0.295533D+01           0.500000D+00
                  0.135262D+01           0.405461D+00
            P    1   1.00
                  0.581420D+00           1.0000000
            P    1   1.00
                  0.164000D+00           1.0000000
            D    6   1.00
                  0.197700D+03           0.368771D-02
                  0.588986D+02           0.288172D-01
                  0.221214D+02           0.120697D+00
                  0.903018D+01           0.311339D+00
                  0.383994D+01           0.479743D+00
                  0.157921D+01           0.500000D+00
            D    1   1.00
                  0.604323D+00           1.0000000
            D    1   1.00
                  0.203408D+00           1.0000000
            F    1   1.00
                  0.520100D+01           1.0000000
            F    1   1.00
                  0.115600D+01           1.0000000
            G    1   1.00
                  0.263500D+01           1.0000000
            ****
            -Ga     0
            S    10   1.00
                  0.180377D+07           0.544142D-04
                  0.270222D+06           0.422822D-03
                  0.615028D+05           0.221869D-02
                  0.174191D+05           0.929709D-02
                  0.568152D+04           0.330454D-01
                  0.205030D+04           0.100693D+00
                  0.800183D+03           0.251553D+00
                  0.326609D+03           0.477928D+00
                  0.139056D+03           0.500000D+00
                  0.610653D+02           0.183865D+00
            S    4   1.00
                  0.485652D+03          -0.220764D-01
                  0.148805D+03          -0.106977D+00
                  0.238485D+02           0.500000D+00
                  0.101616D+02           0.484896D+00
            S    2   1.00
                  0.163918D+02          -0.161716D+00
                  0.272042D+01           0.500000D+00
            S    1   1.00
                  0.113882D+01           1.0000000
            S    1   1.00
                  0.240293D+00           1.0000000
            S    1   1.00
                  0.825337D-01           1.0000000
            P    8   1.00
                  0.712868D+04           0.522814D-03
                  0.168885D+04           0.454957D-02
                  0.546151D+03           0.248554D-01
                  0.208567D+03           0.954974D-01
                  0.875498D+02           0.268536D+00
                  0.388278D+02           0.494667D+00
                  0.179241D+02           0.500000D+00
                  0.814015D+01           0.192455D+00
            P    4   1.00
                  0.448681D+02          -0.179633D-01
                  0.667977D+01           0.270281D+00
                  0.291189D+01           0.500000D+00
                  0.122447D+01           0.332005D+00
            P    1   1.00
                  0.429221D+00           1.0000000
            P    1   1.00
                  0.143750D+00           1.0000000
            P    1   1.00
                  0.438304D-01           1.0000000
            D    7   1.00
                  0.239609D+03           0.299033D-02
                  0.714194D+02           0.241649D-01
                  0.268244D+02           0.106267D+00
                  0.110349D+02           0.284225D+00
                  0.477843D+01           0.462233D+00
                  0.202079D+01           0.500000D+00
                  0.807299D+00           0.370507D+00
            D    1   1.00
                  0.290639D+00           1.0000000
            D    1   1.00
                  0.108000D+00           1.0000000
            F    1   1.00
                  0.360000D+00           1.0000000
            ****
            -Ge     0
            S    10   1.00
                  0.192479D+07           0.543249D-04
                  0.288379D+06           0.422068D-03
                  0.656421D+05           0.221441D-02
                  0.185937D+05           0.927777D-02
                  0.606534D+04           0.329741D-01
                  0.218913D+04           0.100485D+00
                  0.854481D+03           0.251168D+00
                  0.348782D+03           0.477622D+00
                  0.148576D+03           0.500000D+00
                  0.653223D+02           0.184433D+00
            S    4   1.00
                  0.517931D+03          -0.222239D-01
                  0.158832D+03          -0.107627D+00
                  0.256016D+02           0.500000D+00
                  0.109544D+02           0.486731D+00
            S    2   1.00
                  0.176323D+02          -0.162908D+00
                  0.295358D+01           0.500000D+00
            S    1   1.00
                  0.126565D+01           1.0000000
            S    1   1.00
                  0.296512D+00           1.0000000
            S    1   1.00
                  0.104203D+00           1.0000000
            P    8   1.00
                  0.770372D+04           0.512085D-03
                  0.182490D+04           0.446003D-02
                  0.590190D+03           0.244031D-01
                  0.225385D+03           0.941157D-01
                  0.946204D+02           0.265870D+00
                  0.419930D+02           0.491995D+00
                  0.194086D+02           0.500000D+00
                  0.882544D+01           0.193579D+00
            P    4   1.00
                  0.482340D+02          -0.181087D-01
                  0.724673D+01           0.269211D+00
                  0.316909D+01           0.500000D+00
                  0.134377D+01           0.324990D+00
            P    1   1.00
                  0.462196D+00           1.0000000
            P    1   1.00
                  0.168692D+00           1.0000000
            P    1   1.00
                  0.561531D-01           1.0000000
            D    7   1.00
                  0.279765D+03           0.259701D-02
                  0.834083D+02           0.214712D-01
                  0.313685D+02           0.972488D-01
                  0.130112D+02           0.265967D+00
                  0.571117D+01           0.449634D+00
                  0.246465D+01           0.500000D+00
                  0.101479D+01           0.365636D+00
            D    1   1.00
                  0.381497D+00           1.0000000
            D    1   1.00
                  0.141000D+00           1.0000000
            F    1   1.00
                  0.400000D+00           1.0000000
            ****
            -As     0
            S    10   1.00
                  0.205537D+07           0.540253D-04
                  0.307926D+06           0.419788D-03
                  0.700895D+05           0.220252D-02
                  0.198519D+05           0.923006D-02
                  0.647476D+04           0.328171D-01
                  0.233646D+04           0.100072D+00
                  0.911858D+03           0.250384D+00
                  0.372169D+03           0.476745D+00
                  0.158615D+03           0.500000D+00
                  0.697992D+02           0.185402D+00
            S    4   1.00
                  0.551210D+03          -0.223679D-01
                  0.169177D+03          -0.108256D+00
                  0.274187D+02           0.500000D+00
                  0.117781D+02           0.488621D+00
            S    2   1.00
                  0.189175D+02          -0.163524D+00
                  0.319589D+01           0.500000D+00
            S    1   1.00
                  0.139887D+01           1.0000000
            S    1   1.00
                  0.355929D+00           1.0000000
            S    1   1.00
                  0.126310D+00           1.0000000
            P    8   1.00
                  0.832398D+04           0.498804D-03
                  0.197182D+04           0.434758D-02
                  0.637888D+03           0.238145D-01
                  0.243661D+03           0.921917D-01
                  0.102323D+03           0.261788D+00
                  0.454593D+02           0.487224D+00
                  0.210416D+02           0.500000D+00
                  0.958039D+01           0.196006D+00
            P    4   1.00
                  0.516292D+02          -0.184035D-01
                  0.786734D+01           0.267341D+00
                  0.347359D+01           0.500000D+00
                  0.149747D+01           0.323502D+00
            P    1   1.00
                  0.530912D+00           1.0000000
            P    1   1.00
                  0.202185D+00           1.0000000
            P    1   1.00
                  0.700296D-01           1.0000000
            D    7   1.00
                  0.325688D+03           0.225051D-02
                  0.971148D+02           0.190010D-01
                  0.365964D+02           0.883065D-01
                  0.153229D+02           0.246702D+00
                  0.681442D+01           0.434687D+00
                  0.299648D+01           0.500000D+00
                  0.126665D+01           0.368205D+00
            D    1   1.00
                  0.492253D+00           1.0000000
            D    1   1.00
                  0.168000D+00           1.0000000
            F    1   1.00
                  0.440000D+00           1.0000000
            ****
            -Se     0
            S    10   1.00
                  0.218776D+07           0.538090D-04
                  0.327767D+06           0.418068D-03
                  0.746093D+05           0.219340D-02
                  0.211337D+05           0.919068D-02
                  0.689401D+04           0.326703D-01
                  0.248852D+04           0.996050D-01
                  0.971570D+03           0.249373D+00
                  0.396576D+03           0.475616D+00
                  0.169096D+03           0.500000D+00
                  0.744719D+02           0.186553D+00
            S    4   1.00
                  0.585490D+03          -0.225128D-01
                  0.179839D+03          -0.108887D+00
                  0.293027D+02           0.500000D+00
                  0.126365D+02           0.490730D+00
            S    2   1.00
                  0.202416D+02          -0.164470D+00
                  0.345425D+01           0.500000D+00
            S    1   1.00
                  0.154391D+01           1.0000000
            S    1   1.00
                  0.420486D+00           1.0000000
            S    1   1.00
                  0.150492D+00           1.0000000
            P    8   1.00
                  0.894031D+04           0.490134D-03
                  0.211813D+04           0.427269D-02
                  0.685440D+03           0.234241D-01
                  0.261906D+03           0.909124D-01
                  0.110066D+03           0.258938D+00
                  0.489739D+02           0.483639D+00
                  0.227145D+02           0.500000D+00
                  0.103630D+02           0.198184D+00
            P    4   1.00
                  0.551463D+02          -0.186851D-01
                  0.851433D+01           0.265642D+00
                  0.379585D+01           0.500000D+00
                  0.166298D+01           0.321211D+00
            P    1   1.00
                  0.616266D+00           1.0000000
            P    1   1.00
                  0.234323D+00           1.0000000
            P    1   1.00
                  0.801968D-01           1.0000000
            D    7   1.00
                  0.359017D+03           0.216572D-02
                  0.107122D+03           0.184240D-01
                  0.404500D+02           0.863477D-01
                  0.170105D+02           0.243244D+00
                  0.760194D+01           0.433404D+00
                  0.337047D+01           0.500000D+00
                  0.144400D+01           0.355242D+00
            D    1   1.00
                  0.573734D+00           1.0000000
            D    1   1.00
                  0.214000D+00           1.0000000
            F    1   1.00
                  0.480000D+00           1.0000000
            ****
            -Br     0
            S    10   1.00
                  0.233625D+07           0.532336D-04
                  0.349961D+06           0.413715D-03
                  0.796444D+05           0.217123D-02
                  0.225555D+05           0.910109D-02
                  0.735546D+04           0.323789D-01
                  0.265352D+04           0.988755D-01
                  0.103517D+04           0.248138D+00
                  0.422205D+03           0.474328D+00
                  0.180035D+03           0.500000D+00
                  0.793308D+02           0.187769D+00
            S    4   1.00
                  0.620834D+03          -0.226511D-01
                  0.190829D+03          -0.109497D+00
                  0.312505D+02           0.500000D+00
                  0.135270D+02           0.492812D+00
            S    2   1.00
                  0.216097D+02          -0.165418D+00
                  0.372566D+01           0.500000D+00
            S    1   1.00
                  0.169770D+01           1.0000000
            S    1   1.00
                  0.489332D+00           1.0000000
            S    1   1.00
                  0.175712D+00           1.0000000
            P    8   1.00
                  0.960829D+04           0.478974D-03
                  0.227618D+04           0.417853D-02
                  0.736723D+03           0.229315D-01
                  0.281579D+03           0.892653D-01
                  0.118395D+03           0.255288D+00
                  0.527481D+02           0.479074D+00
                  0.245098D+02           0.500000D+00
                  0.112009D+02           0.200944D+00
            P    4   1.00
                  0.587849D+02          -0.189674D-01
                  0.918962D+01           0.264104D+00
                  0.413895D+01           0.500000D+00
                  0.184225D+01           0.319316D+00
            P    1   1.00
                  0.713862D+00           1.0000000
            P    1   1.00
                  0.274232D+00           1.0000000
            P    1   1.00
                  0.944411D-01           1.0000000
            D    7   1.00
                  0.398470D+03           0.204066D-02
                  0.118967D+03           0.175171D-01
                  0.450197D+02           0.829708D-01
                  0.190320D+02           0.236284D+00
                  0.855686D+01           0.428468D+00
                  0.382950D+01           0.500000D+00
                  0.166291D+01           0.349360D+00
            D    1   1.00
                  0.672953D+00           1.0000000
            D    1   1.00
                  0.252000D+00           1.0000000
            F    1   1.00
                  0.530000D+00           1.0000000
            ****
            -Kr     0
            S    10   1.00
                  0.247043D+07           0.533022D-04
                  0.370086D+06           0.414210D-03
                  0.842215D+05           0.217399D-02
                  0.238528D+05           0.911103D-02
                  0.778023D+04           0.324007D-01
                  0.280777D+04           0.988948D-01
                  0.109590D+04           0.248077D+00
                  0.447201D+03           0.474231D+00
                  0.190853D+03           0.500000D+00
                  0.842031D+02           0.188353D+00
            S    4   1.00
                  0.657163D+03          -0.227918D-01
                  0.202133D+03          -0.110111D+00
                  0.332655D+02           0.500000D+00
                  0.144521D+02           0.495084D+00
            S    2   1.00
                  0.230223D+02          -0.166413D+00
                  0.401050D+01           0.500000D+00
            S    1   1.00
                  0.186066D+01           1.0000000
            S    1   1.00
                  0.562601D+00           1.0000000
            S    1   1.00
                  0.201932D+00           1.0000000
            P    8   1.00
                  0.103514D+05           0.463594D-03
                  0.245206D+04           0.404742D-02
                  0.793771D+03           0.222448D-01
                  0.303400D+03           0.869601D-01
                  0.127577D+03           0.250202D+00
                  0.568830D+02           0.472890D+00
                  0.264596D+02           0.500000D+00
                  0.121000D+02           0.204279D+00
            P    4   1.00
                  0.625655D+02          -0.192030D-01
                  0.988490D+01           0.262852D+00
                  0.449327D+01           0.500000D+00
                  0.202675D+01           0.316279D+00
            P    1   1.00
                  0.815863D+00           1.0000000
            P    1   1.00
                  0.316534D+00           1.0000000
            P    1   1.00
                  0.109885D+00           1.0000000
            D    7   1.00
                  0.456070D+03           0.179481D-02
                  0.136255D+03           0.156300D-01
                  0.517208D+02           0.753276D-01
                  0.220644D+02           0.218726D+00
                  0.100193D+02           0.412632D+00
                  0.454710D+01           0.500000D+00
                  0.201258D+01           0.361756D+00
            D    1   1.00
                  0.830961D+00           1.0000000
            D    1   1.00
                  0.308000D+00           1.0000000
            F    1   1.00
                  0.590000D+00           1.0000000
            ****
            
 Initial command:
 /opt/local/chem/gaussian/g16.b01/g16/l1.exe "/home/irikura/scratch/gau/Gau-618408.inp" -scrdir="/home/irikura/scratch/gau/"
 Entering Link 1 = /opt/local/chem/gaussian/g16.b01/g16/l1.exe PID=    618409.
  
 Copyright (c) 1988-2017, Gaussian, Inc.  All Rights Reserved.
  
 This is part of the Gaussian(R) 16 program.  It is based on
 the Gaussian(R) 09 system (copyright 2009, Gaussian, Inc.),
 the Gaussian(R) 03 system (copyright 2003, Gaussian, Inc.),
 the Gaussian(R) 98 system (copyright 1998, Gaussian, Inc.),
 the Gaussian(R) 94 system (copyright 1995, Gaussian, Inc.),
 the Gaussian 92(TM) system (copyright 1992, Gaussian, Inc.),
 the Gaussian 90(TM) system (copyright 1990, Gaussian, Inc.),
 the Gaussian 88(TM) system (copyright 1988, Gaussian, Inc.),
 the Gaussian 86(TM) system (copyright 1986, Carnegie Mellon
 University), and the Gaussian 82(TM) system (copyright 1983,
 Carnegie Mellon University). Gaussian is a federally registered
 trademark of Gaussian, Inc.
  
 This software contains proprietary and confidential information,
 including trade secrets, belonging to Gaussian, Inc.
  
 This software is provided under written license and may be
 used, copied, transmitted, or stored only in accord with that
 written license.
  
 The following legend is applicable only to US Government
 contracts under FAR:
  
                    RESTRICTED RIGHTS LEGEND
  
 Use, reproduction and disclosure by the US Government is
 subject to restrictions as set forth in subparagraphs (a)
 and (c) of the Commercial Computer Software - Restricted
 Rights clause in FAR 52.227-19.
  
 Gaussian, Inc.
 340 Quinnipiac St., Bldg. 40, Wallingford CT 06492
  
  
 ---------------------------------------------------------------
 Warning -- This program may not be used in any manner that
 competes with the business of Gaussian, Inc. or will provide
 assistance to any competitor of Gaussian, Inc.  The licensee
 of this program is prohibited from giving any competitor of
 Gaussian, Inc. access to this program.  By using this program,
 the user acknowledges that Gaussian, Inc. is engaged in the
 business of creating and licensing software in the field of
 computational chemistry and represents and warrants to the
 licensee that it is not a competitor of Gaussian, Inc. and that
 it will not use this program in any manner prohibited above.
 ---------------------------------------------------------------
  

 Cite this work as:
 Gaussian 16, Revision B.01,
 M. J. Frisch, G. W. Trucks, H. B. Schlegel, G. E. Scuseria, 
 M. A. Robb, J. R. Cheeseman, G. Scalmani, V. Barone, 
 G. A. Petersson, H. Nakatsuji, X. Li, M. Caricato, A. V. Marenich, 
 J. Bloino, B. G. Janesko, R. Gomperts, B. Mennucci, H. P. Hratchian, 
 J. V. Ortiz, A. F. Izmaylov, J. L. Sonnenberg, D. Williams-Young, 
 F. Ding, F. Lipparini, F. Egidi, J. Goings, B. Peng, A. Petrone, 
 T. Henderson, D. Ranasinghe, V. G. Zakrzewski, J. Gao, N. Rega, 
 G. Zheng, W. Liang, M. Hada, M. Ehara, K. Toyota, R. Fukuda, 
 J. Hasegawa, M. Ishida, T. Nakajima, Y. Honda, O. Kitao, H. Nakai, 
 T. Vreven, K. Throssell, J. A. Montgomery, Jr., J. E. Peralta, 
 F. Ogliaro, M. J. Bearpark, J. J. Heyd, E. N. Brothers, K. N. Kudin, 
 V. N. Staroverov, T. A. Keith, R. Kobayashi, J. Normand, 
 K. Raghavachari, A. P. Rendell, J. C. Burant, S. S. Iyengar, 
 J. Tomasi, M. Cossi, J. M. Millam, M. Klene, C. Adamo, R. Cammi, 
 J. W. Ochterski, R. L. Martin, K. Morokuma, O. Farkas, 
 J. B. Foresman, and D. J. Fox, Gaussian, Inc., Wallingford CT, 2016.
 
 ******************************************
 Gaussian 16:  ES64L-G16RevB.01 20-Dec-2017
                 6-Sep-2022 
 ******************************************
 %mem=500mw
 %nprocs=6
 Will use up to    6 processors via shared memory.
 --------------------
 # b3lyp/gen opt freq
 --------------------
 1/18=20,19=15,26=3,38=1/1,3;
 2/9=110,12=2,17=6,18=5,40=1/2;
 3/5=7,11=2,25=1,30=1,71=1,74=-5/1,2,3;
 4//1;
 5/5=2,38=5/2;
 6/7=2,8=2,9=2,10=2,28=1/1;
 7//1,2,3,16;
 1/18=20,19=15,26=3/3(2);
 2/9=110/2;
 99//99;
 2/9=110/2;
 3/5=7,6=1,11=2,25=1,30=1,71=1,74=-5,82=7/1,2,3;
 4/5=5,16=3,69=1/1;
 5/5=2,38=5/2;
 7//1,2,3,16;
 1/18=20,19=15,26=3/3(-5);
 2/9=110/2;
[...]
 13993414,0.,0.00210677,-0.00619817,0.,0.03563924,0.01089545,0.,-0.0007
 0957,0.00190944,0.,-0.03231453,0.72453088,0.00632796,0.,0.,0.00734536,
 0.,0.,0.00028649,0.,0.,-0.00664930,0.,0.,-0.00109059,0.,0.,-0.06273590
 ,0.,0.,-0.00000763,0.,0.,0.13523395,0.,-0.00198348,-0.00542361,0.,-0.0
 5064421,0.01546154,0.,-0.00205818,0.00052455,0.,0.00006643,0.01122933,
 0.,-0.00197893,0.00014520,0.,-0.20924678,0.12821301,0.,0.00028025,-0.0
 0054782,0.,0.72918722,0.,-0.00490486,0.00537901,0.,0.06208980,0.050678
 11,0.,0.00112104,-0.00214028,0.,0.01428876,-0.06493910,0.,-0.00199496,
 0.00030288,0.,0.06320067,-0.24061660,0.,-0.00130654,-0.00040209,0.,0.0
 1631198,0.64748381,0.00632796,0.,0.,0.00028649,0.,0.,0.00734536,0.,0.,
 -0.00109059,0.,0.,-0.00664930,0.,0.,-0.00000763,0.,0.,-0.06273590,0.,0
 .,-0.00001841,0.,0.,0.13523395,0.,-0.00198348,0.00542361,0.,-0.0020581
 8,-0.00052455,0.,-0.05064421,-0.01546154,0.,-0.00197893,-0.00014520,0.
 ,0.00006643,-0.01122933,0.,0.00028025,0.00054782,0.,-0.20924678,-0.128
 21301,0.,-0.00065429,0.00050804,0.,0.72918722,0.,0.00490486,0.00537901
 ,0.,-0.00112104,-0.00214028,0.,-0.06208980,0.05067811,0.,0.00199496,0.
 00030288,0.,-0.01428876,-0.06493910,0.,0.00130654,-0.00040209,0.,-0.06
 320067,-0.24061660,0.,-0.00050804,0.00098529,0.,-0.01631198,0.64748381
 ,-0.00100365,0.,0.,-0.00588453,0.,0.,-0.00008626,0.,0.,0.00729965,0.,0
 .,0.00657790,0.,0.,0.00782240,0.,0.,-0.00034140,0.,0.,-0.06482772,0.,0
 .,0.00014623,0.,0.,0.13599083,0.,0.00075193,-0.00340150,0.,-0.03684836
 ,-0.03093778,0.,-0.00234952,0.00370781,0.,-0.05202213,0.06016072,0.,0.
 00704384,0.00133363,0.,0.05717097,0.00108627,0.,0.00132520,0.00037334,
 0.,-0.14716047,-0.02400022,0.,-0.00059601,-0.00064300,0.,0.68867373,0.
 ,0.00080668,-0.00393512,0.,-0.03502344,-0.02820242,0.,-0.00087783,0.00
 221464,0.,0.01402075,0.05117432,0.,0.00513505,-0.00531653,0.,0.0480987
 1,-0.05376627,0.,0.00135008,-0.00026488,0.,-0.08963752,-0.29993221,0.,
 -0.00093706,-0.00076492,0.,-0.04340967,0.69300024,-0.00100365,0.,0.,-0
 .00008626,0.,0.,-0.00588453,0.,0.,0.00657790,0.,0.,0.00729965,0.,0.,-0
 .00034140,0.,0.,0.00782240,0.,0.,0.00014623,0.,0.,-0.06482772,0.,0.,-0
 .00014692,0.,0.,0.13599083,0.,0.00075193,0.00340150,0.,-0.00234952,-0.
 00370781,0.,-0.03684836,0.03093778,0.,0.00704384,-0.00133363,0.,-0.052
 02213,-0.06016072,0.,0.00132520,-0.00037334,0.,0.05717097,-0.00108627,
 0.,-0.00059601,0.00064300,0.,-0.14716047,0.02400022,0.,-0.00020103,-0.
 00010328,0.,0.68867373,0.,-0.00080668,-0.00393512,0.,0.00087783,0.0022
 1464,0.,0.03502344,-0.02820242,0.,-0.00513505,-0.00531653,0.,-0.014020
 75,0.05117432,0.,-0.00135008,-0.00026488,0.,-0.04809871,-0.05376627,0.
 ,0.00093706,-0.00076492,0.,0.08963752,-0.29993221,0.,0.00010328,0.0009
 4836,0.,0.04340967,0.69300024,0.00634709,0.,0.,0.00662531,0.,0.,0.0026
 2456,0.,0.,-0.06533811,0.,0.,0.00181280,0.,0.,-0.00457152,0.,0.,0.0001
 2740,0.,0.,0.00801156,0.,0.,-0.00004761,0.,0.,-0.06237612,0.,0.,-0.000
 08938,0.,0.,0.13505419,0.,-0.00115399,0.00095056,0.,0.05570878,0.04093
 260,0.,-0.00164514,-0.00714202,0.,-0.20095114,0.06912558,0.,-0.0260483
 5,0.02658171,0.,-0.05745835,0.02019127,0.,-0.00215666,0.00108091,0.,-0
 .00742715,-0.08426099,0.,0.00102382,0.00076775,0.,-0.31968324,-0.00997
 915,0.,-0.00029676,0.00024119,0.,0.65830963,0.,-0.00137972,-0.00462709
 ,0.,0.00237916,-0.04828115,0.,-0.00470260,0.00247729,0.,0.11829414,-0.
 24674826,0.,0.00909232,0.00907006,0.,0.01713969,-0.00582402,0.,0.00092
 854,0.00097904,0.,-0.03623172,0.00879846,0.,-0.00065683,0.00038858,0.,
 -0.07358302,-0.13697295,0.,0.00105919,-0.00108258,0.,0.02631394,0.7276
 4049,0.00634709,0.,0.,0.00262456,0.,0.,0.00662531,0.,0.,0.00181280,0.,
 0.,-0.06533811,0.,0.,0.00012740,0.,0.,-0.00457152,0.,0.,-0.00004761,0.
 ,0.,0.00801156,0.,0.,-0.00008938,0.,0.,-0.06237612,0.,0.,0.00032191,0.
 ,0.,0.13505419,0.,-0.00115399,-0.00095056,0.,-0.00164514,0.00714202,0.
 ,0.05570878,-0.04093260,0.,-0.02604835,-0.02658171,0.,-0.20095114,-0.0
 6912558,0.,-0.00215666,-0.00108091,0.,-0.05745835,-0.02019127,0.,0.001
 02382,-0.00076775,0.,-0.00742715,0.08426099,0.,-0.00029676,-0.00024119
 ,0.,-0.31968324,0.00997915,0.,0.00349254,-0.00287455,0.,0.65830963,0.,
 0.00137972,-0.00462709,0.,0.00470260,0.00247729,0.,-0.00237916,-0.0482
 8115,0.,-0.00909232,0.00907006,0.,-0.11829414,-0.24674826,0.,-0.000928
 54,0.00097904,0.,-0.01713969,-0.00582402,0.,0.00065683,0.00038858,0.,0
 .03623172,0.00879846,0.,-0.00105919,-0.00108258,0.,0.07358302,-0.13697
 295,0.,0.00287455,-0.00028604,0.,-0.02631394,0.72764049,-0.20913996,0.
 ,-0.12261730,0.00195248,0.00118696,0.00135325,0.00195248,-0.00118696,0
 .00135325,-0.00008719,0.00006535,0.00058028,-0.00008719,-0.00006535,0.
 00058027,0.00078961,-0.00049277,-0.00018477,0.00078961,0.00049277,-0.0
 0018477,0.00011906,0.00029864,-0.00040511,0.00011906,-0.00029864,-0.00
 040511,-0.00004723,0.00019274,0.00024374,-0.00004723,-0.00019274,0.000
 24374,-0.00027570,-0.00010187,0.00018921,-0.00027570,0.00010187,0.0001
 8921,0.22790215,0.,-0.04395425,0.,0.02169563,0.00027063,0.01591272,-0.
 02169563,0.00027063,-0.01591272,-0.00087937,-0.00290102,0.00111475,0.0
 0087937,-0.00290102,-0.00111475,-0.00093460,0.00072116,0.00031925,0.00
 093460,0.00072116,-0.00031926,-0.00090755,0.00035770,0.00001197,0.0009
 0755,0.00035770,-0.00001197,0.00025059,-0.00020672,0.00043977,-0.00025
 059,-0.00020672,-0.00043977,-0.00100797,0.00025490,0.00036006,0.001007
 97,0.00025490,-0.00036006,0.,0.04735103,-0.12429258,0.,-0.12922354,-0.
 01352635,0.00138340,-0.01232653,-0.01352635,-0.00138340,-0.01232653,-0
 .00050728,0.00122915,-0.00115727,-0.00050728,-0.00122915,-0.00115727,0
 .00062775,-0.00129065,0.00070660,0.00062775,0.00129065,0.00070660,0.00
 075746,0.00026359,-0.00061565,0.00075746,-0.00026359,-0.00061565,-0.00
 010878,0.00002127,0.00020335,-0.00010878,-0.00002127,0.00020335,0.0008
 8707,-0.00001409,-0.00059830,0.00088707,0.00001409,-0.00059830,0.13429
 304,0.,0.14513952,-0.20913996,0.,0.12261730,0.00195248,-0.00118696,-0.
 00135325,0.00195248,0.00118696,-0.00135325,-0.00008719,-0.00006535,-0.
 00058027,-0.00008719,0.00006535,-0.00058028,0.00078961,0.00049277,0.00
 018477,0.00078961,-0.00049277,0.00018477,0.00011906,-0.00029864,0.0004
 0511,0.00011906,0.00029864,0.00040511,-0.00004723,-0.00019274,-0.00024
 374,-0.00004723,0.00019274,-0.00024374,-0.00027570,0.00010187,-0.00018
 921,-0.00027570,-0.00010187,-0.00018921,-0.02321729,0.,0.01518929,0.22
 790215,0.,-0.04395425,0.,-0.02169563,0.00027063,0.01591272,0.02169563,
 0.00027063,-0.01591272,0.00087937,-0.00290102,0.00111475,-0.00087937,-
 0.00290102,-0.00111475,0.00093460,0.00072116,0.00031926,-0.00093460,0.
 00072116,-0.00031925,0.00090755,0.00035770,0.00001197,-0.00090755,0.00
 035770,-0.00001197,-0.00025059,-0.00020672,0.00043977,0.00025059,-0.00
 020672,-0.00043977,0.00100797,0.00025490,0.00036006,-0.00100797,0.0002
 5490,-0.00036006,0.,0.00063022,0.,0.,0.04735103,0.12429258,0.,-0.12922
 354,0.01352635,0.00138340,-0.01232653,0.01352635,-0.00138340,-0.012326
 53,0.00050728,0.00122915,-0.00115727,0.00050728,-0.00122915,-0.0011572
 7,-0.00062775,-0.00129065,0.00070660,-0.00062775,0.00129065,0.00070660
 ,-0.00075746,0.00026359,-0.00061565,-0.00075746,-0.00026359,-0.0006156
 5,0.00010878,0.00002127,0.00020335,0.00010878,-0.00002127,0.00020335,-
 0.00088707,-0.00001409,-0.00059830,-0.00088707,0.00001409,-0.00059830,
 -0.01518929,0.,0.01161090,-0.13429304,0.,0.14513952,-0.00312499,0.,0.,
 0.00365423,0.,0.,-0.00025082,0.,0.,0.00789989,0.,0.,0.00002295,0.,0.,-
 0.03741496,0.,0.,0.00008682,0.,0.,0.00324936,0.,0.,-0.00002271,0.,0.,0
 .00730379,0.,0.,0.00002113,0.,0.,-0.00092606,0.,0.,-0.00018262,0.,0.,-
 0.00022691,0.00047852,-0.00059255,-0.00022691,-0.00047852,0.00059255,0
 .02523351,0.,0.00180113,0.00032051,0.,-0.00456810,-0.03133332,0.,-0.00
 005180,-0.00019561,0.,-0.00518422,0.00016177,0.,-0.00001492,-0.0016493
 4,0.,-0.08923467,-0.08438306,0.,0.00004871,0.00013124,0.,0.01104757,0.
 02068394,0.,-0.00003215,0.00000755,0.,-0.00225371,0.00327112,0.,-0.000
 01764,-0.00013761,0.,-0.00108868,0.00053408,0.,-0.00049388,0.00029732,
 0.00024322,-0.00032048,0.00017529,-0.00024322,-0.00032048,0.00017529,0
 .,0.08938724,0.,0.00036129,0.00060391,0.,-0.00110431,-0.00326038,0.,-0
 .00028232,-0.00005998,0.,-0.00058346,0.00193082,0.,0.00029571,-0.00019
 927,0.,-0.08335583,-0.30259961,0.,0.00007444,0.00000158,0.,-0.01030972
 ,-0.01831854,0.,-0.00008001,-0.00004589,0.,0.00431394,-0.00138686,0.,-
 0.00003753,0.00001263,0.,0.00037686,0.00043333,0.,-0.00008231,0.000118
 17,-0.00002386,-0.00042120,0.00018786,0.00002386,-0.00042120,0.0001878
 6,0.,0.09160780,0.32240382,-0.00312499,0.,0.,-0.00025082,0.,0.,0.00365
 423,0.,0.,0.00002295,0.,0.,0.00789989,0.,0.,0.00008682,0.,0.,-0.037414
 96,0.,0.,-0.00002271,0.,0.,0.00324936,0.,0.,0.00002113,0.,0.,0.0073037
 9,0.,0.,-0.00018262,0.,0.,-0.00092606,0.,0.,-0.00022691,-0.00047852,-0
 .00059255,-0.00022691,0.00047852,0.00059255,-0.00000191,0.,0.,0.025233
 51,0.,0.00180113,-0.00032051,0.,-0.00005180,0.00019561,0.,-0.00456810,
 0.03133332,0.,-0.00001492,0.00164934,0.,-0.00518422,-0.00016177,0.,0.0
 0004871,-0.00013124,0.,-0.08923467,0.08438306,0.,-0.00003215,-0.000007
 55,0.,0.01104757,-0.02068394,0.,-0.00001764,0.00013761,0.,-0.00225371,
 -0.00327112,0.,-0.00049388,-0.00029732,0.,-0.00108868,-0.00053408,-0.0
 0024322,-0.00032048,-0.00017529,0.00024322,-0.00032048,-0.00017529,0.,
 -0.00003462,-0.00001121,0.,0.08938724,0.,-0.00036129,0.00060391,0.,0.0
 0028232,-0.00005998,0.,0.00110431,-0.00326038,0.,-0.00029571,-0.000199
 27,0.,0.00058346,0.00193082,0.,-0.00007444,0.00000158,0.,0.08335583,-0
 .30259961,0.,0.00008001,-0.00004589,0.,0.01030972,-0.01831854,0.,0.000
 03753,0.00001263,0.,-0.00431394,-0.00138686,0.,0.00008231,0.00011817,0
 .,-0.00037686,0.00043333,-0.00002386,0.00042120,0.00018786,0.00002386,
 0.00042120,0.00018786,0.,0.00001121,0.00001655,0.,-0.09160780,0.322403
 82,0.00044952,0.,0.,0.00698558,0.,0.,0.00000533,0.,0.,-0.00098944,0.,0
 .,-0.00064562,0.,0.,0.00317106,0.,0.,-0.00034328,0.,0.,-0.03590722,0.,
 0.,0.00000033,0.,0.,0.00307353,0.,0.,-0.00006468,0.,0.,0.00674071,0.,0
 .,0.00004417,0.,0.,0.00000677,0.00011325,-0.00006547,0.00000677,-0.000
 11325,0.00006547,-0.00403996,0.,0.,-0.00000704,0.,0.,0.02517316,0.,-0.
 00036474,-0.00078855,0.,-0.00075593,0.00396891,0.,-0.00018834,0.000364
 59,0.,0.00059382,0.00033571,0.,0.00006928,-0.00002696,0.,-0.01612646,-
 0.00633148,0.,-0.00004316,-0.00013037,0.,-0.32519220,-0.05245609,0.,-0
 .00004433,0.00002801,0.,-0.00616818,0.00037418,0.,0.00000007,-0.000022
 43,0.,0.00141615,-0.00192293,0.,-0.00004323,-0.00002452,0.00002864,-0.
 00004109,0.00003139,-0.00002864,-0.00004109,0.00003139,0.,0.00092949,0
 .00024846,0.,0.00000225,0.00001149,0.,0.34560161,0.,0.00076083,0.00077
 863,0.,0.00333384,-0.00340316,0.,0.00017902,-0.00036309,0.,0.00053156,
 -0.00130729,0.,0.00000285,0.00014274,0.,0.02454176,0.00860003,0.,0.000
 04367,0.00014378,0.,-0.05244885,-0.06983785,0.,0.00001870,-0.00000253,
 0.,-0.03086332,-0.00132377,0.,0.00003452,0.00002711,0.,-0.00115154,-0.
 00527199,0.,-0.00001195,-0.00002990,-0.00003141,-0.00000624,-0.0000089
 2,0.00003141,-0.00000624,-0.00000892,0.,-0.00064363,0.00102800,0.,-0.0
 0001291,0.00000088,0.,0.05657637,0.06995229,0.00044952,0.,0.,0.0000053
 3,0.,0.,0.00698558,0.,0.,-0.00064562,0.,0.,-0.00098944,0.,0.,-0.000343
 28,0.,0.,0.00317106,0.,0.,0.00000033,0.,0.,-0.03590722,0.,0.,-0.000064
 68,0.,0.,0.00307353,0.,0.,0.00004417,0.,0.,0.00674071,0.,0.,0.00000677
 ,-0.00011325,-0.00006547,0.00000677,0.00011325,0.00006547,-0.00000704,
 0.,0.,-0.00403996,0.,0.,0.00009238,0.,0.,0.02517316,0.,-0.00036474,0.0
 0078855,0.,-0.00018834,-0.00036459,0.,-0.00075593,-0.00396891,0.,0.000
 06928,0.00002696,0.,0.00059382,-0.00033571,0.,-0.00004316,0.00013037,0
 .,-0.01612646,0.00633148,0.,-0.00004433,-0.00002801,0.,-0.32519220,0.0
 5245609,0.,0.00000007,0.00002243,0.,-0.00616818,-0.00037418,0.,-0.0000
 4323,0.00002452,0.,0.00141615,0.00192293,-0.00002864,-0.00004109,-0.00
 003139,0.00002864,-0.00004109,-0.00003139,0.,0.00000225,-0.00001149,0.
 ,0.00092949,-0.00024846,0.,-0.00002241,0.00000898,0.,0.34560161,0.,-0.
 00076083,0.00077863,0.,-0.00017902,-0.00036309,0.,-0.00333384,-0.00340
 316,0.,-0.00000285,0.00014274,0.,-0.00053156,-0.00130729,0.,-0.0000436
 7,0.00014378,0.,-0.02454176,0.00860003,0.,-0.00001870,-0.00000253,0.,0
 .05244885,-0.06983785,0.,-0.00003452,0.00002711,0.,0.03086332,-0.00132
 377,0.,0.00001195,-0.00002990,0.,0.00115154,-0.00527199,-0.00003141,0.
 00000624,-0.00000892,0.00003141,0.00000624,-0.00000892,0.,0.00001291,0
 .00000088,0.,0.00064363,0.00102800,0.,-0.00000898,0.00001417,0.,-0.056
 57637,0.06995229,-0.00066688,0.,0.,-0.00095447,0.,0.,-0.00031597,0.,0.
 ,0.00744933,0.,0.,0.00047992,0.,0.,0.00678698,0.,0.,-0.00004827,0.,0.,
 0.00303945,0.,0.,-0.00002050,0.,0.,-0.03656043,0.,0.,-0.00002400,0.,0.
 ,0.00317284,0.,0.,-0.00002251,0.,0.,-0.00001664,0.00004698,-0.00014601
 ,-0.00001664,-0.00004698,0.00014601,0.00018672,0.,0.,0.00003066,0.,0.,
 -0.00399963,0.,0.,0.00000764,0.,0.,0.02565763,0.,0.00004097,-0.0000058
 6,0.,-0.00046189,-0.00091569,0.,-0.00054325,-0.00008440,0.,-0.00518684
 ,-0.00263958,0.,0.00015297,0.00129561,0.,0.00044464,-0.00238987,0.,0.0
 0005649,0.00016596,0.,0.01025199,-0.00910488,0.,-0.00004690,-0.0000178
 5,0.,-0.18216242,0.13698191,0.,-0.00002385,-0.00003388,0.,-0.01615621,
 0.02483108,0.,-0.00003758,0.00010886,0.00001418,0.00000248,0.00002889,
 -0.00001418,0.00000248,0.00002889,0.,0.00031585,-0.00052785,0.,-0.0000
 5919,0.00002198,0.,0.00081420,0.00054128,0.,-0.00001247,0.00000050,0.,
 0.19146148,0.,0.00008728,0.00005706,0.,-0.00111770,-0.00017284,0.,-0.0
 0005287,0.00000750,0.,-0.00202257,0.00109926,0.,-0.00020694,0.00030215
 ,0.,-0.00318342,-0.00431825,0.,0.00000152,0.00005577,0.,0.02217982,-0.
 01782887,0.,0.00003016,0.00000327,0.,0.13703212,-0.21249884,0.,0.00000
 620,-0.00001819,0.,-0.00602585,0.00842613,0.,0.00002536,0.00000390,0.0
 0001160,-0.00002693,0.00000372,-0.00001160,-0.00002693,0.00000372,0.,0
 .00104032,-0.00098057,0.,-0.00000877,-0.00000239,0.,-0.00034579,0.0010
 8579,0.,0.00000806,0.00000091,0.,-0.14791458,0.22394871,-0.00066688,0.
 ,0.,-0.00031597,0.,0.,-0.00095447,0.,0.,0.00047992,0.,0.,0.00744933,0.
 ,0.,-0.00004827,0.,0.,0.00678698,0.,0.,-0.00002050,0.,0.,0.00303945,0.
 ,0.,-0.00002400,0.,0.,-0.03656043,0.,0.,-0.00002251,0.,0.,0.00317284,0
 .,0.,-0.00001664,-0.00004698,-0.00014601,-0.00001664,0.00004698,0.0001
 4601,0.00003066,0.,0.,0.00018672,0.,0.,0.00000764,0.,0.,-0.00399963,0.
 ,0.,0.00000055,0.,0.,0.02565763,0.,0.00004097,0.00000586,0.,-0.0005432
 5,0.00008440,0.,-0.00046189,0.00091569,0.,0.00015297,-0.00129561,0.,-0
 .00518684,0.00263958,0.,0.00005649,-0.00016596,0.,0.00044464,0.0023898
 7,0.,-0.00004690,0.00001785,0.,0.01025199,0.00910488,0.,-0.00002385,0.
 00003388,0.,-0.18216242,-0.13698191,0.,-0.00003758,-0.00010886,0.,-0.0
 1615621,-0.02483108,-0.00001418,0.00000248,-0.00002889,0.00001418,0.00
 000248,-0.00002889,0.,-0.00005919,-0.00002198,0.,0.00031585,0.00052785
 ,0.,-0.00001247,-0.00000050,0.,0.00081420,-0.00054128,0.,-0.00003663,0
 .00000479,0.,0.19146148,0.,-0.00008728,0.00005706,0.,0.00005287,0.0000
 0750,0.,0.00111770,-0.00017284,0.,0.00020694,0.00030215,0.,0.00202257,
 0.00109926,0.,-0.00000152,0.00005577,0.,0.00318342,-0.00431825,0.,-0.0
 0003016,0.00000327,0.,-0.02217982,-0.01782887,0.,-0.00000620,-0.000018
 19,0.,-0.13703212,-0.21249884,0.,-0.00002536,0.00000390,0.,0.00602585,
 0.00842613,0.00001160,0.00002693,0.00000372,-0.00001160,0.00002693,0.0
 0000372,0.,0.00000877,-0.00000239,0.,-0.00104032,-0.00098057,0.,-0.000
 00806,0.00000091,0.,0.00034579,0.00108579,0.,-0.00000479,0.00000406,0.
 ,0.14791458,0.22394871,0.00012307,0.,0.,0.00705238,0.,0.,-0.00007732,0
 .,0.,0.00341604,0.,0.,-0.00344632,0.,0.,-0.00096391,0.,0.,0.00015426,0
 .,0.,0.00750249,0.,0.,-0.00005367,0.,0.,0.00336501,0.,0.,-0.00010093,0
 .,0.,-0.03658665,0.,0.,-0.00019055,0.,0.,0.00001331,-0.00011882,0.0000
 7927,0.00001331,0.00011882,-0.00007927,-0.00126363,0.,0.,-0.00000054,0
 .,0.,0.00018007,0.,0.,0.00005985,0.,0.,-0.00422050,0.,0.,0.00005475,0.
 ,0.,0.02456938,0.,0.00032504,0.00091914,0.,-0.00247180,0.00304340,0.,0
 .00030721,0.00005091,0.,0.01238401,0.01971017,0.,0.00038136,-0.0008496
 7,0.,-0.00093616,0.00051147,0.,-0.00001946,-0.00011880,0.,-0.00555982,
 -0.00007824,0.,0.00005224,-0.00002105,0.,-0.00464499,-0.03111455,0.,-0
 .00012400,-0.00021175,0.,-0.08597329,-0.07895035,0.,0.00015291,0.00060
 888,-0.00000890,-0.00015105,0.00011071,0.00000890,-0.00015105,0.000110
 71,0.,0.00011747,-0.00004873,0.,0.00002485,-0.00002067,0.,-0.00039487,
 -0.00146471,0.,0.00001164,-0.00003647,0.,0.00117919,0.00052818,0.,0.00
 000449,0.00001146,0.,0.08610179,0.,-0.00062664,-0.00078440,0.,0.003985
 65,-0.00084518,0.,0.00003185,-0.00032510,0.,-0.00953382,-0.01900755,0.
 ,-0.00129543,0.00080760,0.,0.00065578,0.00027708,0.,-0.00012099,0.0000
 6958,0.,-0.00109615,0.00194107,0.,0.00001421,0.00009968,0.,-0.00002915
 ,-0.00263580,0.,0.00022361,0.00031734,0.,-0.08051350,-0.30760371,0.,0.
 00040462,-0.00041115,0.00002386,0.00020963,-0.00015831,-0.00002386,0.0
 0020963,-0.00015831,0.,-0.00009846,-0.00007296,0.,-0.00000190,0.000001
 02,0.,0.00009424,-0.00026068,0.,-0.00000141,0.00004377,0.,-0.00032825,
 0.00082869,0.,0.00003747,-0.00001069,0.,0.08754449,0.32739898,0.000123
 07,0.,0.,-0.00007732,0.,0.,0.00705238,0.,0.,-0.00344632,0.,0.,0.003416
 04,0.,0.,0.00015426,0.,0.,-0.00096391,0.,0.,-0.00005367,0.,0.,0.007502
 49,0.,0.,-0.00010093,0.,0.,0.00336501,0.,0.,-0.00019055,0.,0.,-0.03658
 665,0.,0.,0.00001331,0.00011882,0.00007927,0.00001331,-0.00011882,-0.0
 0007927,-0.00000054,0.,0.,-0.00126363,0.,0.,0.00005985,0.,0.,0.0001800
 7,0.,0.,0.00005475,0.,0.,-0.00422050,0.,0.,0.00040009,0.,0.,0.02456938
 ,0.,0.00032504,-0.00091914,0.,0.00030721,-0.00005091,0.,-0.00247180,-0
 .00304340,0.,0.00038136,0.00084967,0.,0.01238401,-0.01971017,0.,-0.000
 01946,0.00011880,0.,-0.00093616,-0.00051147,0.,0.00005224,0.00002105,0
 .,-0.00555982,0.00007824,0.,-0.00012400,0.00021175,0.,-0.00464499,0.03
 111455,0.,0.00015291,-0.00060888,0.,-0.08597329,0.07895035,0.00000890,
 -0.00015105,-0.00011071,-0.00000890,-0.00015105,-0.00011071,0.,0.00002
 485,0.00002067,0.,0.00011747,0.00004873,0.,0.00001164,0.00003647,0.,-0
 .00039487,0.00146471,0.,0.00000449,-0.00001146,0.,0.00117919,-0.000528
 18,0.,-0.00061571,0.00023453,0.,0.08610179,0.,0.00062664,-0.00078440,0
 .,-0.00003185,-0.00032510,0.,-0.00398565,-0.00084518,0.,0.00129543,0.0
 0080760,0.,0.00953382,-0.01900755,0.,0.00012099,0.00006958,0.,-0.00065
 578,0.00027708,0.,-0.00001421,0.00009968,0.,0.00109615,0.00194107,0.,-
 0.00022361,0.00031734,0.,0.00002915,-0.00263580,0.,-0.00040462,-0.0004
 1115,0.,0.08051350,-0.30760371,0.00002386,-0.00020963,-0.00015831,-0.0
 0002386,-0.00020963,-0.00015831,0.,0.00000190,0.00000102,0.,0.00009846
 ,-0.00007296,0.,0.00000141,0.00004377,0.,-0.00009424,-0.00026068,0.,-0
 .00003747,-0.00001069,0.,0.00032825,0.00082869,0.,-0.00023453,0.000489
 06,0.,-0.08754449,0.32739898\\0.,0.,-0.00009348,0.,0.00002439,0.000031
 99,0.,-0.00002439,0.00003199,0.,-0.00003139,0.00000772,0.,0.00003139,0
 .00000772,0.,0.00001000,0.00000683,0.,-0.00001000,0.00000683,0.,0.0000
 0133,-0.00004044,0.,-0.00000133,-0.00004044,0.,0.00003063,0.00003104,0
 .,-0.00003063,0.00003104,0.,0.00000138,-0.00002397,0.,-0.00000138,-0.0
 0002397,-0.00000927,0.,0.00002008,0.00000927,0.,0.00002008,0.,-0.00000
 675,-0.00000697,0.,0.00000675,-0.00000697,0.,-0.00000556,0.00000186,0.
 ,0.00000556,0.00000186,0.,-0.00000398,0.00000326,0.,0.00000398,0.00000
 326,0.,-0.00000509,0.00001534,0.,0.00000509,0.00001534\\\@


 THE MOST INCOMPREHENSIBLE THING ABOUT THE WORLD
 IS THAT IT IS COMPREHENSIBLE. -- A. EINSTEIN
 Job cpu time:       0 days  2 hours 33 minutes 31.0 seconds.
 Elapsed time:       0 days  0 hours 25 minutes 38.5 seconds.
 File lengths (MBytes):  RWF=    317 Int=      0 D2E=      0 Chk=     23 Scr=      1
 Normal termination of Gaussian 16 at Tue Sep  6 17:25:19 2022.
