 Entering Gaussian System, Link 0=g16
 AtFile(1): pcseg2.gbs
            -H     0
            S   4   1.00
                  0.754732D+02           0.427821D-02
                  0.113575D+02           0.328672D-01
                  0.260081D+01           0.159578D+00
                  0.735503D+00           0.500000D+00
            S   1   1.00
                  0.231761D+00           1.0000000
            S   1   1.00
                  0.741675D-01           1.0000000
            P   1   1.00
                  0.160000D+01           1.0000000
            P   1   1.00
                  0.450000D+00           1.0000000
            D   1   1.00
                  0.125000D+01           1.0000000
            ****
            -C     0
            S   7   1.00
                  0.731999D+04           0.695369D-03
                  0.109818D+04           0.537138D-02
                  0.250014D+03           0.274734D-01
                  0.707586D+02           0.105078D+00
                  0.228595D+02           0.291262D+00
                  0.803936D+01           0.500000D+00
                  0.289309D+01           0.362224D+00
            S   2   1.00
                  0.521640D+01          -0.957844D-01
                  0.556124D+00           0.500000D+00
            S   1   1.00
                  0.228813D+00           1.0000000
            S   1   1.00
                  0.936338D-01           1.0000000
            P   4   1.00
                  0.339855D+02           0.818395D-02
                  0.772957D+01           0.586921D-01
                  0.224954D+01           0.222514D+00
                  0.767681D+00           0.500000D+00
            P   1   1.00
                  0.263283D+00           1.0000000
            P   1   1.00
                  0.848744D-01           1.0000000
            D   1   1.00
                  0.140000D+01           1.0000000
            D   1   1.00
                  0.450000D+00           1.0000000
            F   1   1.00
                  0.950000D+00           1.0000000
            ****
            -O     0
            S   7   1.00
                  0.135887D+05           0.665492D-03
                  0.203847D+04           0.514222D-02
                  0.464041D+03           0.263472D-01
                  0.131339D+03           0.101500D+00
                  0.425340D+02           0.285877D+00
                  0.150429D+02           0.500000D+00
                  0.546616D+01           0.368211D+00
            S   2   1.00
                  0.100915D+02          -0.100084D+00
                  0.110429D+01           0.500000D+00
            S   1   1.00
                  0.448082D+00           1.0000000
            S   1   1.00
                  0.175325D+00           1.0000000
            P   4   1.00
                  0.608220D+02           0.908253D-02
                  0.140332D+02           0.645878D-01
                  0.418244D+01           0.241502D+00
                  0.142490D+01           0.500000D+00
            P   1   1.00
                  0.478741D+00           1.0000000
            P   1   1.00
                  0.146257D+00           1.0000000
            D   1   1.00
                  0.220000D+01           1.0000000
            D   1   1.00
                  0.650000D+00           1.0000000
            F   1   1.00
                  0.110000D+01           1.0000000
            ****
            -N     0
            S   7   1.00
                  0.101643D+05           0.682757D-03
                  0.152481D+04           0.527488D-02
                  0.347119D+03           0.270037D-01
                  0.982389D+02           0.103673D+00
                  0.317799D+02           0.289575D+00
                  0.112240D+02           0.500000D+00
                  0.406611D+01           0.364621D+00
            S   2   1.00
                  0.747898D+01          -0.975681D-01
                  0.805040D+00           0.500000D+00
            S   1   1.00
                  0.324626D+00           1.0000000
            S   1   1.00
                  0.128132D+00           1.0000000
            P   4   1.00
                  0.482704D+02           0.829547D-02
                  0.110815D+02           0.596223D-01
                  0.326643D+01           0.227889D+00
                  0.111680D+01           0.500000D+00
            P   1   1.00
                  0.382049D+00           1.0000000
            P   1   1.00
                  0.121222D+00           1.0000000
            D   1   1.00
                  0.180000D+01           1.0000000
            D   1   1.00
                  0.550000D+00           1.0000000
            F   1   1.00
                  0.102000D+01           1.0000000
            ****
            -F     0
            S   7   1.00
                  0.174507D+05           0.655972D-03
                  0.261768D+04           0.506944D-02
                  0.595857D+03           0.259899D-01
                  0.168651D+03           0.100353D+00
                  0.546654D+02           0.284095D+00
                  0.193717D+02           0.500000D+00
                  0.706202D+01           0.370721D+00
            S   2   1.00
                  0.131197D+02          -0.101997D+00
                  0.145046D+01           0.500000D+00
            S   1   1.00
                  0.588255D+00           1.0000000
            S   1   1.00
                  0.227960D+00           1.0000000
            P   4   1.00
                  0.779407D+02           0.931135D-02
                  0.180425D+02           0.663964D-01
                  0.542342D+01           0.246386D+00
                  0.184876D+01           0.500000D+00
            P   1   1.00
                  0.617455D+00           1.0000000
            P   1   1.00
                  0.185496D+00           1.0000000
            D   1   1.00
                  0.280000D+01           1.0000000
            D   1   1.00
                  0.800000D+00           1.0000000
            F   1   1.00
                  0.120000D+01           1.0000000
            ****
            -Cl     0
            S   8   1.00
                  0.154272D+06           0.222473D-03
                  0.231232D+05           0.172590D-02
                  0.526257D+04           0.899286D-02
                  0.148995D+04           0.367724D-01
                  0.485417D+03           0.121446D+00
                  0.174634D+03           0.304148D+00
                  0.672393D+02           0.500000D+00
                  0.265780D+02           0.360252D+00
            S   3   1.00
                  0.131826D+03          -0.531330D-01
                  0.400703D+02          -0.233346D+00
                  0.789448D+01           0.500000D+00
            S   2   1.00
                  0.427711D+01           0.500000D+00
                  0.196233D+01           0.370517D+00
            S   1   1.00
                  0.520793D+00           1.0000000
            S   1   1.00
                  0.181633D+00           1.0000000
            P   7   1.00
                  0.124440D+04           0.988206D-03
                  0.295109D+03           0.829674D-02
                  0.947224D+02           0.430906D-01
                  0.352588D+02           0.148443D+00
                  0.144211D+02           0.344744D+00
                  0.610371D+01           0.500000D+00
                  0.258886D+01           0.348278D+00
            P   2   1.00
                  0.109447D+02          -0.196768D-01
                  0.104413D+01           0.500000D+00
            P   1   1.00
                  0.376184D+00           1.0000000
            P   1   1.00
                  0.120613D+00           1.0000000
            D   1   1.00
                  0.231000D+01           1.0000000
            D   1   1.00
                  0.520000D+00           1.0000000
            F   1   1.00
                  0.720000D+00           1.0000000
            ****
            -S     0
            S   8   1.00
                  0.134700D+06           0.226231D-03
                  0.201904D+05           0.175488D-02
                  0.459528D+04           0.914190D-02
                  0.130109D+04           0.373551D-01
                  0.423902D+03           0.123121D+00
                  0.152485D+03           0.306801D+00
                  0.586925D+02           0.500000D+00
                  0.231461D+02           0.354358D+00
            S   3   1.00
                  0.116327D+03          -0.491772D-01
                  0.352841D+02          -0.215962D+00
                  0.677831D+01           0.500000D+00
            S   2   1.00
                  0.360404D+01           0.500000D+00
                  0.164871D+01           0.366278D+00
            S   1   1.00
                  0.421821D+00           1.0000000
            S   1   1.00
                  0.147554D+00           1.0000000
            P   7   1.00
                  0.104863D+04           0.105273D-02
                  0.248717D+03           0.879338D-02
                  0.797887D+02           0.453358D-01
                  0.296023D+02           0.154476D+00
                  0.120627D+02           0.352366D+00
                  0.507628D+01           0.500000D+00
                  0.213375D+01           0.346429D+00
            P   2   1.00
                  0.928958D+01          -0.185932D-01
                  0.837819D+00           0.500000D+00
            P   1   1.00
                  0.301495D+00           1.0000000
            P   1   1.00
                  0.974740D-01           1.0000000
            D   1   1.00
                  0.210000D+01           1.0000000
            D   1   1.00
                  0.480000D+00           1.0000000
            F   1   1.00
                  0.660000D+00           1.0000000
            ****
            -Br     0
            S    10   1.00
                  0.233625D+07           0.532336D-04
                  0.349961D+06           0.413715D-03
                  0.796444D+05           0.217123D-02
                  0.225555D+05           0.910109D-02
                  0.735546D+04           0.323789D-01
                  0.265352D+04           0.988755D-01
                  0.103517D+04           0.248138D+00
                  0.422205D+03           0.474328D+00
                  0.180035D+03           0.500000D+00
                  0.793308D+02           0.187769D+00
            S    4   1.00
                  0.620834D+03          -0.226511D-01
                  0.190829D+03          -0.109497D+00
                  0.312505D+02           0.500000D+00
                  0.135270D+02           0.492812D+00
            S    2   1.00
                  0.216097D+02          -0.165418D+00
                  0.372566D+01           0.500000D+00
            S    1   1.00
                  0.169770D+01           1.0000000
            S    1   1.00
                  0.489332D+00           1.0000000
            S    1   1.00
                  0.175712D+00           1.0000000
            P    8   1.00
                  0.960829D+04           0.478974D-03
                  0.227618D+04           0.417853D-02
                  0.736723D+03           0.229315D-01
                  0.281579D+03           0.892653D-01
                  0.118395D+03           0.255288D+00
                  0.527481D+02           0.479074D+00
                  0.245098D+02           0.500000D+00
                  0.112009D+02           0.200944D+00
            P    4   1.00
                  0.587849D+02          -0.189674D-01
                  0.918962D+01           0.264104D+00
                  0.413895D+01           0.500000D+00
                  0.184225D+01           0.319316D+00
            P    1   1.00
                  0.713862D+00           1.0000000
            P    1   1.00
                  0.274232D+00           1.0000000
            P    1   1.00
                  0.944411D-01           1.0000000
            D    7   1.00
                  0.398470D+03           0.204066D-02
                  0.118967D+03           0.175171D-01
                  0.450197D+02           0.829708D-01
                  0.190320D+02           0.236284D+00
                  0.855686D+01           0.428468D+00
                  0.382950D+01           0.500000D+00
                  0.166291D+01           0.349360D+00
            D    1   1.00
                  0.672953D+00           1.0000000
            D    1   1.00
                  0.252000D+00           1.0000000
            F    1   1.00
                  0.530000D+00           1.0000000
            ****
            -Si     0
            S    8   1.00
                  0.996133D+05           0.235546D-03
                  0.149311D+05           0.182707D-02
                  0.339820D+04           0.951425D-02
                  0.962140D+03           0.388172D-01
                  0.313430D+03           0.127328D+00
                  0.112683D+03           0.313522D+00
                  0.433372D+02           0.500000D+00
                  0.170029D+02           0.340347D+00
            S    3   1.00
                  0.884208D+02          -0.404451D-01
                  0.266756D+02          -0.178059D+00
                  0.479640D+01           0.500000D+00
            S    2   1.00
                  0.239385D+01           0.500000D+00
                  0.108333D+01           0.338016D+00
            S    1   1.00
                  0.252420D+00           1.0000000
            S    1   1.00
                  0.891210D-01           1.0000000
            P    7   1.00
                  0.709901D+03           0.123028D-02
                  0.168426D+03           0.101366D-01
                  0.539946D+02           0.511840D-01
                  0.198646D+02           0.169967D+00
                  0.801369D+01           0.370717D+00
                  0.331870D+01           0.500000D+00
                  0.136112D+01           0.344128D+00
            P    2   1.00
                  0.622158D+01          -0.166609D-01
                  0.503049D+00           0.500000D+00
            P    1   1.00
                  0.179848D+00           1.0000000
            P    1   1.00
                  0.591912D-01           1.0000000
            D    1   1.00
                  0.168000D+01           1.0000000
            D    1   1.00
                  0.380000D+00           1.0000000
            F    1   1.00
                  0.540000D+00           1.0000000
            ****
            -P     0
            S    8   1.00
                  0.116416D+06           0.230715D-03
                  0.174500D+05           0.178960D-02
                  0.397149D+04           0.932116D-02
                  0.112447D+04           0.380591D-01
                  0.366347D+03           0.125148D+00
                  0.131757D+03           0.310022D+00
                  0.506988D+02           0.500000D+00
                  0.199436D+02           0.347528D+00
            S    3   1.00
                  0.101878D+03          -0.446755D-01
                  0.308249D+02          -0.196376D+00
                  0.573688D+01           0.500000D+00
            S    2   1.00
                  0.296868D+01           0.500000D+00
                  0.135315D+01           0.355098D+00
            S    1   1.00
                  0.332196D+00           1.0000000
            S    1   1.00
                  0.116229D+00           1.0000000
            P    7   1.00
                  0.873928D+03           0.112375D-02
                  0.207298D+03           0.933330D-02
                  0.664628D+02           0.477213D-01
                  0.245665D+02           0.160733D+00
                  0.996820D+01           0.359760D+00
                  0.416536D+01           0.500000D+00
                  0.173022D+01           0.346593D+00
            P    2   1.00
                  0.772530D+01          -0.175718D-01
                  0.657252D+00           0.500000D+00
            P    1   1.00
                  0.239903D+00           1.0000000
            P    1   1.00
                  0.800988D-01           1.0000000
            D    1   1.00
                  0.189000D+01           1.0000000
            D    1   1.00
                  0.430000D+00           1.0000000
            F    1   1.00
                  0.600000D+00           1.0000000
            ****
            
 Initial command:
 /usr/local/apps/g16_b01_avx/g16/l1.exe "/wrk/irikura/Gau-413271.inp" -scrdir="/wrk/irikura/"
 Entering Link 1 = /usr/local/apps/g16_b01_avx/g16/l1.exe PID=    413273.
  
 Copyright (c) 1988-2017, Gaussian, Inc.  All Rights Reserved.
  
 This is part of the Gaussian(R) 16 program.  It is based on
 the Gaussian(R) 09 system (copyright 2009, Gaussian, Inc.),
 the Gaussian(R) 03 system (copyright 2003, Gaussian, Inc.),
 the Gaussian(R) 98 system (copyright 1998, Gaussian, Inc.),
 the Gaussian(R) 94 system (copyright 1995, Gaussian, Inc.),
 the Gaussian 92(TM) system (copyright 1992, Gaussian, Inc.),
 the Gaussian 90(TM) system (copyright 1990, Gaussian, Inc.),
 the Gaussian 88(TM) system (copyright 1988, Gaussian, Inc.),
 the Gaussian 86(TM) system (copyright 1986, Carnegie Mellon
 University), and the Gaussian 82(TM) system (copyright 1983,
 Carnegie Mellon University). Gaussian is a federally registered
 trademark of Gaussian, Inc.
  
 This software contains proprietary and confidential information,
 including trade secrets, belonging to Gaussian, Inc.
  
 This software is provided under written license and may be
 used, copied, transmitted, or stored only in accord with that
 written license.
  
 The following legend is applicable only to US Government
 contracts under FAR:
  
                    RESTRICTED RIGHTS LEGEND
  
 Use, reproduction and disclosure by the US Government is
 subject to restrictions as set forth in subparagraphs (a)
 and (c) of the Commercial Computer Software - Restricted
 Rights clause in FAR 52.227-19.
  
 Gaussian, Inc.
 340 Quinnipiac St., Bldg. 40, Wallingford CT 06492
  
  
 ---------------------------------------------------------------
 Warning -- This program may not be used in any manner that
 competes with the business of Gaussian, Inc. or will provide
 assistance to any competitor of Gaussian, Inc.  The licensee
 of this program is prohibited from giving any competitor of
 Gaussian, Inc. access to this program.  By using this program,
 the user acknowledges that Gaussian, Inc. is engaged in the
 business of creating and licensing software in the field of
 computational chemistry and represents and warrants to the
 licensee that it is not a competitor of Gaussian, Inc. and that
 it will not use this program in any manner prohibited above.
 ---------------------------------------------------------------
  

 Cite this work as:
 Gaussian 16, Revision B.01,
 M. J. Frisch, G. W. Trucks, H. B. Schlegel, G. E. Scuseria, 
 M. A. Robb, J. R. Cheeseman, G. Scalmani, V. Barone, 
 G. A. Petersson, H. Nakatsuji, X. Li, M. Caricato, A. V. Marenich, 
 J. Bloino, B. G. Janesko, R. Gomperts, B. Mennucci, H. P. Hratchian, 
 J. V. Ortiz, A. F. Izmaylov, J. L. Sonnenberg, D. Williams-Young, 
 F. Ding, F. Lipparini, F. Egidi, J. Goings, B. Peng, A. Petrone, 
 T. Henderson, D. Ranasinghe, V. G. Zakrzewski, J. Gao, N. Rega, 
 G. Zheng, W. Liang, M. Hada, M. Ehara, K. Toyota, R. Fukuda, 
 J. Hasegawa, M. Ishida, T. Nakajima, Y. Honda, O. Kitao, H. Nakai, 
 T. Vreven, K. Throssell, J. A. Montgomery, Jr., J. E. Peralta, 
 F. Ogliaro, M. J. Bearpark, J. J. Heyd, E. N. Brothers, K. N. Kudin, 
 V. N. Staroverov, T. A. Keith, R. Kobayashi, J. Normand, 
 K. Raghavachari, A. P. Rendell, J. C. Burant, S. S. Iyengar, 
 J. Tomasi, M. Cossi, J. M. Millam, M. Klene, C. Adamo, R. Cammi, 
 J. W. Ochterski, R. L. Martin, K. Morokuma, O. Farkas, 
 J. B. Foresman, and D. J. Fox, Gaussian, Inc., Wallingford CT, 2016.
 
 ******************************************
 Gaussian 16:  ES64L-G16RevB.01 20-Dec-2017
                29-Sep-2023 
 ******************************************
 %chk=fluorene.chk
 %mem=1000mw
 %nprocs=4
 Will use up to    4 processors via shared memory.
 ---------------------------------------
 # b3lyp/gen opt freq CPHF(Grid=OneStep)
 ---------------------------------------
 1/18=20,19=15,26=3,38=1/1,3;
 2/9=110,12=2,17=6,18=5,40=1/2;
 3/5=7,11=2,25=1,30=1,71=1,74=-5/1,2,3;
 4//1;
 5/5=2,38=5/2;
 6/7=2,8=2,9=2,10=2,28=1/1;
 7//1,2,3,16;
 1/18=20,19=15,26=3/3(2);
 2/9=110/2;
 99//99;
 2/9=110/2;
 3/5=7,6=1,11=2,25=1,30=1,71=1,74=-5,82=7/1,2,3;
 4/5=5,16=3,69=1/1;
 5/5=2,38=5/2;
 7//1,2,3,16;
 1/18=20,19=15,26=3/3(-5);
 2/9=110/2;
 6/7=2,8=2,9=2,10=2,19=2,28=1/1;
 99/9=1/99;
 -----------------------
 Fluorene, B3LYP/pcseg-2
 -----------------------
 Symbolic Z-matrix:
 Charge =  0 Multiplicity = 1
 C                     0.        0.        1.82548 
 C                     0.        1.18103   0.88283 
 C                     0.       -1.18103   0.88283 
 C                     0.        0.73311  -0.44922 
 C                     0.       -0.73311  -0.44922 
 C                     0.        2.53653   1.168 
 C                     0.       -2.53653   1.168 
 C                     0.        3.44987   0.115 
 C                     0.       -3.44987   0.115 
 C                     0.        3.00694  -1.20659 
 C                     0.       -3.00694  -1.20659 
 C                     0.        1.64722  -1.49879 
 C                     0.       -1.64722  -1.49879 
 H                     0.87669   0.        2.47937 
 H                    -0.87669   0.        2.47937 
 H                     0.        2.88803   2.19216 
 H                     0.       -2.88803   2.19216 
 H                     0.        4.51111   0.32443 
 H                     0.       -4.51111   0.32443 
 H                     0.        3.7289   -2.01225 
 H                     0.       -3.7289   -2.01225 
 H                     0.        1.31166  -2.52757 
 H                     0.       -1.31166  -2.52757 
 

 GradGradGradGradGradGradGradGradGradGradGradGradGradGradGradGradGradGrad
 Berny optimization.
 Initialization pass.
                           ----------------------------
                           !    Initial Parameters    !
                           ! (Angstroms and Degrees)  !
 --------------------------                            --------------------------
 ! Name  Definition              Value          Derivative Info.                !
 --------------------------------------------------------------------------------
 ! R1    R(1,2)                  1.5111         estimate D2E/DX2                !
 ! R2    R(1,3)                  1.5111         estimate D2E/DX2                !
 ! R3    R(1,14)                 1.0937         estimate D2E/DX2                !
 ! R4    R(1,15)                 1.0937         estimate D2E/DX2                !
 ! R5    R(2,4)                  1.4053         estimate D2E/DX2                !
 ! R6    R(2,6)                  1.3852         estimate D2E/DX2                !
 ! R7    R(3,5)                  1.4053         estimate D2E/DX2                !
 ! R8    R(3,7)                  1.3852         estimate D2E/DX2                !
 ! R9    R(4,5)                  1.4662         estimate D2E/DX2                !
 ! R10   R(4,12)                 1.3918         estimate D2E/DX2                !
 ! R11   R(5,13)                 1.3918         estimate D2E/DX2                !
 ! R12   R(6,8)                  1.3939         estimate D2E/DX2                !
 ! R13   R(6,16)                 1.0828         estimate D2E/DX2                !
 ! R14   R(7,9)                  1.3939         estimate D2E/DX2                !
 ! R15   R(7,17)                 1.0828         estimate D2E/DX2                !
 ! R16   R(8,10)                 1.3938         estimate D2E/DX2                !
 ! R17   R(8,18)                 1.0817         estimate D2E/DX2                !
 ! R18   R(9,11)                 1.3938         estimate D2E/DX2                !
 ! R19   R(9,19)                 1.0817         estimate D2E/DX2                !
 ! R20   R(10,12)                1.3908         estimate D2E/DX2                !
 ! R21   R(10,20)                1.0818         estimate D2E/DX2                !
 ! R22   R(11,13)                1.3908         estimate D2E/DX2                !
 ! R23   R(11,21)                1.0818         estimate D2E/DX2                !
 ! R24   R(12,22)                1.0821         estimate D2E/DX2                !
 ! R25   R(13,23)                1.0821         estimate D2E/DX2                !
 ! A1    A(2,1,3)              102.8094         estimate D2E/DX2                !
 ! A2    A(2,1,14)             111.8986         estimate D2E/DX2                !
 ! A3    A(2,1,15)             111.8986         estimate D2E/DX2                !
 ! A4    A(3,1,14)             111.8986         estimate D2E/DX2                !
 ! A5    A(3,1,15)             111.8986         estimate D2E/DX2                !
 ! A6    A(14,1,15)            106.5639         estimate D2E/DX2                !
 ! A7    A(1,2,4)              110.0091         estimate D2E/DX2                !
 ! A8    A(1,2,6)              129.5239         estimate D2E/DX2                !
 ! A9    A(4,2,6)              120.467          estimate D2E/DX2                !
 ! A10   A(1,3,5)              110.0091         estimate D2E/DX2                !
 ! A11   A(1,3,7)              129.5239         estimate D2E/DX2                !
 ! A12   A(5,3,7)              120.467          estimate D2E/DX2                !
 ! A13   A(2,4,5)              108.5862         estimate D2E/DX2                !
 ! A14   A(2,4,12)             120.36           estimate D2E/DX2                !
 ! A15   A(5,4,12)             131.0538         estimate D2E/DX2                !
 ! A16   A(3,5,4)              108.5862         estimate D2E/DX2                !
 ! A17   A(3,5,13)             120.36           estimate D2E/DX2                !
 ! A18   A(4,5,13)             131.0538         estimate D2E/DX2                !
 ! A19   A(2,6,8)              119.0563         estimate D2E/DX2                !
 ! A20   A(2,6,16)             120.8234         estimate D2E/DX2                !
 ! A21   A(8,6,16)             120.1203         estimate D2E/DX2                !
 ! A22   A(3,7,9)              119.0563         estimate D2E/DX2                !
 ! A23   A(3,7,17)             120.8234         estimate D2E/DX2                !
 ! A24   A(9,7,17)             120.1203         estimate D2E/DX2                !
 ! A25   A(6,8,10)             120.5345         estimate D2E/DX2                !
 ! A26   A(6,8,18)             119.7736         estimate D2E/DX2                !
 ! A27   A(10,8,18)            119.6918         estimate D2E/DX2                !
 ! A28   A(7,9,11)             120.5345         estimate D2E/DX2                !
 ! A29   A(7,9,19)             119.7736         estimate D2E/DX2                !
 ! A30   A(11,9,19)            119.6918         estimate D2E/DX2                !
 ! A31   A(8,10,12)            120.6566         estimate D2E/DX2                !
 ! A32   A(8,10,20)            119.6078         estimate D2E/DX2                !
 ! A33   A(12,10,20)           119.7356         estimate D2E/DX2                !
 ! A34   A(9,11,13)            120.6566         estimate D2E/DX2                !
 ! A35   A(9,11,21)            119.6078         estimate D2E/DX2                !
 ! A36   A(13,11,21)           119.7356         estimate D2E/DX2                !
 ! A37   A(4,12,10)            118.9255         estimate D2E/DX2                !
 ! A38   A(4,12,22)            120.8815         estimate D2E/DX2                !
 ! A39   A(10,12,22)           120.193          estimate D2E/DX2                !
 ! A40   A(5,13,11)            118.9255         estimate D2E/DX2                !
 ! A41   A(5,13,23)            120.8815         estimate D2E/DX2                !
 ! A42   A(11,13,23)           120.193          estimate D2E/DX2                !
 ! D1    D(3,1,2,4)              0.0            estimate D2E/DX2                !
 ! D2    D(3,1,2,6)            180.0            estimate D2E/DX2                !
 ! D3    D(14,1,2,4)           120.24           estimate D2E/DX2                !
 ! D4    D(14,1,2,6)           -59.76           estimate D2E/DX2                !
 ! D5    D(15,1,2,4)          -120.24           estimate D2E/DX2                !
 ! D6    D(15,1,2,6)            59.76           estimate D2E/DX2                !
 ! D7    D(2,1,3,5)              0.0            estimate D2E/DX2                !
 ! D8    D(2,1,3,7)            180.0            estimate D2E/DX2                !
 ! D9    D(14,1,3,5)          -120.24           estimate D2E/DX2                !
 ! D10   D(14,1,3,7)            59.76           estimate D2E/DX2                !
 ! D11   D(15,1,3,5)           120.24           estimate D2E/DX2                !
 ! D12   D(15,1,3,7)           -59.76           estimate D2E/DX2                !
 ! D13   D(1,2,4,5)              0.0            estimate D2E/DX2                !
 ! D14   D(1,2,4,12)           180.0            estimate D2E/DX2                !
 ! D15   D(6,2,4,5)            180.0            estimate D2E/DX2                !
 ! D16   D(6,2,4,12)             0.0            estimate D2E/DX2                !
 ! D17   D(1,2,6,8)            180.0            estimate D2E/DX2                !
 ! D18   D(1,2,6,16)             0.0            estimate D2E/DX2                !
 ! D19   D(4,2,6,8)              0.0            estimate D2E/DX2                !
 ! D20   D(4,2,6,16)           180.0            estimate D2E/DX2                !
 ! D21   D(1,3,5,4)              0.0            estimate D2E/DX2                !
 ! D22   D(1,3,5,13)           180.0            estimate D2E/DX2                !
 ! D23   D(7,3,5,4)            180.0            estimate D2E/DX2                !
 ! D24   D(7,3,5,13)             0.0            estimate D2E/DX2                !
 ! D25   D(1,3,7,9)            180.0            estimate D2E/DX2                !
 ! D26   D(1,3,7,17)             0.0            estimate D2E/DX2                !
 ! D27   D(5,3,7,9)              0.0            estimate D2E/DX2                !
 ! D28   D(5,3,7,17)           180.0            estimate D2E/DX2                !
 ! D29   D(2,4,5,3)              0.0            estimate D2E/DX2                !
 ! D30   D(2,4,5,13)           180.0            estimate D2E/DX2                !
 ! D31   D(12,4,5,3)           180.0            estimate D2E/DX2                !
 ! D32   D(12,4,5,13)            0.0            estimate D2E/DX2                !
 ! D33   D(2,4,12,10)            0.0            estimate D2E/DX2                !
 ! D34   D(2,4,12,22)          180.0            estimate D2E/DX2                !
 ! D35   D(5,4,12,10)          180.0            estimate D2E/DX2                !
 ! D36   D(5,4,12,22)            0.0            estimate D2E/DX2                !
 ! D37   D(3,5,13,11)            0.0            estimate D2E/DX2                !
 ! D38   D(3,5,13,23)          180.0            estimate D2E/DX2                !
 ! D39   D(4,5,13,11)          180.0            estimate D2E/DX2                !
 ! D40   D(4,5,13,23)            0.0            estimate D2E/DX2                !
 ! D41   D(2,6,8,10)             0.0            estimate D2E/DX2                !
 ! D42   D(2,6,8,18)           180.0            estimate D2E/DX2                !
 ! D43   D(16,6,8,10)          180.0            estimate D2E/DX2                !
 ! D44   D(16,6,8,18)            0.0            estimate D2E/DX2                !
 ! D45   D(3,7,9,11)             0.0            estimate D2E/DX2                !
 ! D46   D(3,7,9,19)           180.0            estimate D2E/DX2                !
 ! D47   D(17,7,9,11)          180.0            estimate D2E/DX2                !
 ! D48   D(17,7,9,19)            0.0            estimate D2E/DX2                !
 ! D49   D(6,8,10,12)            0.0            estimate D2E/DX2                !
 ! D50   D(6,8,10,20)          180.0            estimate D2E/DX2                !
 ! D51   D(18,8,10,12)         180.0            estimate D2E/DX2                !
 ! D52   D(18,8,10,20)           0.0            estimate D2E/DX2                !
 ! D53   D(7,9,11,13)            0.0            estimate D2E/DX2                !
 ! D54   D(7,9,11,21)          180.0            estimate D2E/DX2                !
 ! D55   D(19,9,11,13)         180.0            estimate D2E/DX2                !
 ! D56   D(19,9,11,21)           0.0            estimate D2E/DX2                !
 ! D57   D(8,10,12,4)            0.0            estimate D2E/DX2                !
 ! D58   D(8,10,12,22)         180.0            estimate D2E/DX2                !
 ! D59   D(20,10,12,4)         180.0            estimate D2E/DX2                !
 ! D60   D(20,10,12,22)          0.0            estimate D2E/DX2                !
 ! D61   D(9,11,13,5)            0.0            estimate D2E/DX2                !
 ! D62   D(9,11,13,23)         180.0            estimate D2E/DX2                !
 ! D63   D(21,11,13,5)         180.0            estimate D2E/DX2                !
 ! D64   D(21,11,13,23)          0.0            estimate D2E/DX2                !
 --------------------------------------------------------------------------------
 Trust Radius=3.00D-01 FncErr=1.00D-07 GrdErr=1.00D-06 EigMax=2.50D+02 EigMin=1.00D-04
 Number of steps in this run=    138 maximum allowed number of steps=    138.
 GradGradGradGradGradGradGradGradGradGradGradGradGradGradGradGradGradGrad

                          Input orientation:                          
 ---------------------------------------------------------------------
 Center     Atomic      Atomic             Coordinates (Angstroms)
 Number     Number       Type             X           Y           Z
 ---------------------------------------------------------------------
      1          6           0        0.000000    0.000000    1.825479
      2          6           0        0.000000    1.181034    0.882830
      3          6           0        0.000000   -1.181034    0.882830
      4          6           0        0.000000    0.733107   -0.449218
      5          6           0        0.000000   -0.733107   -0.449218
      6          6           0        0.000000    2.536534    1.168005
      7          6           0        0.000000   -2.536534    1.168005
      8          6           0        0.000000    3.449869    0.115001
      9          6           0        0.000000   -3.449869    0.115001
     10          6           0        0.000000    3.006943   -1.206590
     11          6           0        0.000000   -3.006943   -1.206590
     12          6           0        0.000000    1.647218   -1.498791
     13          6           0        0.000000   -1.647218   -1.498791
     14          1           0        0.876685    0.000000    2.479370
     15          1           0       -0.876685    0.000000    2.479370
     16          1           0        0.000000    2.888030    2.192156
     17          1           0        0.000000   -2.888030    2.192156
     18          1           0        0.000000    4.511113    0.324430
     19          1           0        0.000000   -4.511113    0.324430
     20          1           0        0.000000    3.728904   -2.012250
     21          1           0        0.000000   -3.728904   -2.012250
     22          1           0        0.000000    1.311663   -2.527567
     23          1           0        0.000000   -1.311663   -2.527567
 ---------------------------------------------------------------------
                    Distance matrix (angstroms):
                    1          2          3          4          5
     1  C    0.000000
     2  C    1.511102   0.000000
     3  C    1.511102   2.362068   0.000000
     4  C    2.389915   1.405344   2.332014   0.000000
     5  C    2.389915   2.332014   1.405344   1.466214   0.000000
     6  C    2.620358   1.385173   3.728490   2.422346   3.647734
     7  C    2.620358   3.728490   1.385173   3.647734   2.422346
     8  C    3.850627   2.395240   4.694127   2.774732   4.220857
     9  C    3.850627   4.694127   2.395240   4.220857   2.774732
    10  C    4.270263   2.774819   4.680259   2.396652   3.815965
    11  C    4.270263   4.680259   2.774819   3.815965   2.396652
    12  C    3.710000   2.426818   3.697449   1.391834   2.601452
    13  C    3.710000   3.697449   2.426818   2.601452   1.391834
    14  H    1.093686   2.170797   2.170797   3.143668   3.143668
    15  H    1.093686   2.170797   2.170797   3.143668   3.143668
    16  H    2.911214   2.151318   4.274531   3.408893   4.482130
    17  H    2.911214   4.274531   2.151318   4.482130   3.408893
    18  H    4.754292   3.376572   5.719471   3.856405   5.300979
    19  H    4.754292   5.719471   3.376572   5.300979   3.856405
    20  H    5.350971   3.856570   5.699910   3.379034   4.727855
    21  H    5.350971   5.699910   3.856570   4.727855   3.379034
    22  H    4.546369   3.412898   4.224257   2.157374   2.915582
    23  H    4.546369   4.224257   3.412898   2.915582   2.157374
                    6          7          8          9         10
     6  C    0.000000
     7  C    5.073068   0.000000
     8  C    1.393915   6.078309   0.000000
     9  C    6.078309   1.393915   6.899738   0.000000
    10  C    2.420741   6.030658   1.393839   6.590677   0.000000
    11  C    6.030658   2.420741   6.590677   1.393839   6.013886
    12  C    2.811171   4.961409   2.419478   5.346459   1.390767
    13  C    4.961409   2.811171   5.346459   2.419478   4.663325
    14  H    2.987015   2.987015   4.273221   4.273221   4.837002
    15  H    2.987015   2.987015   4.273221   4.273221   4.837002
    16  H    1.082790   5.520397   2.151798   6.669598   3.400826
    17  H    5.520397   1.082790   6.669598   2.151798   6.804571
    18  H    2.147226   7.097954   1.081711   7.963736   2.146287
    19  H    7.097954   2.147226   7.963736   1.081711   7.672365
    20  H    3.396435   7.026360   2.145474   7.487321   1.081811
    21  H    7.026360   3.396435   7.487321   2.145474   6.783858
    22  H    3.893271   5.335342   3.399278   5.445673   2.149175
    23  H    5.335342   3.893271   5.445673   3.399278   4.516120
                   11         12         13         14         15
    11  C    0.000000
    12  C    4.663325   0.000000
    13  C    1.390767   3.294436   0.000000
    14  H    4.837002   4.394049   4.394049   0.000000
    15  H    4.837002   4.394049   4.394049   1.753370   0.000000
    16  H    6.804571   3.893932   5.847355   3.031796   3.031796
    17  H    3.400826   5.847355   3.893932   3.031796   3.031796
    18  H    7.672365   3.395001   6.422552   5.075676   5.075676
    19  H    2.146287   6.422552   3.395001   5.075676   5.075676
    20  H    6.783858   2.144075   5.400586   5.903215   5.903215
    21  H    1.081811   5.400586   2.144075   5.903215   5.903215
    22  H    4.516120   1.082117   3.132628   5.249615   5.249615
    23  H    2.149175   3.132628   1.082117   5.249615   5.249615
                   16         17         18         19         20
    16  H    0.000000
    17  H    5.776060   0.000000
    18  H    2.474429   7.631233   0.000000
    19  H    7.631233   2.474429   9.022226   0.000000
    20  H    4.287668   7.839697   2.464128   8.564926   0.000000
    21  H    7.839697   4.287668   8.564926   2.464128   7.457808
    22  H    4.976014   6.317690   4.286067   6.483719   2.471559
    23  H    6.317690   4.976014   6.483719   4.286067   5.066840
                   21         22         23
    21  H    0.000000
    22  H    5.066840   0.000000
    23  H    2.471559   2.623326   0.000000
 Stoichiometry    C13H10
 Framework group  C2V[C2(C),SGV(C12H8),SGV'(H2)]
 Deg. of freedom    22
 Full point group                 C2V     NOp   4
 Largest Abelian subgroup         C2V     NOp   4
 Largest concise Abelian subgroup C2V     NOp   4
                         Standard orientation:                         
 ---------------------------------------------------------------------
 Center     Atomic      Atomic             Coordinates (Angstroms)
 Number     Number       Type             X           Y           Z
 ---------------------------------------------------------------------
      1          6           0        0.000000   -0.000000    1.825479
      2          6           0        0.000000    1.181034    0.882830
      3          6           0       -0.000000   -1.181034    0.882830
      4          6           0        0.000000    0.733107   -0.449218
      5          6           0       -0.000000   -0.733107   -0.449218
      6          6           0        0.000000    2.536534    1.168005
      7          6           0       -0.000000   -2.536534    1.168005
      8          6           0        0.000000    3.449869    0.115001
      9          6           0       -0.000000   -3.449869    0.115001
     10          6           0        0.000000    3.006943   -1.206590
     11          6           0       -0.000000   -3.006943   -1.206590
     12          6           0        0.000000    1.647218   -1.498791
     13          6           0       -0.000000   -1.647218   -1.498791
     14          1           0        0.876685   -0.000000    2.479370
     15          1           0       -0.876685    0.000000    2.479370
     16          1           0        0.000000    2.888030    2.192156
     17          1           0       -0.000000   -2.888030    2.192156
     18          1           0        0.000000    4.511113    0.324430
     19          1           0       -0.000000   -4.511113    0.324430
     20          1           0        0.000000    3.728904   -2.012250
     21          1           0       -0.000000   -3.728904   -2.012250
     22          1           0        0.000000    1.311663   -2.527567
     23          1           0       -0.000000   -1.311663   -2.527567
 ---------------------------------------------------------------------
 Rotational constants (GHZ):           2.1942289           0.5880432           0.4650805
 General basis read from cards:  (5D, 7F)
 There are   215 symmetry adapted cartesian basis functions of A1  symmetry.
 There are    89 symmetry adapted cartesian basis functions of A2  symmetry.
 There are   101 symmetry adapted cartesian basis functions of B1  symmetry.
 There are   200 symmetry adapted cartesian basis functions of B2  symmetry.
 There are   183 symmetry adapted basis functions of A1  symmetry.
 There are    83 symmetry adapted basis functions of A2  symmetry.
 There are    93 symmetry adapted basis functions of B1  symmetry.
 There are   171 symmetry adapted basis functions of B2  symmetry.
   530 basis functions,   843 primitive gaussians,   605 cartesian basis functions
    44 alpha electrons       44 beta electrons
       nuclear repulsion energy       696.9892081605 Hartrees.
 NAtoms=   23 NActive=   23 NUniq=   12 SFac= 3.67D+00 NAtFMM=   60 NAOKFM=F Big=F
 Integral buffers will be    131072 words long.
 Raffenetti 2 integral format.
 Two-electron integral symmetry is turned on.
 One-electron integrals computed using PRISM.
 NBasis=   530 RedAO= T EigKep=  1.20D-05  NBF=   183    83    93   171
 NBsUse=   530 1.00D-06 EigRej= -1.00D+00 NBFU=   183    83    93   171
 ExpMin= 7.42D-02 ExpMax= 7.32D+03 ExpMxC= 2.50D+02 IAcc=3 IRadAn=         5 AccDes= 0.00D+00
 Harris functional with IExCor=  402 and IRadAn=       5 diagonalized for initial guess.
 HarFok:  IExCor=  402 AccDes= 0.00D+00 IRadAn=         5 IDoV= 1 UseB2=F ITyADJ=14
 ICtDFT=  3500011 ScaDFX=  1.000000  1.000000  1.000000  1.000000
 FoFCou: FMM=F IPFlag=           0 FMFlag=      100000 FMFlg1=           0
         NFxFlg=           0 DoJE=T BraDBF=F KetDBF=T FulRan=T
         wScrn=  0.000000 ICntrl=       500 IOpCl=  0 I1Cent=   200000004 NGrid=           0
         NMat0=    1 NMatS0=      1 NMatT0=    0 NMatD0=    1 NMtDS0=    0 NMtDT0=    0
 Petite list used in FoFCou.
 Initial guess orbital symmetries:
       Occupied  (A1) (B2) (A1) (B2) (A1) (B2) (A1) (B2) (A1) (A1)
                 (B2) (B2) (A1) (A1) (B2) (A1) (A1) (B2) (B2) (A1)
                 (A1) (B2) (A1) (B2) (A1) (A1) (B2) (B2) (A1) (B2)
                 (B1) (A1) (B2) (A1) (B2) (A1) (B1) (B2) (A2) (A1)
                 (B1) (A2) (B1) (A2)
       Virtual   (B1) (B1) (A2) (A2) (B1) (B2) (A1) (A1) (A1) (B2)
                 (B2) (A1) (A2) (A1) (B1) (B2) (A1) (A1) (B2) (B2)
                 (B2) (A1) (B1) (A1) (A1) (A2) (A1) (B2) (B2) (B1)
                 (A1) (B2) (A2) (B1) (A1) (B2) (B2) (A1) (A2) (B1)
                 (B2) (A1) (A1) (B2) (A1) (B1) (B2) (A1) (B2) (A1)
                 (A2) (B1) (A1) (B2) (A1) (A2) (B2) (B1) (A1) (B2)
                 (B1) (A2) (B2) (A1) (A1) (B2) (A1) (A1) (B2) (A1)
                 (B2) (B2) (A1) (B2) (A1) (B2) (A1) (B2) (A1) (B2)
                 (A1) (B2) (A1) (B2) (B2) (A1) (A1) (B2) (B1) (A2)
                 (B1) (B2) (A2) (B2) (A1) (A1) (B1) (A2) (A2) (B1)
                 (B2) (A1) (B1) (A1) (B2) (A2) (A1) (B2) (B1) (A1)
                 (A2) (B2) (A1) (B1) (A1) (B2) (A2) (A1) (B1) (B2)
                 (B1) (A2) (A1) (A1) (B2) (B1) (A2) (A1) (B2) (B1)
                 (B2) (A1) (A1) (B2) (B1) (A2) (A1) (B2) (B1) (A1)
                 (A2) (B1) (B2) (B1) (A2) (A2) (B2) (A1) (B2) (B1)
                 (A1) (A2) (A1) (A1) (B1) (A2) (B2) (A1) (B1) (B2)
                 (B2) (A2) (B1) (B2) (A1) (B1) (A2) (B2) (B1) (A1)
                 (B2) (A2) (A1) (B1) (A1) (B2) (A1) (A2) (A1) (A2)
                 (B2) (B2) (A1) (B1) (B2) (A2) (A1) (A1) (B2) (B2)
                 (A1) (A2) (B2) (B1) (A1) (A1) (B2) (A1) (A1) (B2)
                 (B2) (B1) (A1) (B2) (A1) (A1) (B2) (B2) (B1) (A1)
                 (A2) (A1) (B2) (A1) (B2) (A2) (B2) (B2) (A1) (B2)
                 (A1) (A1) (B2) (A1) (B2) (B2) (A1) (B2) (A1) (A1)
                 (A1) (B1) (B2) (A1) (B2) (A1) (B2) (B2) (A1) (B1)
                 (B1) (A2) (A2) (B2) (A1) (B1) (B2) (B1) (A2) (A1)
                 (B1) (B1) (A2) (B1) (B2) (A2) (B2) (A2) (A1) (B1)
                 (A1) (A2) (B1) (B2) (A1) (A2) (B2) (A1) (B2) (A1)
                 (B1) (B2) (A1) (B2) (A1) (A2) (A1) (B1) (B2) (A1)
                 (B2) (A1) (A2) (B1) (A1) (B2) (B2) (B1) (A2) (B2)
                 (A1) (A1) (B2) (B2) (A1) (A2) (A1) (B2) (B1) (A1)
                 (A2) (B1) (A2) (B2) (B1) (B2) (B1) (A1) (A1) (A2)
                 (B1) (A2) (B1) (A1) (A2) (B2) (B2) (A1) (B1) (A2)
                 (A1) (B1) (A1) (B2) (A2) (A1) (B2) (B1) (A1) (A1)
                 (A2) (B1) (B2) (A2) (B2) (B1) (B2) (A1) (A2) (A1)
                 (B2) (B1) (B2) (B2) (A1) (A2) (A2) (B1) (B1) (A1)
                 (A2) (A1) (B2) (B1) (B1) (A2) (A1) (A2) (B2) (B1)
                 (A2) (A2) (B1) (B2) (A1) (B1) (A2) (B2) (B1) (A2)
                 (A2) (B2) (B1) (A1) (A1) (B2) (B2) (A2) (A1) (B2)
                 (B1) (B1) (B2) (A1) (A2) (B1) (A1) (B1) (A2) (B1)
                 (A2) (A1) (A2) (B2) (A1) (B1) (B2) (A1) (A2) (B2)
                 (B1) (A1) (A2) (B2) (A1) (A1) (B2) (A1) (B1) (B2)
                 (A2) (B2) (B2) (A1) (A1) (A1) (B2) (A2) (A1) (B2)
                 (A1) (B2) (B1) (A2) (B1) (A1) (B2) (A1) (B2) (B1)
                 (A2) (B2) (A2) (A1) (A1) (B2) (B1) (A1) (B2) (A1)
                 (B2) (A1) (B1) (A2) (B2) (B2) (A1) (B2) (A1) (A1)
                 (B2) (A1) (B2) (A2) (B1) (B2) (B2) (A1) (A2) (A1)
                 (A1) (B1) (B2) (B2) (B1) (A1) (A1) (A1) (A1) (B2)
                 (B2) (A1) (B2) (B2) (A1) (A1) (B2) (B2) (A1) (A1)
                 (B2) (B2) (B2) (A1) (A1) (B2)
 The electronic state of the initial guess is 1-A1.
 Requested convergence on RMS density matrix=1.00D-08 within 128 cycles.
 Requested convergence on MAX density matrix=1.00D-06.
 Requested convergence on             energy=1.00D-06.
 No special actions if energy rises.
 Integral accuracy reduced to 1.0D-05 until final iterations.
 Problem detected with inexpensive integrals.
 Switching to full accuracy and repeating last cycle.
 SCF Done:  E(RB3LYP) =  -501.604454873     A.U. after   19 cycles
            NFock= 19  Conv=0.55D-08     -V/T= 2.0039

 **********************************************************************

            Population analysis using the SCF Density.

 **********************************************************************

 Orbital symmetries:
       Occupied  (A1) (A1) (B2) (A1) (B2) (B2) (A1) (B2) (A1) (B2)
                 (A1) (B2) (A1) (A1) (B2) (A1) (A1) (B2) (B2) (A1)
                 (A1) (A1) (B2) (B2) (A1) (B2) (A1) (A1) (B1) (B2)
                 (B2) (A1) (B2) (A1) (B1) (A2) (B2) (A1) (A1) (B2)
                 (B1) (A2) (B1) (A2)
       Virtual   (B1) (B1) (A2) (A1) (B2) (A2) (A1) (A1) (B2) (A1)
                 (B2) (B1) (A1) (A1) (B2) (B1) (B2) (B2) (A1) (B1)
                 (A1) (A2) (A2) (A1) (A1) (B2) (B1) (B2) (A1) (A2)
                 (B2) (B1) (B2) (A1) (A2) (B2) (B1) (A1) (A1) (B2)
                 (A1) (A1) (B1) (B2) (B2) (A1) (A1) (A2) (B2) (A2)
                 (A1) (B1) (B2) (A1) (B1) (B2) (A1) (B2) (B1) (A1)
                 (A2) (B2) (B2) (A1) (A1) (B2) (A1) (A1) (B2) (A1)
                 (B2) (B2) (A1) (B2) (B2) (A1) (B2) (A1) (B2) (A1)
                 (A1) (B2) (A1) (B2) (A1) (B2) (A1) (B2) (A2) (B2)
                 (B1) (A1) (B2) (A2) (A1) (B1) (B1) (B2) (A2) (A2)
                 (B1) (A1) (B1) (A1) (A2) (B2) (A1) (B2) (B1) (A2)
                 (A1) (B2) (B1) (A1) (A1) (B2) (A2) (B2) (A1) (B1)
                 (B1) (A1) (A1) (B1) (B2) (A2) (A1) (B2) (A2) (B2)
                 (B1) (A1) (A1) (B2) (A1) (B1) (B2) (A2) (A1) (B2)
                 (A2) (B1) (A2) (B1) (B2) (B1) (A2) (A1) (B2) (B1)
                 (A1) (A2) (A1) (A1) (A2) (B1) (B2) (B2) (A1) (B1)
                 (B2) (B2) (A1) (A2) (B1) (B1) (B2) (A2) (B1) (A1)
                 (B2) (A1) (A2) (B1) (A1) (B2) (A1) (A1) (A2) (B2)
                 (A2) (A1) (B1) (B2) (B2) (A2) (A1) (A1) (B2) (B2)
                 (A1) (A2) (B1) (A1) (B2) (A1) (B2) (A1) (B2) (A1)
                 (B2) (B1) (A1) (B2) (A1) (A1) (B1) (A1) (A2) (B2)
                 (B2) (B2) (A1) (A1) (B2) (A2) (B2) (A1) (B2) (B2)
                 (A1) (A1) (B2) (A1) (B2) (A1) (B2) (B2) (A1) (A1)
                 (A1) (B1) (B2) (A1) (B2) (A1) (B2) (B2) (A1) (B1)
                 (B1) (A2) (B2) (A2) (A1) (B1) (B2) (B1) (A2) (A1)
                 (B1) (B1) (A2) (B1) (B2) (A2) (A2) (B2) (A1) (B1)
                 (A2) (A1) (B1) (A1) (B2) (A2) (A1) (B2) (B2) (A1)
                 (B1) (B2) (A1) (B2) (A1) (A2) (B1) (A1) (B2) (A1)
                 (B2) (A1) (A2) (B1) (A1) (B2) (A2) (B1) (B2) (B2)
                 (A1) (A1) (B2) (A2) (B2) (A1) (A1) (B2) (A1) (B1)
                 (B1) (A2) (A2) (B1) (B2) (B1) (B2) (A2) (B1) (A1)
                 (A1) (A2) (B1) (A2) (A1) (B2) (B2) (B1) (A1) (A2)
                 (A1) (A1) (B1) (B2) (A1) (B2) (A2) (A1) (B1) (A1)
                 (B2) (A2) (B1) (B2) (A1) (A2) (B2) (B2) (A1) (B1)
                 (B2) (A2) (B1) (A1) (B2) (B1) (A2) (A2) (B1) (A2)
                 (A1) (A1) (B2) (B1) (B1) (A1) (A2) (B2) (A2) (B1)
                 (A2) (B1) (A2) (B2) (B1) (A1) (A2) (B1) (B2) (A2)
                 (A2) (A1) (B1) (B2) (A1) (B2) (B2) (A2) (A1) (B1)
                 (B2) (B1) (B2) (A1) (B1) (A2) (B1) (A1) (A2) (B1)
                 (A2) (A2) (B2) (A1) (A1) (B1) (B2) (A2) (A1) (B1)
                 (B2) (A2) (B2) (A1) (A1) (A1) (B1) (B2) (A1) (B2)
                 (A2) (A1) (B2) (B2) (A1) (A2) (A1) (B2) (A1) (B1)
                 (B2) (A2) (A1) (B2) (B1) (B2) (A1) (A1) (B1) (B2)
                 (A2) (A2) (B2) (A1) (B2) (A1) (B1) (A1) (A1) (B2)
                 (B2) (B1) (A2) (A1) (B2) (B2) (A1) (A1) (B2) (B2)
                 (A1) (A2) (A1) (B2) (B1) (A2) (B2) (B2) (A1) (A1)
                 (A1) (B1) (B2) (B1) (A1) (B2) (A1) (A1) (A1) (B2)
                 (B2) (A1) (B2) (B2) (A1) (A1) (B2) (B2) (A1) (A1)
                 (B2) (B2) (B2) (A1) (A1) (B2)
 The electronic state is 1-A1.
 Alpha  occ. eigenvalues --  -10.18501 -10.18165 -10.18165 -10.18046 -10.18013
 Alpha  occ. eigenvalues --  -10.17645 -10.17645 -10.17639 -10.17639 -10.17544
 Alpha  occ. eigenvalues --  -10.17544 -10.17488 -10.17488  -0.89269  -0.85018
 Alpha  occ. eigenvalues --   -0.80429  -0.77033  -0.74737  -0.71873  -0.69334
 Alpha  occ. eigenvalues --   -0.63839  -0.58968  -0.58800  -0.57974  -0.52310
 Alpha  occ. eigenvalues --   -0.49663  -0.48333  -0.45733  -0.45346  -0.44390
 Alpha  occ. eigenvalues --   -0.43339  -0.42601  -0.41272  -0.40533  -0.37419
 Alpha  occ. eigenvalues --   -0.36350  -0.35959  -0.35769  -0.33751  -0.33734
 Alpha  occ. eigenvalues --   -0.29069  -0.25985  -0.25159  -0.22428
 Alpha virt. eigenvalues --   -0.04231  -0.02655  -0.00341   0.01743   0.02371
 Alpha virt. eigenvalues --    0.02423   0.02732   0.04331   0.04849   0.06710
 Alpha virt. eigenvalues --    0.06860   0.07026   0.08115   0.11227   0.11397
 Alpha virt. eigenvalues --    0.12739   0.13674   0.15119   0.15852   0.16584
 Alpha virt. eigenvalues --    0.16821   0.17266   0.17503   0.19060   0.19096
 Alpha virt. eigenvalues --    0.19658   0.19728   0.20242   0.20556   0.21443
 Alpha virt. eigenvalues --    0.21729   0.22934   0.25057   0.25198   0.25990
 Alpha virt. eigenvalues --    0.26625   0.26897   0.26948   0.28546   0.29205
 Alpha virt. eigenvalues --    0.29343   0.30342   0.30434   0.30521   0.31075
 Alpha virt. eigenvalues --    0.31436   0.31638   0.32153   0.33465   0.33560
 Alpha virt. eigenvalues --    0.34248   0.34293   0.34990   0.35278   0.35306
 Alpha virt. eigenvalues --    0.37687   0.37871   0.38826   0.38953   0.39509
 Alpha virt. eigenvalues --    0.39536   0.40240   0.42101   0.42337   0.43508
 Alpha virt. eigenvalues --    0.44515   0.45168   0.46526   0.46708   0.49668
 Alpha virt. eigenvalues --    0.50421   0.50855   0.54256   0.54682   0.55316
 Alpha virt. eigenvalues --    0.55805   0.58829   0.59554   0.60646   0.60933
 Alpha virt. eigenvalues --    0.62162   0.63360   0.63946   0.65455   0.65921
 Alpha virt. eigenvalues --    0.67992   0.69001   0.69912   0.70745   0.70881
 Alpha virt. eigenvalues --    0.71395   0.72047   0.73088   0.73144   0.73570
 Alpha virt. eigenvalues --    0.73637   0.78068   0.79102   0.80440   0.81637
 Alpha virt. eigenvalues --    0.82707   0.86569   0.88202   0.88671   0.88833
 Alpha virt. eigenvalues --    0.91733   0.95750   0.97078   0.98028   0.99595
 Alpha virt. eigenvalues --    1.00779   1.02033   1.02102   1.02607   1.03574
 Alpha virt. eigenvalues --    1.04198   1.04529   1.05296   1.06410   1.07831
 Alpha virt. eigenvalues --    1.08567   1.10201   1.10935   1.12563   1.12575
 Alpha virt. eigenvalues --    1.13887   1.14192   1.15104   1.15693   1.16216
 Alpha virt. eigenvalues --    1.16649   1.16775   1.19249   1.20377   1.21188
 Alpha virt. eigenvalues --    1.21319   1.22476   1.22756   1.23139   1.24375
 Alpha virt. eigenvalues --    1.25653   1.25801   1.27791   1.27804   1.28597
 Alpha virt. eigenvalues --    1.31155   1.31711   1.31956   1.34988   1.35476
 Alpha virt. eigenvalues --    1.36359   1.37077   1.38094   1.38948   1.41367
 Alpha virt. eigenvalues --    1.41662   1.42783   1.44612   1.45260   1.46003
 Alpha virt. eigenvalues --    1.46702   1.50409   1.50636   1.50827   1.51977
 Alpha virt. eigenvalues --    1.54466   1.55318   1.55326   1.58654   1.59341
 Alpha virt. eigenvalues --    1.59633   1.60290   1.61465   1.61563   1.62177
 Alpha virt. eigenvalues --    1.64323   1.66302   1.67245   1.67472   1.67943
 Alpha virt. eigenvalues --    1.69104   1.73270   1.73968   1.74138   1.75293
 Alpha virt. eigenvalues --    1.76152   1.76640   1.77230   1.79212   1.79857
 Alpha virt. eigenvalues --    1.83104   1.85378   1.86361   1.87360   1.87408
 Alpha virt. eigenvalues --    1.88931   1.92522   1.92889   1.93232   1.94818
 Alpha virt. eigenvalues --    1.95161   1.95638   1.96724   1.99404   1.99434
 Alpha virt. eigenvalues --    2.03829   2.05283   2.07906   2.08193   2.08439
 Alpha virt. eigenvalues --    2.09205   2.13652   2.15167   2.15386   2.16084
 Alpha virt. eigenvalues --    2.17468   2.20930   2.21258   2.21378   2.23720
 Alpha virt. eigenvalues --    2.25551   2.27969   2.28269   2.33835   2.38386
 Alpha virt. eigenvalues --    2.39562   2.39815   2.42297   2.45489   2.52006
 Alpha virt. eigenvalues --    2.53927   2.54940   2.56964   2.58874   2.63015
 Alpha virt. eigenvalues --    2.67606   2.67752   2.76834   2.80943   2.84477
 Alpha virt. eigenvalues --    2.88748   2.90541   2.96098   2.96598   3.08024
 Alpha virt. eigenvalues --    3.08375   3.09621   3.10519   3.11244   3.15662
 Alpha virt. eigenvalues --    3.15934   3.21096   3.22458   3.23973   3.24636
 Alpha virt. eigenvalues --    3.25804   3.26920   3.27294   3.30156   3.31247
 Alpha virt. eigenvalues --    3.31823   3.33282   3.33461   3.36970   3.37964
 Alpha virt. eigenvalues --    3.39553   3.41142   3.42087   3.43408   3.45858
 Alpha virt. eigenvalues --    3.48681   3.50820   3.52084   3.56799   3.57063
 Alpha virt. eigenvalues --    3.57125   3.57828   3.59363   3.59972   3.62523
 Alpha virt. eigenvalues --    3.68103   3.68739   3.68939   3.69144   3.73140
 Alpha virt. eigenvalues --    3.74333   3.74745   3.75188   3.76299   3.78882
 Alpha virt. eigenvalues --    3.80440   3.83277   3.85746   3.86123   3.87755
 Alpha virt. eigenvalues --    3.88204   3.89468   3.94516   3.96082   3.96868
 Alpha virt. eigenvalues --    3.98104   3.98514   3.99584   4.00651   4.01314
 Alpha virt. eigenvalues --    4.02992   4.04071   4.04771   4.05020   4.06632
 Alpha virt. eigenvalues --    4.07308   4.07744   4.09207   4.10533   4.10917
 Alpha virt. eigenvalues --    4.13115   4.13910   4.15042   4.15510   4.16731
 Alpha virt. eigenvalues --    4.18470   4.18746   4.19386   4.19700   4.20917
 Alpha virt. eigenvalues --    4.21672   4.21828   4.24147   4.24445   4.25373
 Alpha virt. eigenvalues --    4.26669   4.26745   4.27288   4.28905   4.29873
 Alpha virt. eigenvalues --    4.29971   4.30200   4.30793   4.30926   4.31830
 Alpha virt. eigenvalues --    4.32423   4.33057   4.34283   4.34998   4.35279
 Alpha virt. eigenvalues --    4.35695   4.36284   4.37408   4.39372   4.39506
 Alpha virt. eigenvalues --    4.39931   4.40232   4.40699   4.41436   4.44791
 Alpha virt. eigenvalues --    4.45333   4.45588   4.45874   4.46347   4.47594
 Alpha virt. eigenvalues --    4.48220   4.49925   4.50815   4.52437   4.53552
 Alpha virt. eigenvalues --    4.55013   4.55732   4.55981   4.56550   4.57148
 Alpha virt. eigenvalues --    4.59988   4.61049   4.61845   4.62086   4.62940
 Alpha virt. eigenvalues --    4.64567   4.67640   4.68043   4.68711   4.68932
 Alpha virt. eigenvalues --    4.69150   4.70854   4.70867   4.73058   4.73348
 Alpha virt. eigenvalues --    4.74224   4.77489   4.78069   4.79825   4.81050
 Alpha virt. eigenvalues --    4.81962   4.83151   4.83793   4.84985   4.87587
 Alpha virt. eigenvalues --    4.87749   4.88635   4.90293   4.91478   4.92814
 Alpha virt. eigenvalues --    4.94517   4.95360   4.96384   4.97447   4.99373
 Alpha virt. eigenvalues --    5.01985   5.02894   5.03440   5.05098   5.06887
 Alpha virt. eigenvalues --    5.07494   5.10739   5.11140   5.11848   5.13566
 Alpha virt. eigenvalues --    5.19110   5.19481   5.20023   5.23166   5.26927
 Alpha virt. eigenvalues --    5.27408   5.27925   5.28045   5.28773   5.30862
 Alpha virt. eigenvalues --    5.31972   5.33664   5.36235   5.36572   5.38427
 Alpha virt. eigenvalues --    5.39845   5.42145   5.42220   5.43443   5.44413
 Alpha virt. eigenvalues --    5.45193   5.45245   5.50117   5.51385   5.51452
 Alpha virt. eigenvalues --    5.53639   5.54967   5.55006   5.56214   5.58103
 Alpha virt. eigenvalues --    5.62584   5.64069   5.66801   5.67571   5.68304
 Alpha virt. eigenvalues --    5.69825   5.75671   5.76106   5.77531   5.77597
 Alpha virt. eigenvalues --    5.84264   5.84602   5.87233   5.87407   5.88774
 Alpha virt. eigenvalues --    5.92520   5.93455   5.96486   5.99402   6.00953
 Alpha virt. eigenvalues --    6.01151   6.07234   6.16771   6.20653   6.21744
 Alpha virt. eigenvalues --    6.31181   6.33539   6.35548   6.41883   6.44227
 Alpha virt. eigenvalues --    6.45298   6.46729   6.56508   6.60032   6.98575
 Alpha virt. eigenvalues --    7.14149   7.62634   8.95007   9.25463  11.61132
 Alpha virt. eigenvalues --   11.94607
          Condensed to atoms (all electrons):
               1          2          3          4          5          6
     1  C    4.921510   0.304414   0.304414  -0.069086  -0.069086  -0.072679
     2  C    0.304414   5.077869  -0.038717   0.494341  -0.192451   0.430573
     3  C    0.304414  -0.038717   5.077869  -0.192451   0.494341   0.002503
     4  C   -0.069086   0.494341  -0.192451   4.936312   0.437072  -0.029364
     5  C   -0.069086  -0.192451   0.494341   0.437072   4.936312   0.003157
     6  C   -0.072679   0.430573   0.002503  -0.029364   0.003157   5.151902
     7  C   -0.072679   0.002503   0.430573   0.003157  -0.029364  -0.004931
     8  C    0.007822  -0.047166   0.004670  -0.068093  -0.004441   0.425288
     9  C    0.007822   0.004670  -0.047166  -0.004441  -0.068093   0.000477
    10  C   -0.003910  -0.058379  -0.002832  -0.040401  -0.000602  -0.000547
    11  C   -0.003910  -0.002832  -0.058379  -0.000602  -0.040401   0.000165
    12  C    0.003252  -0.081446   0.018141   0.432884  -0.040177  -0.075667
    13  C    0.003252   0.018141  -0.081446  -0.040177   0.432884  -0.004147
    14  H    0.483369  -0.065551  -0.065551   0.004343   0.004343  -0.004131
    15  H    0.483369  -0.065551  -0.065551   0.004343   0.004343  -0.004131
    16  H   -0.005194  -0.061597  -0.000927   0.006800   0.000538   0.478435
    17  H   -0.005194  -0.000927  -0.061597   0.000538   0.006800  -0.000282
    18  H   -0.000698   0.010861  -0.000063  -0.004009   0.000532  -0.053140
    19  H   -0.000698  -0.000063   0.010861   0.000532  -0.004009  -0.000007
    20  H    0.000211  -0.004033   0.000130   0.010764  -0.000644   0.015938
    21  H    0.000211   0.000130  -0.004033  -0.000644   0.010764  -0.000003
    22  H   -0.000615   0.005848   0.000965  -0.061669  -0.010774  -0.004332
    23  H   -0.000615   0.000965   0.005848  -0.010774  -0.061669  -0.000106
               7          8          9         10         11         12
     1  C   -0.072679   0.007822   0.007822  -0.003910  -0.003910   0.003252
     2  C    0.002503  -0.047166   0.004670  -0.058379  -0.002832  -0.081446
     3  C    0.430573   0.004670  -0.047166  -0.002832  -0.058379   0.018141
     4  C    0.003157  -0.068093  -0.004441  -0.040401  -0.000602   0.432884
     5  C   -0.029364  -0.004441  -0.068093  -0.000602  -0.040401  -0.040177
     6  C   -0.004931   0.425288   0.000477  -0.000547   0.000165  -0.075667
     7  C    5.151902   0.000477   0.425288   0.000165  -0.000547  -0.004147
     8  C    0.000477   4.880733  -0.000032   0.449222   0.000021  -0.021464
     9  C    0.425288  -0.000032   4.880733   0.000021   0.449222  -0.000075
    10  C    0.000165   0.449222   0.000021   4.883526  -0.000150   0.422147
    11  C   -0.000547   0.000021   0.449222  -0.000150   4.883526   0.000112
    12  C   -0.004147  -0.021464  -0.000075   0.422147   0.000112   5.101937
    13  C   -0.075667  -0.000075  -0.021464   0.000112   0.422147  -0.018491
    14  H   -0.004131  -0.000231  -0.000231   0.000193   0.000193  -0.000050
    15  H   -0.004131  -0.000231  -0.000231   0.000193   0.000193  -0.000050
    16  H   -0.000282  -0.055187   0.000008   0.017325  -0.000008  -0.006185
    17  H    0.478435   0.000008  -0.055187  -0.000008   0.017325   0.000162
    18  H   -0.000007   0.460506   0.000000  -0.059237   0.000001   0.017541
    19  H   -0.053140   0.000000   0.460506   0.000001  -0.059237   0.000009
    20  H   -0.000003  -0.059955   0.000001   0.461279  -0.000016  -0.050075
    21  H    0.015938   0.000001  -0.059955  -0.000016   0.461279  -0.000104
    22  H   -0.000106   0.014818  -0.000084  -0.042720   0.000030   0.477193
    23  H   -0.004332  -0.000084   0.014818   0.000030  -0.042720  -0.001475
              13         14         15         16         17         18
     1  C    0.003252   0.483369   0.483369  -0.005194  -0.005194  -0.000698
     2  C    0.018141  -0.065551  -0.065551  -0.061597  -0.000927   0.010861
     3  C   -0.081446  -0.065551  -0.065551  -0.000927  -0.061597  -0.000063
     4  C   -0.040177   0.004343   0.004343   0.006800   0.000538  -0.004009
     5  C    0.432884   0.004343   0.004343   0.000538   0.006800   0.000532
     6  C   -0.004147  -0.004131  -0.004131   0.478435  -0.000282  -0.053140
     7  C   -0.075667  -0.004131  -0.004131  -0.000282   0.478435  -0.000007
     8  C   -0.000075  -0.000231  -0.000231  -0.055187   0.000008   0.460506
     9  C   -0.021464  -0.000231  -0.000231   0.000008  -0.055187   0.000000
    10  C    0.000112   0.000193   0.000193   0.017325  -0.000008  -0.059237
    11  C    0.422147   0.000193   0.000193  -0.000008   0.017325   0.000001
    12  C   -0.018491  -0.000050  -0.000050  -0.006185   0.000162   0.017541
    13  C    5.101937  -0.000050  -0.000050   0.000162  -0.006185   0.000009
    14  H   -0.000050   0.625054  -0.035140  -0.000149  -0.000149  -0.000017
    15  H   -0.000050  -0.035140   0.625054  -0.000149  -0.000149  -0.000017
    16  H    0.000162  -0.000149  -0.000149   0.635260  -0.000013  -0.010564
    17  H   -0.006185  -0.000149  -0.000149  -0.000013   0.635260  -0.000000
    18  H    0.000009  -0.000017  -0.000017  -0.010564  -0.000000   0.634805
    19  H    0.017541  -0.000017  -0.000017  -0.000000  -0.010564  -0.000000
    20  H   -0.000104   0.000002   0.000002  -0.000036   0.000000  -0.011627
    21  H   -0.050075   0.000002   0.000002   0.000000  -0.000036  -0.000000
    22  H   -0.001475   0.000045   0.000045   0.000105   0.000006  -0.000101
    23  H    0.477193   0.000045   0.000045   0.000006   0.000105  -0.000001
              19         20         21         22         23
     1  C   -0.000698   0.000211   0.000211  -0.000615  -0.000615
     2  C   -0.000063  -0.004033   0.000130   0.005848   0.000965
     3  C    0.010861   0.000130  -0.004033   0.000965   0.005848
     4  C    0.000532   0.010764  -0.000644  -0.061669  -0.010774
     5  C   -0.004009  -0.000644   0.010764  -0.010774  -0.061669
     6  C   -0.000007   0.015938  -0.000003  -0.004332  -0.000106
     7  C   -0.053140  -0.000003   0.015938  -0.000106  -0.004332
     8  C    0.000000  -0.059955   0.000001   0.014818  -0.000084
     9  C    0.460506   0.000001  -0.059955  -0.000084   0.014818
    10  C    0.000001   0.461279  -0.000016  -0.042720   0.000030
    11  C   -0.059237  -0.000016   0.461279   0.000030  -0.042720
    12  C    0.000009  -0.050075  -0.000104   0.477193  -0.001475
    13  C    0.017541  -0.000104  -0.050075  -0.001475   0.477193
    14  H   -0.000017   0.000002   0.000002   0.000045   0.000045
    15  H   -0.000017   0.000002   0.000002   0.000045   0.000045
    16  H   -0.000000  -0.000036   0.000000   0.000105   0.000006
    17  H   -0.010564   0.000000  -0.000036   0.000006   0.000105
    18  H   -0.000000  -0.011627  -0.000000  -0.000101  -0.000001
    19  H    0.634805  -0.000000  -0.011627  -0.000001  -0.000101
    20  H   -0.000000   0.636387  -0.000000  -0.010203   0.000045
    21  H   -0.011627  -0.000000   0.636387   0.000045  -0.010203
    22  H   -0.000001  -0.010203   0.000045   0.630030  -0.000022
    23  H   -0.000101   0.000045  -0.010203  -0.000022   0.630030
 Mulliken charges:
               1
     1  C   -0.215280
     2  C    0.268395
     3  C    0.268395
     4  C    0.190624
     5  C    0.190624
     6  C   -0.254972
     7  C   -0.254972
     8  C    0.013390
     9  C    0.013390
    10  C   -0.025413
    11  C   -0.025413
    12  C   -0.173974
    13  C   -0.173974
    14  H    0.057810
    15  H    0.057810
    16  H    0.001652
    17  H    0.001652
    18  H    0.015223
    19  H    0.015223
    20  H    0.011935
    21  H    0.011935
    22  H    0.002971
    23  H    0.002971
 Sum of Mulliken charges =  -0.00000
 Mulliken charges with hydrogens summed into heavy atoms:
               1
     1  C   -0.099661
     2  C    0.268395
     3  C    0.268395
     4  C    0.190624
     5  C    0.190624
     6  C   -0.253320
     7  C   -0.253320
     8  C    0.028613
     9  C    0.028613
    10  C   -0.013478
    11  C   -0.013478
    12  C   -0.171003
    13  C   -0.171003
 Electronic spatial extent (au):  <R**2>=           2341.5817
 Charge=              0.0000 electrons
 Dipole moment (field-independent basis, Debye):
    X=             -0.0000    Y=             -0.0000    Z=              0.5584  Tot=              0.5584
 Quadrupole moment (field-independent basis, Debye-Ang):
   XX=            -81.4659   YY=            -70.0317   ZZ=            -67.2831
   XY=             -0.0000   XZ=              0.0000   YZ=             -0.0000
 Traceless Quadrupole moment (field-independent basis, Debye-Ang):
   XX=             -8.5390   YY=              2.8952   ZZ=              5.6438
   XY=             -0.0000   XZ=              0.0000   YZ=             -0.0000
 Octapole moment (field-independent basis, Debye-Ang**2):
  XXX=              0.0000  YYY=              0.0000  ZZZ=             -0.6543  XYY=              0.0000
  XXY=              0.0000  XXZ=              3.9469  XZZ=              0.0000  YZZ=             -0.0000
  YYZ=             -0.4856  XYZ=             -0.0000
 Hexadecapole moment (field-independent basis, Debye-Ang**3):
 XXXX=           -104.8996 YYYY=          -2271.5941 ZZZZ=           -698.4718 XXXY=             -0.0000
 XXXZ=             -0.0000 YYYX=             -0.0000 YYYZ=             -0.0000 ZZZX=              0.0000
 ZZZY=              0.0000 XXYY=           -482.9852 XXZZ=           -150.4387 YYZZ=           -494.6296
 XXYZ=              0.0000 YYXZ=             -0.0000 ZZXY=             -0.0000
 N-N= 6.969892081605D+02 E-N=-2.557784753624D+03  KE= 4.996787971172D+02
 Symmetry A1   KE= 2.606118211548D+02
 Symmetry A2   KE= 6.650418315653D+00
 Symmetry B1   KE= 8.268345524236D+00
 Symmetry B2   KE= 2.241482121225D+02
 Calling FoFJK, ICntrl=      2127 FMM=F ISym2X=1 I1Cent= 0 IOpClX= 0 NMat=1 NMatS=1 NMatT=0.
 ***** Axes restored to original set *****
 -------------------------------------------------------------------
 Center     Atomic                   Forces (Hartrees/Bohr)
 Number     Number              X              Y              Z
 -------------------------------------------------------------------
      1        6           0.000000000    0.000000000    0.000093063
      2        6          -0.000000000   -0.000025169   -0.000032454
      3        6          -0.000000000    0.000025169   -0.000032454
      4        6          -0.000000000    0.000031163   -0.000007169
      5        6          -0.000000000   -0.000031163   -0.000007169
      6        6           0.000000000   -0.000009658   -0.000006243
      7        6           0.000000000    0.000009658   -0.000006243
      8        6           0.000000000   -0.000000738    0.000040359
      9        6           0.000000000    0.000000738    0.000040359
     10        6           0.000000000   -0.000031509   -0.000030790
     11        6           0.000000000    0.000031509   -0.000030790
     12        6          -0.000000000   -0.000000832    0.000024154
     13        6          -0.000000000    0.000000832    0.000024154
     14        1           0.000009482   -0.000000000   -0.000019986
     15        1          -0.000009482   -0.000000000   -0.000019986
     16        1           0.000000000    0.000006725    0.000006858
     17        1           0.000000000   -0.000006725    0.000006858
     18        1           0.000000000    0.000005283   -0.000001922
     19        1           0.000000000   -0.000005283   -0.000001922
     20        1           0.000000000    0.000004398   -0.000003688
     21        1           0.000000000   -0.000004398   -0.000003688
     22        1          -0.000000000    0.000005039   -0.000015650
     23        1          -0.000000000   -0.000005039   -0.000015650
 -------------------------------------------------------------------
 Cartesian Forces:  Max     0.000093063 RMS     0.000018838

 GradGradGradGradGradGradGradGradGradGradGradGradGradGradGradGradGradGrad
 Berny optimization.
 FormGI is forming the generalized inverse of G from B-inverse, IUseBI=4.
 Internal  Forces:  Max     0.000030128 RMS     0.000008081
 Search for a local minimum.
 Step number   1 out of a maximum of  138
 All quantities printed in internal units (Hartrees-Bohrs-Radians)
 Mixed Optimization -- En-DIIS/RFO-DIIS
 Second derivative matrix not updated -- first step.
 ITU=  0
     Eigenvalues ---    0.00930   0.01384   0.01577   0.01708   0.01778
     Eigenvalues ---    0.01933   0.02170   0.02170   0.02185   0.02185
     Eigenvalues ---    0.02190   0.02190   0.02204   0.02204   0.02217
     Eigenvalues ---    0.02218   0.02234   0.02234   0.04923   0.07116
     Eigenvalues ---    0.08503   0.09312   0.16000   0.16000   0.16000
     Eigenvalues ---    0.16000   0.16000   0.16000   0.16000   0.16000
     Eigenvalues ---    0.22000   0.22000   0.22587   0.22601   0.23734
     Eigenvalues ---    0.24494   0.24622   0.25000   0.30203   0.30530
     Eigenvalues ---    0.34390   0.34390   0.35219   0.35659   0.35659
     Eigenvalues ---    0.35740   0.35740   0.35776   0.35776   0.35788
     Eigenvalues ---    0.35788   0.38447   0.41176   0.42872   0.42891
     Eigenvalues ---    0.45105   0.45536   0.46771   0.46771   0.46958
     Eigenvalues ---    0.46959   0.47818   0.47820
 RFO step:  Lambda=-4.00312625D-08 EMin= 9.30174006D-03
 Linear search not attempted -- first point.
 Iteration  1 RMS(Cart)=  0.00005414 RMS(Int)=  0.00000000
 Iteration  2 RMS(Cart)=  0.00000000 RMS(Int)=  0.00000000
 ClnCor:  largest displacement from symmetrization is 5.24D-11 for atom    21.
 Variable       Old X    -DE/DX   Delta X   Delta X   Delta X     New X
                                 (Linear)    (Quad)   (Total)
    R1        2.85557   0.00000   0.00000   0.00002   0.00002   2.85558
    R2        2.85557   0.00000   0.00000   0.00002   0.00002   2.85558
    R3        2.06677  -0.00000   0.00000  -0.00001  -0.00001   2.06676
    R4        2.06677  -0.00000   0.00000  -0.00001  -0.00001   2.06676
    R5        2.65571  -0.00000   0.00000  -0.00000  -0.00000   2.65571
    R6        2.61760  -0.00001   0.00000  -0.00001  -0.00001   2.61759
    R7        2.65571  -0.00000   0.00000  -0.00000  -0.00000   2.65571
    R8        2.61760  -0.00001   0.00000  -0.00001  -0.00001   2.61759
    R9        2.77074   0.00000   0.00000  -0.00000  -0.00000   2.77074
   R10        2.63019  -0.00001   0.00000  -0.00002  -0.00002   2.63016
   R11        2.63019  -0.00001   0.00000  -0.00002  -0.00002   2.63016
   R12        2.63412  -0.00001   0.00000  -0.00002  -0.00002   2.63410
   R13        2.04618   0.00001   0.00000   0.00002   0.00002   2.04620
   R14        2.63412  -0.00001   0.00000  -0.00002  -0.00002   2.63410
   R15        2.04618   0.00001   0.00000   0.00002   0.00002   2.04620
   R16        2.63397   0.00003   0.00000   0.00007   0.00007   2.63404
   R17        2.04414   0.00000   0.00000   0.00001   0.00001   2.04415
   R18        2.63397   0.00003   0.00000   0.00007   0.00007   2.63404
   R19        2.04414   0.00000   0.00000   0.00001   0.00001   2.04415
   R20        2.62817  -0.00002   0.00000  -0.00004  -0.00004   2.62813
   R21        2.04433   0.00001   0.00000   0.00002   0.00002   2.04434
   R22        2.62817  -0.00002   0.00000  -0.00004  -0.00004   2.62813
   R23        2.04433   0.00001   0.00000   0.00002   0.00002   2.04434
   R24        2.04490   0.00001   0.00000   0.00004   0.00004   2.04494
   R25        2.04490   0.00001   0.00000   0.00004   0.00004   2.04494
    A1        1.79436  -0.00003   0.00000  -0.00014  -0.00014   1.79422
    A2        1.95300   0.00000   0.00000  -0.00003  -0.00003   1.95297
    A3        1.95300   0.00000   0.00000  -0.00003  -0.00003   1.95297
    A4        1.95300   0.00000   0.00000  -0.00003  -0.00003   1.95297
    A5        1.95300   0.00000   0.00000  -0.00003  -0.00003   1.95297
    A6        1.85989   0.00001   0.00000   0.00023   0.00023   1.86012
    A7        1.92002   0.00002   0.00000   0.00011   0.00011   1.92013
    A8        2.26062  -0.00002   0.00000  -0.00010  -0.00010   2.26051
    A9        2.10255   0.00000   0.00000  -0.00001  -0.00001   2.10254
   A10        1.92002   0.00002   0.00000   0.00011   0.00011   1.92013
   A11        2.26062  -0.00002   0.00000  -0.00010  -0.00010   2.26051
   A12        2.10255   0.00000   0.00000  -0.00001  -0.00001   2.10254
   A13        1.89519  -0.00001   0.00000  -0.00004  -0.00004   1.89514
   A14        2.10068   0.00001   0.00000   0.00003   0.00003   2.10071
   A15        2.28732   0.00000   0.00000   0.00001   0.00001   2.28733
   A16        1.89519  -0.00001   0.00000  -0.00004  -0.00004   1.89514
   A17        2.10068   0.00001   0.00000   0.00003   0.00003   2.10071
   A18        2.28732   0.00000   0.00000   0.00001   0.00001   2.28733
   A19        2.07792  -0.00000   0.00000  -0.00000  -0.00000   2.07792
   A20        2.10877   0.00001   0.00000   0.00003   0.00003   2.10880
   A21        2.09649  -0.00000   0.00000  -0.00002  -0.00002   2.09647
   A22        2.07792  -0.00000   0.00000  -0.00000  -0.00000   2.07792
   A23        2.10877   0.00001   0.00000   0.00003   0.00003   2.10880
   A24        2.09649  -0.00000   0.00000  -0.00002  -0.00002   2.09647
   A25        2.10372  -0.00000   0.00000  -0.00000  -0.00000   2.10372
   A26        2.09044   0.00000   0.00000   0.00002   0.00002   2.09046
   A27        2.08902  -0.00000   0.00000  -0.00002  -0.00002   2.08900
   A28        2.10372  -0.00000   0.00000  -0.00000  -0.00000   2.10372
   A29        2.09044   0.00000   0.00000   0.00002   0.00002   2.09046
   A30        2.08902  -0.00000   0.00000  -0.00002  -0.00002   2.08900
   A31        2.10586  -0.00000   0.00000   0.00000   0.00000   2.10586
   A32        2.08755  -0.00000   0.00000  -0.00001  -0.00001   2.08754
   A33        2.08978   0.00000   0.00000   0.00000   0.00000   2.08979
   A34        2.10586  -0.00000   0.00000   0.00000   0.00000   2.10586
   A35        2.08755  -0.00000   0.00000  -0.00001  -0.00001   2.08754
   A36        2.08978   0.00000   0.00000   0.00000   0.00000   2.08979
   A37        2.07564  -0.00000   0.00000  -0.00002  -0.00002   2.07562
   A38        2.10978   0.00001   0.00000   0.00007   0.00007   2.10985
   A39        2.09776  -0.00001   0.00000  -0.00005  -0.00005   2.09771
   A40        2.07564  -0.00000   0.00000  -0.00002  -0.00002   2.07562
   A41        2.10978   0.00001   0.00000   0.00007   0.00007   2.10985
   A42        2.09776  -0.00001   0.00000  -0.00005  -0.00005   2.09771
    D1       -0.00000   0.00000   0.00000   0.00000   0.00000   0.00000
    D2        3.14159   0.00000   0.00000   0.00000   0.00000   3.14159
    D3        2.09858  -0.00001   0.00000  -0.00013  -0.00013   2.09845
    D4       -1.04301  -0.00001   0.00000  -0.00013  -0.00013  -1.04314
    D5       -2.09858   0.00001   0.00000   0.00013   0.00013  -2.09845
    D6        1.04301   0.00001   0.00000   0.00013   0.00013   1.04314
    D7        0.00000  -0.00000   0.00000  -0.00000   0.00000   0.00000
    D8        3.14159  -0.00000   0.00000  -0.00000   0.00000   3.14159
    D9       -2.09858   0.00001   0.00000   0.00013   0.00013  -2.09845
   D10        1.04301   0.00001   0.00000   0.00013   0.00013   1.04314
   D11        2.09858  -0.00001   0.00000  -0.00013  -0.00013   2.09845
   D12       -1.04301  -0.00001   0.00000  -0.00013  -0.00013  -1.04314
   D13        0.00000  -0.00000   0.00000  -0.00000   0.00000   0.00000
[...]
    13  C    0.000000   0.000000   0.000000   0.000000   0.000000   0.000000
    14  H    0.000000   0.000000   0.000000   0.000000   0.000000   0.000000
    15  H    0.000000   0.000000   0.000000   0.000000   0.000000   0.000000
    16  H    0.000000   0.000000   0.000000   0.000000   0.000000   0.000000
    17  H    0.000000   0.000000   0.000000   0.000000   0.000000   0.000000
    18  H    0.000000   0.000000   0.000000   0.000000   0.000000   0.000000
    19  H    0.000000   0.000000   0.000000   0.000000   0.000000   0.000000
    20  H    0.000000   0.000000   0.000000   0.000000   0.000000   0.000000
    21  H    0.000000   0.000000   0.000000   0.000000   0.000000   0.000000
    22  H    0.000000   0.000000   0.000000   0.000000   0.000000   0.000000
    23  H    0.000000   0.000000   0.000000   0.000000   0.000000   0.000000
              13         14         15         16         17         18
     1  C    0.000000   0.000000   0.000000   0.000000   0.000000   0.000000
     2  C    0.000000   0.000000   0.000000   0.000000   0.000000   0.000000
     3  C    0.000000   0.000000   0.000000   0.000000   0.000000   0.000000
     4  C    0.000000   0.000000   0.000000   0.000000   0.000000   0.000000
     5  C    0.000000   0.000000   0.000000   0.000000   0.000000   0.000000
     6  C    0.000000   0.000000   0.000000   0.000000   0.000000   0.000000
     7  C    0.000000   0.000000   0.000000   0.000000   0.000000   0.000000
     8  C    0.000000   0.000000   0.000000   0.000000   0.000000   0.000000
     9  C    0.000000   0.000000   0.000000   0.000000   0.000000   0.000000
    10  C    0.000000   0.000000   0.000000   0.000000   0.000000   0.000000
    11  C    0.000000   0.000000   0.000000   0.000000   0.000000   0.000000
    12  C    0.000000   0.000000   0.000000   0.000000   0.000000   0.000000
    13  C    0.000000   0.000000   0.000000   0.000000   0.000000   0.000000
    14  H    0.000000   0.000000   0.000000   0.000000   0.000000   0.000000
    15  H    0.000000   0.000000   0.000000   0.000000   0.000000   0.000000
    16  H    0.000000   0.000000   0.000000   0.000000   0.000000   0.000000
    17  H    0.000000   0.000000   0.000000   0.000000   0.000000   0.000000
    18  H    0.000000   0.000000   0.000000   0.000000   0.000000   0.000000
    19  H    0.000000   0.000000   0.000000   0.000000   0.000000   0.000000
    20  H    0.000000   0.000000   0.000000   0.000000   0.000000   0.000000
    21  H    0.000000   0.000000   0.000000   0.000000   0.000000   0.000000
    22  H    0.000000   0.000000   0.000000   0.000000   0.000000   0.000000
    23  H    0.000000   0.000000   0.000000   0.000000   0.000000   0.000000
              19         20         21         22         23
     1  C    0.000000   0.000000   0.000000   0.000000   0.000000
     2  C    0.000000   0.000000   0.000000   0.000000   0.000000
     3  C    0.000000   0.000000   0.000000   0.000000   0.000000
     4  C    0.000000   0.000000   0.000000   0.000000   0.000000
     5  C    0.000000   0.000000   0.000000   0.000000   0.000000
     6  C    0.000000   0.000000   0.000000   0.000000   0.000000
     7  C    0.000000   0.000000   0.000000   0.000000   0.000000
     8  C    0.000000   0.000000   0.000000   0.000000   0.000000
     9  C    0.000000   0.000000   0.000000   0.000000   0.000000
    10  C    0.000000   0.000000   0.000000   0.000000   0.000000
    11  C    0.000000   0.000000   0.000000   0.000000   0.000000
    12  C    0.000000   0.000000   0.000000   0.000000   0.000000
    13  C    0.000000   0.000000   0.000000   0.000000   0.000000
    14  H    0.000000   0.000000   0.000000   0.000000   0.000000
    15  H    0.000000   0.000000   0.000000   0.000000   0.000000
    16  H    0.000000   0.000000   0.000000   0.000000   0.000000
    17  H    0.000000   0.000000   0.000000   0.000000   0.000000
    18  H    0.000000   0.000000   0.000000   0.000000   0.000000
    19  H    0.000000   0.000000   0.000000   0.000000   0.000000
    20  H    0.000000   0.000000   0.000000   0.000000   0.000000
    21  H    0.000000   0.000000   0.000000   0.000000   0.000000
    22  H    0.000000   0.000000   0.000000   0.000000   0.000000
    23  H    0.000000   0.000000   0.000000   0.000000   0.000000
 Mulliken charges and spin densities:
               1          2
     1  C   -0.271423   0.000000
     2  C    0.162017   0.000000
     3  C    0.162017   0.000000
     4  C    0.160286   0.000000
     5  C    0.160286   0.000000
     6  C   -0.239535   0.000000
     7  C   -0.239535   0.000000
     8  C   -0.185507   0.000000
     9  C   -0.185507   0.000000
    10  C   -0.169698   0.000000
    11  C   -0.169698   0.000000
    12  C   -0.229058   0.000000
    13  C   -0.229058   0.000000
    14  H    0.102799   0.000000
    15  H    0.102799   0.000000
    16  H    0.135738   0.000000
    17  H    0.135738   0.000000
    18  H    0.135295   0.000000
    19  H    0.135295   0.000000
    20  H    0.136020   0.000000
    21  H    0.136020   0.000000
    22  H    0.127356   0.000000
    23  H    0.127356   0.000000
 Sum of Mulliken charges =  -0.00000   0.00000
 Mulliken charges and spin densities with hydrogens summed into heavy atoms:
               1          2
     1  C   -0.065826   0.000000
     2  C    0.162017   0.000000
     3  C    0.162017   0.000000
     4  C    0.160286   0.000000
     5  C    0.160286   0.000000
     6  C   -0.103797   0.000000
     7  C   -0.103797   0.000000
     8  C   -0.050212   0.000000
     9  C   -0.050212   0.000000
    10  C   -0.033678   0.000000
    11  C   -0.033678   0.000000
    12  C   -0.101703   0.000000
    13  C   -0.101703   0.000000
 Electronic spatial extent (au):  <R**2>=           2342.2879
 Charge=              0.0000 electrons
 Dipole moment (field-independent basis, Debye):
    X=             -0.0000    Y=             -0.0000    Z=              0.5259  Tot=              0.5259
 Quadrupole moment (field-independent basis, Debye-Ang):
   XX=            -83.1300   YY=            -69.7324   ZZ=            -66.8682
   XY=              0.0000   XZ=              0.0000   YZ=              0.0000
 Traceless Quadrupole moment (field-independent basis, Debye-Ang):
   XX=             -9.8864   YY=              3.5111   ZZ=              6.3753
   XY=              0.0000   XZ=              0.0000   YZ=              0.0000
 Octapole moment (field-independent basis, Debye-Ang**2):
  XXX=              0.0000  YYY=              0.0000  ZZZ=             -1.1851  XYY=              0.0000
  XXY=             -0.0000  XXZ=              4.3045  XZZ=              0.0000  YZZ=             -0.0000
  YYZ=             -0.1798  XYZ=             -0.0000
 Hexadecapole moment (field-independent basis, Debye-Ang**3):
 XXXX=           -107.5795 YYYY=          -2251.5704 ZZZZ=           -687.7897 XXXY=             -0.0000
 XXXZ=             -0.0000 YYYX=             -0.0000 YYYZ=             -0.0000 ZZZX=              0.0000
 ZZZY=             -0.0000 XXYY=           -492.5222 XXZZ=           -151.4953 YYZZ=           -488.9701
 XXYZ=             -0.0000 YYXZ=             -0.0000 ZZXY=             -0.0000
 N-N= 6.969892081605D+02 E-N=-2.554089637329D+03  KE= 4.978405376177D+02
 Symmetry A1   KE= 2.602120058691D+02
 Symmetry A2   KE= 6.117922548100D+00
 Symmetry B1   KE= 7.720121100101D+00
 Symmetry B2   KE= 2.237904881005D+02
 Symmetry A1   SP= 0.000000000000D+00
 Symmetry A2   SP= 0.000000000000D+00
 Symmetry B1   SP= 0.000000000000D+00
 Symmetry B2   SP= 0.000000000000D+00
                          Isotropic Fermi Contact Couplings
        Atom                 a.u.       MegaHertz       Gauss      10(-4) cm-1
     1  C(13)              0.00000       0.00000       0.00000       0.00000
     2  C(13)              0.00000       0.00000       0.00000       0.00000
     3  C(13)              0.00000       0.00000       0.00000       0.00000
     4  C(13)              0.00000       0.00000       0.00000       0.00000
     5  C(13)              0.00000       0.00000       0.00000       0.00000
     6  C(13)              0.00000       0.00000       0.00000       0.00000
     7  C(13)              0.00000       0.00000       0.00000       0.00000
     8  C(13)              0.00000       0.00000       0.00000       0.00000
     9  C(13)              0.00000       0.00000       0.00000       0.00000
    10  C(13)              0.00000       0.00000       0.00000       0.00000
    11  C(13)              0.00000       0.00000       0.00000       0.00000
    12  C(13)              0.00000       0.00000       0.00000       0.00000
    13  C(13)              0.00000       0.00000       0.00000       0.00000
    14  H(1)               0.00000       0.00000       0.00000       0.00000
    15  H(1)               0.00000       0.00000       0.00000       0.00000
    16  H(1)               0.00000       0.00000       0.00000       0.00000
    17  H(1)               0.00000       0.00000       0.00000       0.00000
    18  H(1)               0.00000       0.00000       0.00000       0.00000
    19  H(1)               0.00000       0.00000       0.00000       0.00000
    20  H(1)               0.00000       0.00000       0.00000       0.00000
    21  H(1)               0.00000       0.00000       0.00000       0.00000
    22  H(1)               0.00000       0.00000       0.00000       0.00000
    23  H(1)               0.00000       0.00000       0.00000       0.00000
 --------------------------------------------------------
       Center         ----  Spin Dipole Couplings  ----
                      3XX-RR        3YY-RR        3ZZ-RR
 --------------------------------------------------------
     1   Atom        0.000000      0.000000      0.000000
     2   Atom        0.000000      0.000000      0.000000
     3   Atom        0.000000      0.000000      0.000000
     4   Atom        0.000000      0.000000      0.000000
     5   Atom        0.000000      0.000000      0.000000
     6   Atom        0.000000      0.000000      0.000000
     7   Atom        0.000000      0.000000      0.000000
     8   Atom        0.000000      0.000000      0.000000
     9   Atom        0.000000      0.000000      0.000000
    10   Atom        0.000000      0.000000      0.000000
    11   Atom        0.000000      0.000000      0.000000
    12   Atom        0.000000      0.000000      0.000000
    13   Atom        0.000000      0.000000      0.000000
    14   Atom        0.000000      0.000000      0.000000
    15   Atom        0.000000      0.000000      0.000000
    16   Atom        0.000000      0.000000      0.000000
    17   Atom        0.000000      0.000000      0.000000
    18   Atom        0.000000      0.000000      0.000000
    19   Atom        0.000000      0.000000      0.000000
    20   Atom        0.000000      0.000000      0.000000
    21   Atom        0.000000      0.000000      0.000000
    22   Atom        0.000000      0.000000      0.000000
    23   Atom        0.000000      0.000000      0.000000
 --------------------------------------------------------
                        XY            XZ            YZ
 --------------------------------------------------------
     1   Atom        0.000000      0.000000      0.000000
     2   Atom        0.000000      0.000000      0.000000
     3   Atom        0.000000      0.000000      0.000000
     4   Atom        0.000000      0.000000      0.000000
     5   Atom        0.000000      0.000000      0.000000
     6   Atom        0.000000      0.000000      0.000000
     7   Atom        0.000000      0.000000      0.000000
     8   Atom        0.000000      0.000000      0.000000
     9   Atom        0.000000      0.000000      0.000000
    10   Atom        0.000000      0.000000      0.000000
    11   Atom        0.000000      0.000000      0.000000
    12   Atom        0.000000      0.000000      0.000000
    13   Atom        0.000000      0.000000      0.000000
    14   Atom        0.000000      0.000000      0.000000
    15   Atom        0.000000      0.000000      0.000000
    16   Atom        0.000000      0.000000      0.000000
    17   Atom        0.000000      0.000000      0.000000
    18   Atom        0.000000      0.000000      0.000000
    19   Atom        0.000000      0.000000      0.000000
    20   Atom        0.000000      0.000000      0.000000
    21   Atom        0.000000      0.000000      0.000000
    22   Atom        0.000000      0.000000      0.000000
    23   Atom        0.000000      0.000000      0.000000
 --------------------------------------------------------


 ---------------------------------------------------------------------------------
              Anisotropic Spin Dipole Couplings in Principal Axis System
 ---------------------------------------------------------------------------------

       Atom             a.u.   MegaHertz   Gauss  10(-4) cm-1        Axes

              Baa     0.0000     0.000     0.000     0.000  1.0000  0.0000  0.0000
     1 C(13)  Bbb     0.0000     0.000     0.000     0.000 -0.0000  1.0000  0.0000
              Bcc     0.0000     0.000     0.000     0.000  0.0000  0.0000  1.0000
 
              Baa     0.0000     0.000     0.000     0.000  1.0000  0.0000  0.0000
     2 C(13)  Bbb     0.0000     0.000     0.000     0.000 -0.0000  1.0000  0.0000
              Bcc     0.0000     0.000     0.000     0.000  0.0000  0.0000  1.0000
 
              Baa     0.0000     0.000     0.000     0.000  1.0000  0.0000  0.0000
     3 C(13)  Bbb     0.0000     0.000     0.000     0.000 -0.0000  1.0000  0.0000
              Bcc     0.0000     0.000     0.000     0.000  0.0000  0.0000  1.0000
 
              Baa     0.0000     0.000     0.000     0.000  1.0000  0.0000  0.0000
     4 C(13)  Bbb     0.0000     0.000     0.000     0.000 -0.0000  1.0000  0.0000
              Bcc     0.0000     0.000     0.000     0.000  0.0000  0.0000  1.0000
 
              Baa     0.0000     0.000     0.000     0.000  1.0000  0.0000  0.0000
     5 C(13)  Bbb     0.0000     0.000     0.000     0.000 -0.0000  1.0000  0.0000
              Bcc     0.0000     0.000     0.000     0.000  0.0000  0.0000  1.0000
 
              Baa     0.0000     0.000     0.000     0.000  1.0000  0.0000  0.0000
     6 C(13)  Bbb     0.0000     0.000     0.000     0.000 -0.0000  1.0000  0.0000
              Bcc     0.0000     0.000     0.000     0.000  0.0000  0.0000  1.0000
 
              Baa     0.0000     0.000     0.000     0.000  1.0000  0.0000  0.0000
     7 C(13)  Bbb     0.0000     0.000     0.000     0.000 -0.0000  1.0000  0.0000
              Bcc     0.0000     0.000     0.000     0.000  0.0000  0.0000  1.0000
 
              Baa     0.0000     0.000     0.000     0.000  1.0000  0.0000  0.0000
     8 C(13)  Bbb     0.0000     0.000     0.000     0.000 -0.0000  1.0000  0.0000
              Bcc     0.0000     0.000     0.000     0.000  0.0000  0.0000  1.0000
 
              Baa     0.0000     0.000     0.000     0.000  1.0000  0.0000  0.0000
     9 C(13)  Bbb     0.0000     0.000     0.000     0.000 -0.0000  1.0000  0.0000
              Bcc     0.0000     0.000     0.000     0.000  0.0000  0.0000  1.0000
 
              Baa     0.0000     0.000     0.000     0.000  1.0000  0.0000  0.0000
    10 C(13)  Bbb     0.0000     0.000     0.000     0.000 -0.0000  1.0000  0.0000
              Bcc     0.0000     0.000     0.000     0.000  0.0000  0.0000  1.0000
 
              Baa     0.0000     0.000     0.000     0.000  1.0000  0.0000  0.0000
    11 C(13)  Bbb     0.0000     0.000     0.000     0.000 -0.0000  1.0000  0.0000
              Bcc     0.0000     0.000     0.000     0.000  0.0000  0.0000  1.0000
 
              Baa     0.0000     0.000     0.000     0.000  1.0000  0.0000  0.0000
    12 C(13)  Bbb     0.0000     0.000     0.000     0.000 -0.0000  1.0000  0.0000
              Bcc     0.0000     0.000     0.000     0.000  0.0000  0.0000  1.0000
 
              Baa     0.0000     0.000     0.000     0.000  1.0000  0.0000  0.0000
    13 C(13)  Bbb     0.0000     0.000     0.000     0.000 -0.0000  1.0000  0.0000
              Bcc     0.0000     0.000     0.000     0.000  0.0000  0.0000  1.0000
 
              Baa     0.0000     0.000     0.000     0.000  1.0000  0.0000  0.0000
    14 H(1)   Bbb     0.0000     0.000     0.000     0.000 -0.0000  1.0000  0.0000
              Bcc     0.0000     0.000     0.000     0.000  0.0000  0.0000  1.0000
 
              Baa     0.0000     0.000     0.000     0.000  1.0000  0.0000  0.0000
    15 H(1)   Bbb     0.0000     0.000     0.000     0.000 -0.0000  1.0000  0.0000
              Bcc     0.0000     0.000     0.000     0.000  0.0000  0.0000  1.0000
 
              Baa     0.0000     0.000     0.000     0.000  1.0000  0.0000  0.0000
    16 H(1)   Bbb     0.0000     0.000     0.000     0.000 -0.0000  1.0000  0.0000
              Bcc     0.0000     0.000     0.000     0.000  0.0000  0.0000  1.0000
 
              Baa     0.0000     0.000     0.000     0.000  1.0000  0.0000  0.0000
    17 H(1)   Bbb     0.0000     0.000     0.000     0.000 -0.0000  1.0000  0.0000
              Bcc     0.0000     0.000     0.000     0.000  0.0000  0.0000  1.0000
 
              Baa     0.0000     0.000     0.000     0.000  1.0000  0.0000  0.0000
    18 H(1)   Bbb     0.0000     0.000     0.000     0.000 -0.0000  1.0000  0.0000
              Bcc     0.0000     0.000     0.000     0.000  0.0000  0.0000  1.0000
 
              Baa     0.0000     0.000     0.000     0.000  1.0000  0.0000  0.0000
    19 H(1)   Bbb     0.0000     0.000     0.000     0.000 -0.0000  1.0000  0.0000
              Bcc     0.0000     0.000     0.000     0.000  0.0000  0.0000  1.0000
 
              Baa     0.0000     0.000     0.000     0.000  1.0000  0.0000  0.0000
    20 H(1)   Bbb     0.0000     0.000     0.000     0.000 -0.0000  1.0000  0.0000
              Bcc     0.0000     0.000     0.000     0.000  0.0000  0.0000  1.0000
 
              Baa     0.0000     0.000     0.000     0.000  1.0000  0.0000  0.0000
    21 H(1)   Bbb     0.0000     0.000     0.000     0.000 -0.0000  1.0000  0.0000
              Bcc     0.0000     0.000     0.000     0.000  0.0000  0.0000  1.0000
 
              Baa     0.0000     0.000     0.000     0.000  1.0000  0.0000  0.0000
    22 H(1)   Bbb     0.0000     0.000     0.000     0.000 -0.0000  1.0000  0.0000
              Bcc     0.0000     0.000     0.000     0.000  0.0000  0.0000  1.0000
 
              Baa     0.0000     0.000     0.000     0.000  1.0000  0.0000  0.0000
    23 H(1)   Bbb     0.0000     0.000     0.000     0.000 -0.0000  1.0000  0.0000
              Bcc     0.0000     0.000     0.000     0.000  0.0000  0.0000  1.0000
 

 ---------------------------------------------------------------------------------

 1\1\GINC-GAMBA\SP\ROHF\Gen\C13H10\IRIKURA\29-Sep-2023\0\\# rohf/gen ge
 om=check guess=check\\Fluorene, ROHF/cc-pVTZ-F12\\0,1\C,0,0.,0.,1.8254
 79\C,0,0.,1.181034,0.88283\C,0,0.,-1.181034,0.88283\C,0,0.,0.733107,-0
 .449218\C,0,0.,-0.733107,-0.449218\C,0,0.,2.536534,1.168005\C,0,0.,-2.
 536534,1.168005\C,0,0.,3.449869,0.115001\C,0,0.,-3.449869,0.115001\C,0
 ,0.,3.006943,-1.20659\C,0,0.,-3.006943,-1.20659\C,0,0.,1.647218,-1.498
 791\C,0,0.,-1.647218,-1.498791\H,0,0.876685,0.,2.47937\H,0,-0.876685,0
 .,2.47937\H,0,0.,2.88803,2.192156\H,0,0.,-2.88803,2.192156\H,0,0.,4.51
 1113,0.32443\H,0,0.,-4.511113,0.32443\H,0,0.,3.728904,-2.01225\H,0,0.,
 -3.728904,-2.01225\H,0,0.,1.311663,-2.527567\H,0,0.,-1.311663,-2.52756
 7\\Version=ES64L-G16RevB.01\State=1-A1\HF=-498.3170315\RMSD=4.906e-09\
 Dipole=0.,0.,0.2068992\Quadrupole=-7.3503181,2.6104084,4.7399097,0.,0.
 ,0.\PG=C02V [C2(C1),SGV(C12H8),SGV'(H2)]\\@


 ON A CLEAR DISK YOU CAN SEEK FOREVER.
 Job cpu time:       0 days  2 hours 13 minutes 10.2 seconds.
 Elapsed time:       0 days  0 hours 33 minutes 18.6 seconds.
 File lengths (MBytes):  RWF=    535 Int=      0 D2E=      0 Chk=     63 Scr=      1
 Normal termination of Gaussian 16 at Fri Sep 29 22:12:51 2023.
