 Entering Gaussian System, Link 0=g16
 AtFile(1): pcseg2.gbs
            -H     0
            S   4   1.00
                  0.754732D+02           0.427821D-02
                  0.113575D+02           0.328672D-01
                  0.260081D+01           0.159578D+00
                  0.735503D+00           0.500000D+00
            S   1   1.00
                  0.231761D+00           1.0000000
            S   1   1.00
                  0.741675D-01           1.0000000
            P   1   1.00
                  0.160000D+01           1.0000000
            P   1   1.00
                  0.450000D+00           1.0000000
            D   1   1.00
                  0.125000D+01           1.0000000
            ****
            -C     0
            S   7   1.00
                  0.731999D+04           0.695369D-03
                  0.109818D+04           0.537138D-02
                  0.250014D+03           0.274734D-01
                  0.707586D+02           0.105078D+00
                  0.228595D+02           0.291262D+00
                  0.803936D+01           0.500000D+00
                  0.289309D+01           0.362224D+00
            S   2   1.00
                  0.521640D+01          -0.957844D-01
                  0.556124D+00           0.500000D+00
            S   1   1.00
                  0.228813D+00           1.0000000
            S   1   1.00
                  0.936338D-01           1.0000000
            P   4   1.00
                  0.339855D+02           0.818395D-02
                  0.772957D+01           0.586921D-01
                  0.224954D+01           0.222514D+00
                  0.767681D+00           0.500000D+00
            P   1   1.00
                  0.263283D+00           1.0000000
            P   1   1.00
                  0.848744D-01           1.0000000
            D   1   1.00
                  0.140000D+01           1.0000000
            D   1   1.00
                  0.450000D+00           1.0000000
            F   1   1.00
                  0.950000D+00           1.0000000
            ****
            -O     0
            S   7   1.00
                  0.135887D+05           0.665492D-03
                  0.203847D+04           0.514222D-02
                  0.464041D+03           0.263472D-01
                  0.131339D+03           0.101500D+00
                  0.425340D+02           0.285877D+00
                  0.150429D+02           0.500000D+00
                  0.546616D+01           0.368211D+00
            S   2   1.00
                  0.100915D+02          -0.100084D+00
                  0.110429D+01           0.500000D+00
            S   1   1.00
                  0.448082D+00           1.0000000
            S   1   1.00
                  0.175325D+00           1.0000000
            P   4   1.00
                  0.608220D+02           0.908253D-02
                  0.140332D+02           0.645878D-01
                  0.418244D+01           0.241502D+00
                  0.142490D+01           0.500000D+00
            P   1   1.00
                  0.478741D+00           1.0000000
            P   1   1.00
                  0.146257D+00           1.0000000
            D   1   1.00
                  0.220000D+01           1.0000000
            D   1   1.00
                  0.650000D+00           1.0000000
            F   1   1.00
                  0.110000D+01           1.0000000
            ****
            -N     0
            S   7   1.00
                  0.101643D+05           0.682757D-03
                  0.152481D+04           0.527488D-02
                  0.347119D+03           0.270037D-01
                  0.982389D+02           0.103673D+00
                  0.317799D+02           0.289575D+00
                  0.112240D+02           0.500000D+00
                  0.406611D+01           0.364621D+00
            S   2   1.00
                  0.747898D+01          -0.975681D-01
                  0.805040D+00           0.500000D+00
            S   1   1.00
                  0.324626D+00           1.0000000
            S   1   1.00
                  0.128132D+00           1.0000000
            P   4   1.00
                  0.482704D+02           0.829547D-02
                  0.110815D+02           0.596223D-01
                  0.326643D+01           0.227889D+00
                  0.111680D+01           0.500000D+00
            P   1   1.00
                  0.382049D+00           1.0000000
            P   1   1.00
                  0.121222D+00           1.0000000
            D   1   1.00
                  0.180000D+01           1.0000000
            D   1   1.00
                  0.550000D+00           1.0000000
            F   1   1.00
                  0.102000D+01           1.0000000
            ****
            -F     0
            S   7   1.00
                  0.174507D+05           0.655972D-03
                  0.261768D+04           0.506944D-02
                  0.595857D+03           0.259899D-01
                  0.168651D+03           0.100353D+00
                  0.546654D+02           0.284095D+00
                  0.193717D+02           0.500000D+00
                  0.706202D+01           0.370721D+00
            S   2   1.00
                  0.131197D+02          -0.101997D+00
                  0.145046D+01           0.500000D+00
            S   1   1.00
                  0.588255D+00           1.0000000
            S   1   1.00
                  0.227960D+00           1.0000000
            P   4   1.00
                  0.779407D+02           0.931135D-02
                  0.180425D+02           0.663964D-01
                  0.542342D+01           0.246386D+00
                  0.184876D+01           0.500000D+00
            P   1   1.00
                  0.617455D+00           1.0000000
            P   1   1.00
                  0.185496D+00           1.0000000
            D   1   1.00
                  0.280000D+01           1.0000000
            D   1   1.00
                  0.800000D+00           1.0000000
            F   1   1.00
                  0.120000D+01           1.0000000
            ****
            -Cl     0
            S   8   1.00
                  0.154272D+06           0.222473D-03
                  0.231232D+05           0.172590D-02
                  0.526257D+04           0.899286D-02
                  0.148995D+04           0.367724D-01
                  0.485417D+03           0.121446D+00
                  0.174634D+03           0.304148D+00
                  0.672393D+02           0.500000D+00
                  0.265780D+02           0.360252D+00
            S   3   1.00
                  0.131826D+03          -0.531330D-01
                  0.400703D+02          -0.233346D+00
                  0.789448D+01           0.500000D+00
            S   2   1.00
                  0.427711D+01           0.500000D+00
                  0.196233D+01           0.370517D+00
            S   1   1.00
                  0.520793D+00           1.0000000
            S   1   1.00
                  0.181633D+00           1.0000000
            P   7   1.00
                  0.124440D+04           0.988206D-03
                  0.295109D+03           0.829674D-02
                  0.947224D+02           0.430906D-01
                  0.352588D+02           0.148443D+00
                  0.144211D+02           0.344744D+00
                  0.610371D+01           0.500000D+00
                  0.258886D+01           0.348278D+00
            P   2   1.00
                  0.109447D+02          -0.196768D-01
                  0.104413D+01           0.500000D+00
            P   1   1.00
                  0.376184D+00           1.0000000
            P   1   1.00
                  0.120613D+00           1.0000000
            D   1   1.00
                  0.231000D+01           1.0000000
            D   1   1.00
                  0.520000D+00           1.0000000
            F   1   1.00
                  0.720000D+00           1.0000000
            ****
            -S     0
            S   8   1.00
                  0.134700D+06           0.226231D-03
                  0.201904D+05           0.175488D-02
                  0.459528D+04           0.914190D-02
                  0.130109D+04           0.373551D-01
                  0.423902D+03           0.123121D+00
                  0.152485D+03           0.306801D+00
                  0.586925D+02           0.500000D+00
                  0.231461D+02           0.354358D+00
            S   3   1.00
                  0.116327D+03          -0.491772D-01
                  0.352841D+02          -0.215962D+00
                  0.677831D+01           0.500000D+00
            S   2   1.00
                  0.360404D+01           0.500000D+00
                  0.164871D+01           0.366278D+00
            S   1   1.00
                  0.421821D+00           1.0000000
            S   1   1.00
                  0.147554D+00           1.0000000
            P   7   1.00
                  0.104863D+04           0.105273D-02
                  0.248717D+03           0.879338D-02
                  0.797887D+02           0.453358D-01
                  0.296023D+02           0.154476D+00
                  0.120627D+02           0.352366D+00
                  0.507628D+01           0.500000D+00
                  0.213375D+01           0.346429D+00
            P   2   1.00
                  0.928958D+01          -0.185932D-01
                  0.837819D+00           0.500000D+00
            P   1   1.00
                  0.301495D+00           1.0000000
            P   1   1.00
                  0.974740D-01           1.0000000
            D   1   1.00
                  0.210000D+01           1.0000000
            D   1   1.00
                  0.480000D+00           1.0000000
            F   1   1.00
                  0.660000D+00           1.0000000
            ****
            -Br     0
            S    10   1.00
                  0.233625D+07           0.532336D-04
                  0.349961D+06           0.413715D-03
                  0.796444D+05           0.217123D-02
                  0.225555D+05           0.910109D-02
                  0.735546D+04           0.323789D-01
                  0.265352D+04           0.988755D-01
                  0.103517D+04           0.248138D+00
                  0.422205D+03           0.474328D+00
                  0.180035D+03           0.500000D+00
                  0.793308D+02           0.187769D+00
            S    4   1.00
                  0.620834D+03          -0.226511D-01
                  0.190829D+03          -0.109497D+00
                  0.312505D+02           0.500000D+00
                  0.135270D+02           0.492812D+00
            S    2   1.00
                  0.216097D+02          -0.165418D+00
                  0.372566D+01           0.500000D+00
            S    1   1.00
                  0.169770D+01           1.0000000
            S    1   1.00
                  0.489332D+00           1.0000000
            S    1   1.00
                  0.175712D+00           1.0000000
            P    8   1.00
                  0.960829D+04           0.478974D-03
                  0.227618D+04           0.417853D-02
                  0.736723D+03           0.229315D-01
                  0.281579D+03           0.892653D-01
                  0.118395D+03           0.255288D+00
                  0.527481D+02           0.479074D+00
                  0.245098D+02           0.500000D+00
                  0.112009D+02           0.200944D+00
            P    4   1.00
                  0.587849D+02          -0.189674D-01
                  0.918962D+01           0.264104D+00
                  0.413895D+01           0.500000D+00
                  0.184225D+01           0.319316D+00
            P    1   1.00
                  0.713862D+00           1.0000000
            P    1   1.00
                  0.274232D+00           1.0000000
            P    1   1.00
                  0.944411D-01           1.0000000
            D    7   1.00
                  0.398470D+03           0.204066D-02
                  0.118967D+03           0.175171D-01
                  0.450197D+02           0.829708D-01
                  0.190320D+02           0.236284D+00
                  0.855686D+01           0.428468D+00
                  0.382950D+01           0.500000D+00
                  0.166291D+01           0.349360D+00
            D    1   1.00
                  0.672953D+00           1.0000000
            D    1   1.00
                  0.252000D+00           1.0000000
            F    1   1.00
                  0.530000D+00           1.0000000
            ****
            -Si     0
            S    8   1.00
                  0.996133D+05           0.235546D-03
                  0.149311D+05           0.182707D-02
                  0.339820D+04           0.951425D-02
                  0.962140D+03           0.388172D-01
                  0.313430D+03           0.127328D+00
                  0.112683D+03           0.313522D+00
                  0.433372D+02           0.500000D+00
                  0.170029D+02           0.340347D+00
            S    3   1.00
                  0.884208D+02          -0.404451D-01
                  0.266756D+02          -0.178059D+00
                  0.479640D+01           0.500000D+00
            S    2   1.00
                  0.239385D+01           0.500000D+00
                  0.108333D+01           0.338016D+00
            S    1   1.00
                  0.252420D+00           1.0000000
            S    1   1.00
                  0.891210D-01           1.0000000
            P    7   1.00
                  0.709901D+03           0.123028D-02
                  0.168426D+03           0.101366D-01
                  0.539946D+02           0.511840D-01
                  0.198646D+02           0.169967D+00
                  0.801369D+01           0.370717D+00
                  0.331870D+01           0.500000D+00
                  0.136112D+01           0.344128D+00
            P    2   1.00
                  0.622158D+01          -0.166609D-01
                  0.503049D+00           0.500000D+00
            P    1   1.00
                  0.179848D+00           1.0000000
            P    1   1.00
                  0.591912D-01           1.0000000
            D    1   1.00
                  0.168000D+01           1.0000000
            D    1   1.00
                  0.380000D+00           1.0000000
            F    1   1.00
                  0.540000D+00           1.0000000
            ****
            -P     0
            S    8   1.00
                  0.116416D+06           0.230715D-03
                  0.174500D+05           0.178960D-02
                  0.397149D+04           0.932116D-02
                  0.112447D+04           0.380591D-01
                  0.366347D+03           0.125148D+00
                  0.131757D+03           0.310022D+00
                  0.506988D+02           0.500000D+00
                  0.199436D+02           0.347528D+00
            S    3   1.00
                  0.101878D+03          -0.446755D-01
                  0.308249D+02          -0.196376D+00
                  0.573688D+01           0.500000D+00
            S    2   1.00
                  0.296868D+01           0.500000D+00
                  0.135315D+01           0.355098D+00
            S    1   1.00
                  0.332196D+00           1.0000000
            S    1   1.00
                  0.116229D+00           1.0000000
            P    7   1.00
                  0.873928D+03           0.112375D-02
                  0.207298D+03           0.933330D-02
                  0.664628D+02           0.477213D-01
                  0.245665D+02           0.160733D+00
                  0.996820D+01           0.359760D+00
                  0.416536D+01           0.500000D+00
                  0.173022D+01           0.346593D+00
            P    2   1.00
                  0.772530D+01          -0.175718D-01
                  0.657252D+00           0.500000D+00
            P    1   1.00
                  0.239903D+00           1.0000000
            P    1   1.00
                  0.800988D-01           1.0000000
            D    1   1.00
                  0.189000D+01           1.0000000
            D    1   1.00
                  0.430000D+00           1.0000000
            F    1   1.00
                  0.600000D+00           1.0000000
            ****
            
 Initial command:
 /usr/local/apps/g16_b01_avx/g16/l1.exe "/wrk/irikura/Gau-1770.inp" -scrdir="/wrk/irikura/"
 Entering Link 1 = /usr/local/apps/g16_b01_avx/g16/l1.exe PID=      1772.
  
 Copyright (c) 1988-2017, Gaussian, Inc.  All Rights Reserved.
  
 This is part of the Gaussian(R) 16 program.  It is based on
 the Gaussian(R) 09 system (copyright 2009, Gaussian, Inc.),
 the Gaussian(R) 03 system (copyright 2003, Gaussian, Inc.),
 the Gaussian(R) 98 system (copyright 1998, Gaussian, Inc.),
 the Gaussian(R) 94 system (copyright 1995, Gaussian, Inc.),
 the Gaussian 92(TM) system (copyright 1992, Gaussian, Inc.),
 the Gaussian 90(TM) system (copyright 1990, Gaussian, Inc.),
 the Gaussian 88(TM) system (copyright 1988, Gaussian, Inc.),
 the Gaussian 86(TM) system (copyright 1986, Carnegie Mellon
 University), and the Gaussian 82(TM) system (copyright 1983,
 Carnegie Mellon University). Gaussian is a federally registered
 trademark of Gaussian, Inc.
  
 This software contains proprietary and confidential information,
 including trade secrets, belonging to Gaussian, Inc.
  
 This software is provided under written license and may be
 used, copied, transmitted, or stored only in accord with that
 written license.
  
 The following legend is applicable only to US Government
 contracts under FAR:
  
                    RESTRICTED RIGHTS LEGEND
  
 Use, reproduction and disclosure by the US Government is
 subject to restrictions as set forth in subparagraphs (a)
 and (c) of the Commercial Computer Software - Restricted
 Rights clause in FAR 52.227-19.
  
 Gaussian, Inc.
 340 Quinnipiac St., Bldg. 40, Wallingford CT 06492
  
  
 ---------------------------------------------------------------
 Warning -- This program may not be used in any manner that
 competes with the business of Gaussian, Inc. or will provide
 assistance to any competitor of Gaussian, Inc.  The licensee
 of this program is prohibited from giving any competitor of
 Gaussian, Inc. access to this program.  By using this program,
 the user acknowledges that Gaussian, Inc. is engaged in the
 business of creating and licensing software in the field of
 computational chemistry and represents and warrants to the
 licensee that it is not a competitor of Gaussian, Inc. and that
 it will not use this program in any manner prohibited above.
 ---------------------------------------------------------------
  

 Cite this work as:
 Gaussian 16, Revision B.01,
 M. J. Frisch, G. W. Trucks, H. B. Schlegel, G. E. Scuseria, 
 M. A. Robb, J. R. Cheeseman, G. Scalmani, V. Barone, 
 G. A. Petersson, H. Nakatsuji, X. Li, M. Caricato, A. V. Marenich, 
 J. Bloino, B. G. Janesko, R. Gomperts, B. Mennucci, H. P. Hratchian, 
 J. V. Ortiz, A. F. Izmaylov, J. L. Sonnenberg, D. Williams-Young, 
 F. Ding, F. Lipparini, F. Egidi, J. Goings, B. Peng, A. Petrone, 
 T. Henderson, D. Ranasinghe, V. G. Zakrzewski, J. Gao, N. Rega, 
 G. Zheng, W. Liang, M. Hada, M. Ehara, K. Toyota, R. Fukuda, 
 J. Hasegawa, M. Ishida, T. Nakajima, Y. Honda, O. Kitao, H. Nakai, 
 T. Vreven, K. Throssell, J. A. Montgomery, Jr., J. E. Peralta, 
 F. Ogliaro, M. J. Bearpark, J. J. Heyd, E. N. Brothers, K. N. Kudin, 
 V. N. Staroverov, T. A. Keith, R. Kobayashi, J. Normand, 
 K. Raghavachari, A. P. Rendell, J. C. Burant, S. S. Iyengar, 
 J. Tomasi, M. Cossi, J. M. Millam, M. Klene, C. Adamo, R. Cammi, 
 J. W. Ochterski, R. L. Martin, K. Morokuma, O. Farkas, 
 J. B. Foresman, and D. J. Fox, Gaussian, Inc., Wallingford CT, 2016.
 
 ******************************************
 Gaussian 16:  ES64L-G16RevB.01 20-Dec-2017
                17-Jun-2022 
 ******************************************
 %mem=1000mw
 %nprocs=12
 Will use up to   12 processors via shared memory.
 --------------------
 # b3lyp/gen opt freq
 --------------------
 1/18=20,19=15,26=3,38=1/1,3;
 2/9=110,12=2,17=6,18=5,40=1/2;
 3/5=7,11=2,25=1,30=1,71=1,74=-5/1,2,3;
 4//1;
 5/5=2,38=5/2;
 6/7=2,8=2,9=2,10=2,28=1/1;
 7//1,2,3,16;
 1/18=20,19=15,26=3/3(2);
 2/9=110/2;
 99//99;
 2/9=110/2;
 3/5=7,6=1,11=2,25=1,30=1,71=1,74=-5,82=7/1,2,3;
 4/5=5,16=3,69=1/1;
 5/5=2,38=5/2;
 7//1,2,3,16;
 1/18=20,19=15,26=3/3(-5);
 2/9=110/2;
 6/7=2,8=2,9=2,10=2,19=2,28=1/1;
 99/9=1/99;
 --------------------------------
 nitrosyl fluoride, B3LYP/pcseg-2
 --------------------------------
 Symbolic Z-matrix:
 Charge =  0 Multiplicity = 1
 F                    -0.95425  -0.63896   0. 
 N                     0.        0.56716   0. 
 O                     1.07353   0.22256   0. 
 

 GradGradGradGradGradGradGradGradGradGradGradGradGradGradGradGradGradGrad
 Berny optimization.
 Initialization pass.
                           ----------------------------
                           !    Initial Parameters    !
                           ! (Angstroms and Degrees)  !
 --------------------------                            --------------------------
 ! Name  Definition              Value          Derivative Info.                !
 --------------------------------------------------------------------------------
 ! R1    R(1,2)                  1.538          estimate D2E/DX2                !
 ! R2    R(2,3)                  1.1275         estimate D2E/DX2                !
 ! A1    A(1,2,3)              110.5538         estimate D2E/DX2                !
 --------------------------------------------------------------------------------
 Trust Radius=3.00D-01 FncErr=1.00D-07 GrdErr=1.00D-06 EigMax=2.50D+02 EigMin=1.00D-04
 Number of steps in this run=     20 maximum allowed number of steps=    100.
 GradGradGradGradGradGradGradGradGradGradGradGradGradGradGradGradGradGrad

                          Input orientation:                          
 ---------------------------------------------------------------------
 Center     Atomic      Atomic             Coordinates (Angstroms)
 Number     Number       Type             X           Y           Z
 ---------------------------------------------------------------------
      1          9           0       -0.954247   -0.638955    0.000000
      2          7           0        0.000000    0.567158    0.000000
      3          8           0        1.073528    0.222561    0.000000
 ---------------------------------------------------------------------
                    Distance matrix (angstroms):
                    1          2          3
     1  F    0.000000
     2  N    1.537952   0.000000
     3  O    2.203198   1.127479   0.000000
 Stoichiometry    FNO
 Framework group  CS[SG(FNO)]
 Deg. of freedom     3
 Full point group                 CS      NOp   2
 Largest Abelian subgroup         CS      NOp   2
 Largest concise Abelian subgroup C1      NOp   1
                         Standard orientation:                         
 ---------------------------------------------------------------------
 Center     Atomic      Atomic             Coordinates (Angstroms)
 Number     Number       Type             X           Y           Z
 ---------------------------------------------------------------------
      1          9           0       -0.954247   -0.638955    0.000000
      2          7           0        0.000000    0.567158   -0.000000
      3          8           0        1.073528    0.222561   -0.000000
 ---------------------------------------------------------------------
 Rotational constants (GHZ):          96.0133062          11.6190943          10.3647940
 General basis read from cards:  (5D, 7F)
 There are    72 symmetry adapted cartesian basis functions of A'  symmetry.
 There are    33 symmetry adapted cartesian basis functions of A"  symmetry.
 There are    60 symmetry adapted basis functions of A'  symmetry.
 There are    30 symmetry adapted basis functions of A"  symmetry.
    90 basis functions,   153 primitive gaussians,   105 cartesian basis functions
    12 alpha electrons       12 beta electrons
       nuclear repulsion energy        65.2537201096 Hartrees.
 NAtoms=    3 NActive=    3 NUniq=    3 SFac= 1.00D+00 NAtFMM=   60 NAOKFM=F Big=F
 Integral buffers will be    131072 words long.
 Raffenetti 2 integral format.
 Two-electron integral symmetry is turned on.
 One-electron integrals computed using PRISM.
 NBasis=    90 RedAO= T EigKep=  9.80D-04  NBF=    60    30
 NBsUse=    90 1.00D-06 EigRej= -1.00D+00 NBFU=    60    30
 ExpMin= 1.21D-01 ExpMax= 1.75D+04 ExpMxC= 5.96D+02 IAcc=3 IRadAn=         5 AccDes= 0.00D+00
 Harris functional with IExCor=  402 and IRadAn=       5 diagonalized for initial guess.
 HarFok:  IExCor=  402 AccDes= 0.00D+00 IRadAn=         5 IDoV= 1 UseB2=F ITyADJ=14
 ICtDFT=  3500011 ScaDFX=  1.000000  1.000000  1.000000  1.000000
 FoFCou: FMM=F IPFlag=           0 FMFlag=      100000 FMFlg1=           0
         NFxFlg=           0 DoJE=T BraDBF=F KetDBF=T FulRan=T
         wScrn=  0.000000 ICntrl=       500 IOpCl=  0 I1Cent=   200000004 NGrid=           0
         NMat0=    1 NMatS0=      1 NMatT0=    0 NMatD0=    1 NMtDS0=    0 NMtDT0=    0
 Petite list used in FoFCou.
 Initial guess orbital symmetries:
       Occupied  (A') (A') (A') (A') (A') (A') (A') (A") (A') (A")
                 (A') (A')
       Virtual   (A") (A') (A') (A') (A') (A") (A') (A') (A") (A')
                 (A") (A') (A') (A') (A') (A") (A') (A") (A') (A')
                 (A") (A') (A") (A') (A') (A") (A') (A') (A") (A')
                 (A") (A') (A') (A") (A') (A') (A') (A") (A') (A')
                 (A") (A') (A") (A') (A") (A') (A") (A') (A') (A")
                 (A") (A') (A') (A') (A') (A') (A") (A") (A') (A")
                 (A') (A") (A') (A') (A") (A") (A') (A') (A") (A')
                 (A') (A') (A') (A") (A') (A") (A') (A')
 The electronic state of the initial guess is 1-A'.
 Keep R1 ints in memory in symmetry-blocked form, NReq=19563946.
 Requested convergence on RMS density matrix=1.00D-08 within 128 cycles.
 Requested convergence on MAX density matrix=1.00D-06.
 Requested convergence on             energy=1.00D-06.
 No special actions if energy rises.
 Integral accuracy reduced to 1.0D-05 until final iterations.
 EnCoef did     3 forward-backward iterations
 EnCoef did     2 forward-backward iterations
 Initial convergence to 1.0D-05 achieved.  Increase integral accuracy.
 SCF Done:  E(RB3LYP) =  -229.813125859     A.U. after   14 cycles
            NFock= 14  Conv=0.81D-08     -V/T= 2.0026

 **********************************************************************

            Population analysis using the SCF Density.

 **********************************************************************

 Orbital symmetries:
       Occupied  (A') (A') (A') (A') (A') (A') (A') (A") (A') (A")
                 (A') (A')
       Virtual   (A") (A') (A') (A') (A') (A") (A') (A") (A') (A')
                 (A') (A") (A') (A') (A') (A") (A') (A") (A') (A')
                 (A") (A') (A") (A') (A') (A") (A') (A') (A") (A')
                 (A") (A') (A') (A") (A') (A') (A') (A") (A') (A')
                 (A") (A') (A") (A") (A') (A') (A") (A') (A') (A")
                 (A') (A') (A") (A') (A') (A') (A") (A") (A") (A')
                 (A') (A") (A') (A") (A') (A") (A') (A') (A") (A')
                 (A') (A') (A') (A") (A') (A") (A') (A')
 The electronic state is 1-A'.
 Alpha  occ. eigenvalues --  -24.67772 -19.30100 -14.57194  -1.33064  -1.16243
 Alpha  occ. eigenvalues --   -0.72999  -0.60234  -0.58165  -0.56345  -0.41177
 Alpha  occ. eigenvalues --   -0.40232  -0.35770
 Alpha virt. eigenvalues --   -0.14368  -0.03497   0.13575   0.21128   0.22104
 Alpha virt. eigenvalues --    0.22598   0.30406   0.36513   0.36965   0.45147
 Alpha virt. eigenvalues --    0.48262   0.48671   0.55033   0.67652   0.82467
 Alpha virt. eigenvalues --    1.02573   1.15371   1.16671   1.26088   1.37927
 Alpha virt. eigenvalues --    1.48509   1.59224   1.65169   1.74409   1.81550
 Alpha virt. eigenvalues --    1.83352   1.84377   1.91323   1.96640   2.01155
 Alpha virt. eigenvalues --    2.13515   2.15038   2.39954   2.40178   2.52440
 Alpha virt. eigenvalues --    2.55483   2.75146   2.83135   2.93849   3.20478
 Alpha virt. eigenvalues --    3.34742   3.40147   3.49853   3.74142   3.75023
 Alpha virt. eigenvalues --    3.84827   3.95395   3.95887   4.28717   4.34640
 Alpha virt. eigenvalues --    4.37860   4.39135   4.39408   4.48087   4.56692
 Alpha virt. eigenvalues --    4.60744   4.71612   4.87908   5.02146   5.02233
 Alpha virt. eigenvalues --    5.13848   5.23702   5.35897   5.90046   5.90472
 Alpha virt. eigenvalues --    5.92725   5.97098   6.09260   6.27721   6.28843
 Alpha virt. eigenvalues --    6.50878   6.65985   7.31645   7.53041   7.54906
 Alpha virt. eigenvalues --    7.79888   7.94561   8.56501
          Condensed to atoms (all electrons):
               1          2          3
     1  F    9.340398   0.003508  -0.062147
     2  N    0.003508   6.354760   0.348509
     3  O   -0.062147   0.348509   7.725102
 Mulliken charges:
               1
     1  F   -0.281760
     2  N    0.293223
     3  O   -0.011464
 Sum of Mulliken charges =  -0.00000
 Mulliken charges with hydrogens summed into heavy atoms:
               1
     1  F   -0.281760
     2  N    0.293223
     3  O   -0.011464
 Electronic spatial extent (au):  <R**2>=            119.9906
 Charge=             -0.0000 electrons
 Dipole moment (field-independent basis, Debye):
    X=              1.4156    Y=              1.1546    Z=             -0.0000  Tot=              1.8267
 Quadrupole moment (field-independent basis, Debye-Ang):
   XX=            -16.8385   YY=            -16.0523   ZZ=            -14.4856
   XY=             -0.4779   XZ=             -0.0000   YZ=              0.0000
 Traceless Quadrupole moment (field-independent basis, Debye-Ang):
   XX=             -1.0464   YY=             -0.2602   ZZ=              1.3065
   XY=             -0.4779   XZ=             -0.0000   YZ=              0.0000
 Octapole moment (field-independent basis, Debye-Ang**2):
  XXX=             -0.1640  YYY=             -2.2671  ZZZ=              0.0000  XYY=              0.2864
  XXY=             -0.2139  XXZ=              0.0000  XZZ=              0.0633  YZZ=             -0.3824
  YYZ=              0.0000  XYZ=             -0.0000
 Hexadecapole moment (field-independent basis, Debye-Ang**3):
 XXXX=            -76.2038 YYYY=            -36.8868 ZZZZ=            -10.6281 XXXY=            -13.5670
 XXXZ=             -0.0000 YYYX=            -12.3204 YYYZ=              0.0000 ZZZX=             -0.0000
 ZZZY=              0.0000 XXYY=            -18.7382 XXZZ=            -14.0037 YYZZ=             -7.7740
 XXYZ=              0.0000 YYXZ=              0.0000 ZZXY=             -4.2805
 N-N= 6.525372010958D+01 E-N=-6.749820430153D+02  KE= 2.292070270669D+02
 Symmetry A'   KE= 2.186691025556D+02
 Symmetry A"   KE= 1.053792451130D+01
 Calling FoFJK, ICntrl=      2127 FMM=F ISym2X=1 I1Cent= 0 IOpClX= 0 NMat=1 NMatS=1 NMatT=0.
 ***** Axes restored to original set *****
 -------------------------------------------------------------------
 Center     Atomic                   Forces (Hartrees/Bohr)
 Number     Number              X              Y              Z
 -------------------------------------------------------------------
      1        9           0.002236457    0.001817726    0.000000000
      2        7           0.002569262   -0.002465130    0.000000000
      3        8          -0.004805718    0.000647404   -0.000000000
 -------------------------------------------------------------------
 Cartesian Forces:  Max     0.004805718 RMS     0.002223558

 GradGradGradGradGradGradGradGradGradGradGradGradGradGradGradGradGradGrad
 Berny optimization.
 FormGI is forming the generalized inverse of G from B-inverse, IUseBI=4.
 Internal  Forces:  Max     0.004773318 RMS     0.003366629
 Search for a local minimum.
 Step number   1 out of a maximum of   20
 All quantities printed in internal units (Hartrees-Bohrs-Radians)
 Mixed Optimization -- RFO/linear search
 Second derivative matrix not updated -- first step.
 The second derivative matrix:
                          R1        R2        A1
           R1           0.28701
           R2           0.00000   1.51677
           A1           0.00000   0.00000   0.25000
 ITU=  0
     Eigenvalues ---    0.25000   0.28701   1.51677
 RFO step:  Lambda=-5.58110402D-05 EMin= 2.50000000D-01
 Linear search not attempted -- first point.
 Iteration  1 RMS(Cart)=  0.00890359 RMS(Int)=  0.00001650
 Iteration  2 RMS(Cart)=  0.00001242 RMS(Int)=  0.00000000
 Iteration  3 RMS(Cart)=  0.00000000 RMS(Int)=  0.00000000
 ClnCor:  largest displacement from symmetrization is 4.44D-16 for atom     3.
 Variable       Old X    -DE/DX   Delta X   Delta X   Delta X     New X
                                 (Linear)    (Quad)   (Total)
    R1        2.90631  -0.00281   0.00000  -0.00980  -0.00980   2.89651
    R2        2.13063  -0.00477   0.00000  -0.00315  -0.00315   2.12748
    A1        1.92953  -0.00182   0.00000  -0.00727  -0.00727   1.92226
         Item               Value     Threshold  Converged?
 Maximum Force            0.004773     0.000450     NO 
 RMS     Force            0.003367     0.000300     NO 
 Maximum Displacement     0.010614     0.001800     NO 
 RMS     Displacement     0.008902     0.001200     NO 
 Predicted change in Energy=-2.790552D-05
 GradGradGradGradGradGradGradGradGradGradGradGradGradGradGradGradGradGrad

                          Input orientation:                          
 ---------------------------------------------------------------------
 Center     Atomic      Atomic             Coordinates (Angstroms)
 Number     Number       Type             X           Y           Z
 ---------------------------------------------------------------------
      1          9           0       -0.948630   -0.636850   -0.000000
      2          7           0       -0.001288    0.568103    0.000000
      3          8           0        1.069199    0.219511    0.000000
 ---------------------------------------------------------------------
                    Distance matrix (angstroms):
                    1          2          3
     1  F    0.000000
     2  N    1.532766   0.000000
     3  O    2.192028   1.125814   0.000000
 Stoichiometry    FNO
 Framework group  CS[SG(FNO)]
 Deg. of freedom     3
 Full point group                 CS      NOp   2
 Largest Abelian subgroup         CS      NOp   2
 Largest concise Abelian subgroup C1      NOp   1
                         Standard orientation:                         
 ---------------------------------------------------------------------
 Center     Atomic      Atomic             Coordinates (Angstroms)
 Number     Number       Type             X           Y           Z
 ---------------------------------------------------------------------
      1          9           0       -0.950680   -0.634265    0.000000
      2          7           0        0.000000    0.568057    0.000000
      3          8           0        1.069515    0.216498    0.000000
 ---------------------------------------------------------------------
 Rotational constants (GHZ):          95.4562908          11.7375122          10.4522775
 Basis read from rwf:  (5D, 7F)
 There are    72 symmetry adapted cartesian basis functions of A'  symmetry.
 There are    33 symmetry adapted cartesian basis functions of A"  symmetry.
 There are    60 symmetry adapted basis functions of A'  symmetry.
 There are    30 symmetry adapted basis functions of A"  symmetry.
    90 basis functions,   153 primitive gaussians,   105 cartesian basis functions
    12 alpha electrons       12 beta electrons
       nuclear repulsion energy        65.4540639655 Hartrees.
 NAtoms=    3 NActive=    3 NUniq=    3 SFac= 1.00D+00 NAtFMM=   60 NAOKFM=F Big=F
 Integral buffers will be    131072 words long.
 Raffenetti 2 integral format.
 Two-electron integral symmetry is turned on.
 One-electron integrals computed using PRISM.
 NBasis=    90 RedAO= T EigKep=  9.75D-04  NBF=    60    30
 NBsUse=    90 1.00D-06 EigRej= -1.00D+00 NBFU=    60    30
 Initial guess from the checkpoint file:  "/wrk/irikura/Gau-1772.chk"
 B after Tr=     0.000000    0.000000    0.000000
         Rot=    0.999999    0.000000    0.000000    0.001369 Ang=   0.16 deg.
 Initial guess orbital symmetries:
       Occupied  (A') (A') (A') (A') (A') (A') (A') (A") (A') (A")
                 (A') (A')
       Virtual   (A") (A') (A') (A') (A') (A") (A') (A") (A') (A')
                 (A') (A") (A') (A') (A') (A") (A') (A") (A') (A')
                 (A") (A') (A") (A') (A') (A") (A') (A') (A") (A')
                 (A") (A') (A') (A") (A') (A') (A') (A") (A') (A')
                 (A") (A') (A") (A") (A') (A') (A") (A') (A') (A")
                 (A') (A') (A") (A') (A') (A') (A") (A") (A") (A')
                 (A') (A") (A') (A") (A') (A") (A') (A') (A") (A')
                 (A') (A') (A') (A") (A') (A") (A') (A')
 Keep R1 ints in memory in symmetry-blocked form, NReq=19563946.
 Requested convergence on RMS density matrix=1.00D-08 within 128 cycles.
 Requested convergence on MAX density matrix=1.00D-06.
 Requested convergence on             energy=1.00D-06.
 No special actions if energy rises.
 SCF Done:  E(RB3LYP) =  -229.813151987     A.U. after    9 cycles
            NFock=  9  Conv=0.28D-08     -V/T= 2.0026
 Calling FoFJK, ICntrl=      2127 FMM=F ISym2X=1 I1Cent= 0 IOpClX= 0 NMat=1 NMatS=1 NMatT=0.
 ***** Axes restored to original set *****
 -------------------------------------------------------------------
 Center     Atomic                   Forces (Hartrees/Bohr)
 Number     Number              X              Y              Z
 -------------------------------------------------------------------
      1        9           0.000114307    0.001069438    0.000000000
      2        7          -0.000587765   -0.001734457   -0.000000000
      3        8           0.000473458    0.000665019    0.000000000
 -------------------------------------------------------------------
 Cartesian Forces:  Max     0.001734457 RMS     0.000758433

 GradGradGradGradGradGradGradGradGradGradGradGradGradGradGradGradGradGrad
 Berny optimization.
 Using GEDIIS/GDIIS optimizer.
 FormGI is forming the generalized inverse of G from B-inverse, IUseBI=4.
 Internal  Forces:  Max     0.001656085 RMS     0.001100509
 Search for a local minimum.
 Step number   2 out of a maximum of   20
 All quantities printed in internal units (Hartrees-Bohrs-Radians)
 Mixed Optimization -- RFO/linear search
 Update second derivatives using D2CorX and points    1    2
 DE= -2.61D-05 DEPred=-2.79D-05 R= 9.36D-01
 TightC=F SS=  1.41D+00  RLast= 1.26D-02 DXNew= 5.0454D-01 3.7802D-02
 Trust test= 9.36D-01 RLast= 1.26D-02 DXMaxT set to 3.00D-01
 The second derivative matrix:
                          R1        R2        A1
           R1           0.20581
           R2          -0.08072   1.53036
           A1           0.01910   0.13663   0.39301
 ITU=  1  0
 Use linear search instead of GDIIS.
     Eigenvalues ---    0.19682   0.38131   1.55106
 RFO step:  Lambda=-1.19446809D-05 EMin= 1.96815470D-01
 Quartic linear search produced a step of -0.06390.
 Iteration  1 RMS(Cart)=  0.00321046 RMS(Int)=  0.00000681
 Iteration  2 RMS(Cart)=  0.00000675 RMS(Int)=  0.00000000
 Iteration  3 RMS(Cart)=  0.00000000 RMS(Int)=  0.00000000
 ClnCor:  largest displacement from symmetrization is 5.55D-17 for atom     3.
 Variable       Old X    -DE/DX   Delta X   Delta X   Delta X     New X
                                 (Linear)    (Quad)   (Total)
    R1        2.89651  -0.00091   0.00063  -0.00571  -0.00508   2.89143
    R2        2.12748   0.00024   0.00020  -0.00072  -0.00052   2.12696
    A1        1.92226   0.00166   0.00046   0.00417   0.00464   1.92690
         Item               Value     Threshold  Converged?
 Maximum Force            0.001656     0.000450     NO 
 RMS     Force            0.001101     0.000300     NO 
 Maximum Displacement     0.004400     0.001800     NO 
 RMS     Displacement     0.003209     0.001200     NO 
 Predicted change in Energy=-6.087631D-06
 GradGradGradGradGradGradGradGradGradGradGradGradGradGradGradGradGradGrad

                          Input orientation:                          
 ---------------------------------------------------------------------
 Center     Atomic      Atomic             Coordinates (Angstroms)
 Number     Number       Type             X           Y           Z
 ---------------------------------------------------------------------
      1          9           0       -0.948954   -0.635707   -0.000000
      2          7           0       -0.001549    0.565775    0.000000
      3          8           0        1.069784    0.220696    0.000000
 ---------------------------------------------------------------------
                    Distance matrix (angstroms):
                    1          2          3
     1  F    0.000000
     2  N    1.530077   0.000000
     3  O    2.192882   1.125537   0.000000
 Stoichiometry    FNO
 Framework group  CS[SG(FNO)]
 Deg. of freedom     3
 Full point group                 CS      NOp   2
 Largest Abelian subgroup         CS      NOp   2
 Largest concise Abelian subgroup C1      NOp   1
                         Standard orientation:                         
 ---------------------------------------------------------------------
 Center     Atomic      Atomic             Coordinates (Angstroms)
 Number     Number       Type             X           Y           Z
 ---------------------------------------------------------------------
      1          9           0       -0.951296   -0.632818    0.000000
      2          7           0        0.000000    0.565585   -0.000000
      3          8           0        1.070209    0.217034   -0.000000
 ---------------------------------------------------------------------
 Rotational constants (GHZ):          96.2056375          11.7329115          10.4575450
 Basis read from rwf:  (5D, 7F)
 There are    72 symmetry adapted cartesian basis functions of A'  symmetry.
 There are    33 symmetry adapted cartesian basis functions of A"  symmetry.
 There are    60 symmetry adapted basis functions of A'  symmetry.
 There are    30 symmetry adapted basis functions of A"  symmetry.
    90 basis functions,   153 primitive gaussians,   105 cartesian basis functions
    12 alpha electrons       12 beta electrons
       nuclear repulsion energy        65.4919941706 Hartrees.
 NAtoms=    3 NActive=    3 NUniq=    3 SFac= 1.00D+00 NAtFMM=   60 NAOKFM=F Big=F
 Integral buffers will be    131072 words long.
 Raffenetti 2 integral format.
 Two-electron integral symmetry is turned on.
 One-electron integrals computed using PRISM.
 NBasis=    90 RedAO= T EigKep=  9.74D-04  NBF=    60    30
 NBsUse=    90 1.00D-06 EigRej= -1.00D+00 NBFU=    60    30
 Initial guess from the checkpoint file:  "/wrk/irikura/Gau-1772.chk"
 B after Tr=     0.000000    0.000000   -0.000000
         Rot=    1.000000   -0.000000    0.000000    0.000266 Ang=   0.03 deg.
 Initial guess orbital symmetries:
       Occupied  (A') (A') (A') (A') (A') (A') (A') (A") (A') (A")
                 (A') (A')
       Virtual   (A") (A') (A') (A') (A') (A") (A') (A") (A') (A')
                 (A') (A") (A') (A') (A') (A") (A') (A") (A') (A')
                 (A") (A') (A") (A') (A') (A") (A') (A') (A") (A')
                 (A") (A') (A') (A") (A') (A') (A') (A") (A') (A')
                 (A") (A') (A") (A") (A') (A') (A") (A') (A') (A")
                 (A') (A') (A") (A') (A') (A') (A") (A") (A") (A')
                 (A') (A") (A') (A') (A") (A") (A') (A') (A") (A')
                 (A') (A') (A') (A") (A') (A") (A') (A')
 Keep R1 ints in memory in symmetry-blocked form, NReq=19563946.
 Requested convergence on RMS density matrix=1.00D-08 within 128 cycles.
 Requested convergence on MAX density matrix=1.00D-06.
 Requested convergence on             energy=1.00D-06.
 No special actions if energy rises.
 SCF Done:  E(RB3LYP) =  -229.813158111     A.U. after    8 cycles
            NFock=  8  Conv=0.72D-08     -V/T= 2.0026
 Calling FoFJK, ICntrl=      2127 FMM=F ISym2X=1 I1Cent= 0 IOpClX= 0 NMat=1 NMatS=1 NMatT=0.
 ***** Axes restored to original set *****
 -------------------------------------------------------------------
 Center     Atomic                   Forces (Hartrees/Bohr)
 Number     Number              X              Y              Z
 -------------------------------------------------------------------
      1        9           0.000219753    0.000189573    0.000000000
      2        7          -0.001402746    0.000269001   -0.000000000
      3        8           0.001182993   -0.000458575    0.000000000
 -------------------------------------------------------------------
 Cartesian Forces:  Max     0.001402746 RMS     0.000644123

 GradGradGradGradGradGradGradGradGradGradGradGradGradGradGradGradGradGrad
 Berny optimization.
 Using GEDIIS/GDIIS optimizer.
 FormGI is forming the generalized inverse of G from B-inverse, IUseBI=4.
 Internal  Forces:  Max     0.001266849 RMS     0.000755233
 Search for a local minimum.
 Step number   3 out of a maximum of   20
 All quantities printed in internal units (Hartrees-Bohrs-Radians)
 Mixed Optimization -- En-DIIS/RFO-DIIS
 Update second derivatives using D2CorX and points    1    2    3
 DE= -6.12D-06 DEPred=-6.09D-06 R= 1.01D+00
 TightC=F SS=  1.41D+00  RLast= 6.90D-03 DXNew= 5.0454D-01 2.0694D-02
 Trust test= 1.01D+00 RLast= 6.90D-03 DXMaxT set to 3.00D-01
 The second derivative matrix:
                          R1        R2        A1
           R1           0.15130
           R2           0.00671   1.82972
           A1           0.03147  -0.00680   0.42505
 ITU=  1  1  0
 Use linear search instead of GDIIS.
     Eigenvalues ---    0.14770   0.42860   1.82978
 RFO step:  Lambda=-1.45240282D-06 EMin= 1.47697694D-01
 Quartic linear search produced a step of  0.00446.
 Iteration  1 RMS(Cart)=  0.00087984 RMS(Int)=  0.00000013
 Iteration  2 RMS(Cart)=  0.00000013 RMS(Int)=  0.00000000
 ClnCor:  largest displacement from symmetrization is 1.35D-15 for atom     3.
 Variable       Old X    -DE/DX   Delta X   Delta X   Delta X     New X
                                 (Linear)    (Quad)   (Total)
    R1        2.89143  -0.00029  -0.00002  -0.00185  -0.00187   2.88956
    R2        2.12696   0.00127  -0.00000   0.00070   0.00070   2.12766
    A1        1.92690  -0.00016   0.00002  -0.00024  -0.00022   1.92667
         Item               Value     Threshold  Converged?
 Maximum Force            0.001267     0.000450     NO 
 RMS     Force            0.000755     0.000300     NO 
 Maximum Displacement     0.000948     0.001800     YES
 RMS     Displacement     0.000880     0.001200     YES
 Predicted change in Energy=-7.263532D-07
 GradGradGradGradGradGradGradGradGradGradGradGradGradGradGradGradGradGrad

                          Input orientation:                          
 ---------------------------------------------------------------------
 Center     Atomic      Atomic             Coordinates (Angstroms)
 Number     Number       Type             X           Y           Z
 ---------------------------------------------------------------------
      1          9           0       -0.948452   -0.635339   -0.000000
      2          7           0       -0.001984    0.565622    0.000000
      3          8           0        1.069718    0.220481    0.000000
 ---------------------------------------------------------------------
                    Distance matrix (angstroms):
                    1          2          3
     1  F    0.000000
     2  N    1.529088   0.000000
     3  O    2.192131   1.125907   0.000000
 Stoichiometry    FNO
 Framework group  CS[SG(FNO)]
 Deg. of freedom     3
 Full point group                 CS      NOp   2
 Largest Abelian subgroup         CS      NOp   2
 Largest concise Abelian subgroup C1      NOp   1
                         Standard orientation:                         
 ---------------------------------------------------------------------
 Center     Atomic      Atomic             Coordinates (Angstroms)
 Number     Number       Type             X           Y           Z
 ---------------------------------------------------------------------
      1          9           0       -0.951363   -0.631675    0.000000
      2          7           0        0.000000    0.565412    0.000000
      3          8           0        1.070284    0.215899   -0.000000
 ---------------------------------------------------------------------
 Rotational constants (GHZ):          96.1732134          11.7424019          10.4646999
 Basis read from rwf:  (5D, 7F)
 There are    72 symmetry adapted cartesian basis functions of A'  symmetry.
 There are    33 symmetry adapted cartesian basis functions of A"  symmetry.
 There are    60 symmetry adapted basis functions of A'  symmetry.
 There are    30 symmetry adapted basis functions of A"  symmetry.
    90 basis functions,   153 primitive gaussians,   105 cartesian basis functions
    12 alpha electrons       12 beta electrons
       nuclear repulsion energy        65.5033950749 Hartrees.
 NAtoms=    3 NActive=    3 NUniq=    3 SFac= 1.00D+00 NAtFMM=   60 NAOKFM=F Big=F
 Integral buffers will be    131072 words long.
 Raffenetti 2 integral format.
 Two-electron integral symmetry is turned on.
 One-electron integrals computed using PRISM.
 NBasis=    90 RedAO= T EigKep=  9.75D-04  NBF=    60    30
 NBsUse=    90 1.00D-06 EigRej= -1.00D+00 NBFU=    60    30
 Initial guess from the checkpoint file:  "/wrk/irikura/Gau-1772.chk"
 B after Tr=     0.000000    0.000000    0.000000
         Rot=    1.000000   -0.000000    0.000000    0.000425 Ang=   0.05 deg.
 Initial guess orbital symmetries:
       Occupied  (A') (A') (A') (A') (A') (A') (A') (A") (A') (A")
                 (A') (A')
       Virtual   (A") (A') (A') (A') (A') (A") (A') (A") (A') (A')
                 (A') (A") (A') (A') (A') (A") (A') (A") (A') (A')
                 (A") (A') (A") (A') (A') (A") (A') (A') (A") (A')
                 (A") (A') (A') (A") (A') (A') (A') (A") (A') (A')
                 (A") (A') (A") (A") (A') (A') (A") (A') (A') (A")
                 (A') (A') (A") (A') (A') (A') (A") (A") (A") (A')
                 (A') (A") (A') (A') (A") (A") (A') (A') (A") (A')
                 (A') (A') (A') (A") (A') (A") (A') (A')
 Keep R1 ints in memory in symmetry-blocked form, NReq=19563946.
 Requested convergence on RMS density matrix=1.00D-08 within 128 cycles.
 Requested convergence on MAX density matrix=1.00D-06.
 Requested convergence on             energy=1.00D-06.
 No special actions if energy rises.
 SCF Done:  E(RB3LYP) =  -229.813159207     A.U. after    8 cycles
            NFock=  8  Conv=0.30D-08     -V/T= 2.0026
 Calling FoFJK, ICntrl=      2127 FMM=F ISym2X=1 I1Cent= 0 IOpClX= 0 NMat=1 NMatS=1 NMatT=0.
 ***** Axes restored to original set *****
 -------------------------------------------------------------------
 Center     Atomic                   Forces (Hartrees/Bohr)
 Number     Number              X              Y              Z
 -------------------------------------------------------------------
      1        9           0.000082261    0.000079555    0.000000000
      2        7          -0.000785147    0.000167575   -0.000000000
      3        8           0.000702886   -0.000247129    0.000000000
 -------------------------------------------------------------------
 Cartesian Forces:  Max     0.000785147 RMS     0.000367084

 GradGradGradGradGradGradGradGradGradGradGradGradGradGradGradGradGradGrad
 Berny optimization.
 Using GEDIIS/GDIIS optimizer.
 FormGI is forming the generalized inverse of G from B-inverse, IUseBI=4.
 Internal  Forces:  Max     0.000745014 RMS     0.000435807
 Search for a local minimum.
 Step number   4 out of a maximum of   20
 All quantities printed in internal units (Hartrees-Bohrs-Radians)
 Mixed Optimization -- En-DIIS/RFO-DIIS
 Swapping is turned off.
 Update second derivatives using D2CorX and points    1    2    3    4
 DE= -1.10D-06 DEPred=-7.26D-07 R= 1.51D+00
 TightC=F SS=  1.41D+00  RLast= 2.01D-03 DXNew= 5.0454D-01 6.0225D-03
 Trust test= 1.51D+00 RLast= 2.01D-03 DXMaxT set to 3.00D-01
 The second derivative matrix:
                          R1        R2        A1
           R1           0.14147
           R2           0.14075   1.13531
           A1           0.02448   0.03611   0.42543
 ITU=  1  1  1  0
     Eigenvalues ---    0.12070   0.42456   1.15695
 En-DIIS/RFO-DIIS/Sim-DIIS IScMMF=       -3 using points:     4    3
 RFO step:  Lambda=-8.33427117D-07.
 DidBck=F Rises=F RFO-DIIS coefs:    1.91796   -0.91796
 Iteration  1 RMS(Cart)=  0.00075234 RMS(Int)=  0.00000011
 Iteration  2 RMS(Cart)=  0.00000012 RMS(Int)=  0.00000000
 ClnCor:  largest displacement from symmetrization is 4.44D-16 for atom     3.
 Variable       Old X    -DE/DX   Delta X   Delta X   Delta X     New X
                                 (Linear)    (Quad)   (Total)
    R1        2.88956  -0.00011  -0.00172   0.00007  -0.00165   2.88791
    R2        2.12766   0.00075   0.00064   0.00022   0.00086   2.12852
    A1        1.92667  -0.00004  -0.00020   0.00012  -0.00008   1.92659
         Item               Value     Threshold  Converged?
 Maximum Force            0.000745     0.000450     NO 
 RMS     Force            0.000436     0.000300     NO 
 Maximum Displacement     0.000808     0.001800     YES
 RMS     Displacement     0.000752     0.001200     YES
 Predicted change in Energy=-4.167136D-07
 GradGradGradGradGradGradGradGradGradGradGradGradGradGradGradGradGradGrad

                          Input orientation:                          
 ---------------------------------------------------------------------
 Center     Atomic      Atomic             Coordinates (Angstroms)
 Number     Number       Type             X           Y           Z
 ---------------------------------------------------------------------
      1          9           0       -0.948080   -0.635022   -0.000000
      2          7           0       -0.002411    0.565459    0.000000
      3          8           0        1.069772    0.220326    0.000000
 ---------------------------------------------------------------------
                    Distance matrix (angstroms):
                    1          2          3
     1  F    0.000000
     2  N    1.528216   0.000000
     3  O    2.191654   1.126364   0.000000
 Stoichiometry    FNO
 Framework group  CS[SG(FNO)]
 Deg. of freedom     3
 Full point group                 CS      NOp   2
 Largest Abelian subgroup         CS      NOp   2
 Largest concise Abelian subgroup C1      NOp   1
                         Standard orientation:                         
 ---------------------------------------------------------------------
 Center     Atomic      Atomic             Coordinates (Angstroms)
 Number     Number       Type             X           Y           Z
 ---------------------------------------------------------------------
      1          9           0       -0.951538   -0.630603    0.000000
      2          7           0        0.000000    0.565232   -0.000000
      3          8           0        1.070480    0.214850   -0.000000
 ---------------------------------------------------------------------
 Rotational constants (GHZ):          96.1449732          11.7490300          10.4696289
 Basis read from rwf:  (5D, 7F)
 There are    72 symmetry adapted cartesian basis functions of A'  symmetry.
 There are    33 symmetry adapted cartesian basis functions of A"  symmetry.
 There are    60 symmetry adapted basis functions of A'  symmetry.
 There are    30 symmetry adapted basis functions of A"  symmetry.
    90 basis functions,   153 primitive gaussians,   105 cartesian basis functions
    12 alpha electrons       12 beta electrons
       nuclear repulsion energy        65.5089437180 Hartrees.
 NAtoms=    3 NActive=    3 NUniq=    3 SFac= 1.00D+00 NAtFMM=   60 NAOKFM=F Big=F
 Integral buffers will be    131072 words long.
 Raffenetti 2 integral format.
 Two-electron integral symmetry is turned on.
 One-electron integrals computed using PRISM.
 NBasis=    90 RedAO= T EigKep=  9.76D-04  NBF=    60    30
 NBsUse=    90 1.00D-06 EigRej= -1.00D+00 NBFU=    60    30
 Initial guess from the checkpoint file:  "/wrk/irikura/Gau-1772.chk"
 B after Tr=    -0.000000   -0.000000   -0.000000
         Rot=    1.000000   -0.000000    0.000000    0.000415 Ang=   0.05 deg.
 Initial guess orbital symmetries:
       Occupied  (A') (A') (A') (A') (A') (A') (A') (A") (A') (A")
                 (A') (A')
       Virtual   (A") (A') (A') (A') (A') (A") (A') (A") (A') (A')
                 (A') (A") (A') (A') (A') (A") (A') (A") (A') (A')
                 (A") (A') (A") (A') (A') (A") (A') (A') (A") (A')
                 (A") (A') (A') (A") (A') (A') (A') (A") (A') (A')
                 (A") (A') (A") (A") (A') (A') (A") (A') (A') (A")
                 (A') (A') (A") (A') (A') (A') (A") (A") (A") (A')
                 (A') (A") (A') (A") (A') (A") (A') (A') (A") (A')
                 (A') (A') (A') (A") (A') (A") (A') (A')
 Keep R1 ints in memory in symmetry-blocked form, NReq=19563946.
 Requested convergence on RMS density matrix=1.00D-08 within 128 cycles.
 Requested convergence on MAX density matrix=1.00D-06.
 Requested convergence on             energy=1.00D-06.
 No special actions if energy rises.
 SCF Done:  E(RB3LYP) =  -229.813159623     A.U. after    8 cycles
            NFock=  8  Conv=0.32D-08     -V/T= 2.0026
 Calling FoFJK, ICntrl=      2127 FMM=F ISym2X=1 I1Cent= 0 IOpClX= 0 NMat=1 NMatS=1 NMatT=0.
 ***** Axes restored to original set *****
 -------------------------------------------------------------------
 Center     Atomic                   Forces (Hartrees/Bohr)
 Number     Number              X              Y              Z
 -------------------------------------------------------------------
      1        9          -0.000000980   -0.000003293   -0.000000000
      2        7          -0.000007319    0.000006716   -0.000000000
      3        8           0.000008299   -0.000003423    0.000000000
 -------------------------------------------------------------------
 Cartesian Forces:  Max     0.000008299 RMS     0.000004607

 GradGradGradGradGradGradGradGradGradGradGradGradGradGradGradGradGradGrad
 Berny optimization.
 Using GEDIIS/GDIIS optimizer.
 FormGI is forming the generalized inverse of G from B-inverse, IUseBI=4.
 Internal  Forces:  Max     0.000009141 RMS     0.000005723
 Search for a local minimum.
 Step number   5 out of a maximum of   20
 All quantities printed in internal units (Hartrees-Bohrs-Radians)
 Mixed Optimization -- En-DIIS/RFO-DIIS
 Swapping is turned off.
 Update second derivatives using D2CorX and points    2    3    4    5
 DE= -4.16D-07 DEPred=-4.17D-07 R= 9.99D-01
 Trust test= 9.99D-01 RLast= 1.86D-03 DXMaxT set to 3.00D-01
 The second derivative matrix:
                          R1        R2        A1
           R1           0.13882
           R2           0.13258   1.11020
           A1           0.02911   0.04781   0.42739
 ITU=  0  1  1  1
     Eigenvalues ---    0.11940   0.42531   1.13170
 En-DIIS/RFO-DIIS/Sim-DIIS IScMMF=       -3 using points:     5    4    3
 RFO step:  Lambda= 0.00000000D+00.
 DIIS inversion failure, remove point   3.
 RFO-DIIS uses    2 points instead of    3
 DidBck=F Rises=F RFO-DIIS coefs:    0.99354    0.00646    0.00000
 Iteration  1 RMS(Cart)=  0.00000818 RMS(Int)=  0.00000000
 Iteration  2 RMS(Cart)=  0.00000000 RMS(Int)=  0.00000000
 ClnCor:  largest displacement from symmetrization is 4.48D-16 for atom     3.
 Variable       Old X    -DE/DX   Delta X   Delta X   Delta X     New X
                                 (Linear)    (Quad)   (Total)
    R1        2.88791   0.00000   0.00001   0.00001   0.00002   2.88793
    R2        2.12852   0.00001  -0.00001   0.00001   0.00001   2.12853
    A1        1.92659  -0.00000   0.00000  -0.00001  -0.00001   1.92659
         Item               Value     Threshold  Converged?
 Maximum Force            0.000009     0.000450     YES
 RMS     Force            0.000006     0.000300     YES
 Maximum Displacement     0.000010     0.001800     YES
 RMS     Displacement     0.000008     0.001200     YES
 Predicted change in Energy=-6.456425D-11
 Optimization completed.
    -- Stationary point found.
                           ----------------------------
                           !   Optimized Parameters   !
                           ! (Angstroms and Degrees)  !
 --------------------------                            --------------------------
 ! Name  Definition              Value          Derivative Info.                !
 --------------------------------------------------------------------------------
 ! R1    R(1,2)                  1.5282         -DE/DX =    0.0                 !
 ! R2    R(2,3)                  1.1264         -DE/DX =    0.0                 !
 ! A1    A(1,2,3)              110.3857         -DE/DX =    0.0                 !
 --------------------------------------------------------------------------------
 GradGradGradGradGradGradGradGradGradGradGradGradGradGradGradGradGradGrad

                          Input orientation:                          
 ---------------------------------------------------------------------
 Center     Atomic      Atomic             Coordinates (Angstroms)
 Number     Number       Type             X           Y           Z
 ---------------------------------------------------------------------
      1          9           0       -0.948080   -0.635022   -0.000000
      2          7           0       -0.002411    0.565459    0.000000
      3          8           0        1.069772    0.220326    0.000000
 ---------------------------------------------------------------------
                    Distance matrix (angstroms):
                    1          2          3
     1  F    0.000000
     2  N    1.528216   0.000000
     3  O    2.191654   1.126364   0.000000
 Stoichiometry    FNO
 Framework group  CS[SG(FNO)]
 Deg. of freedom     3
 Full point group                 CS      NOp   2
 Largest Abelian subgroup         CS      NOp   2
 Largest concise Abelian subgroup C1      NOp   1
                         Standard orientation:                         
 ---------------------------------------------------------------------
 Center     Atomic      Atomic             Coordinates (Angstroms)
 Number     Number       Type             X           Y           Z
 ---------------------------------------------------------------------
      1          9           0       -0.951538   -0.630603    0.000000
      2          7           0       -0.000000    0.565232   -0.000000
      3          8           0        1.070480    0.214850   -0.000000
 ---------------------------------------------------------------------
 Rotational constants (GHZ):          96.1449732          11.7490300          10.4696289

 **********************************************************************

            Population analysis using the SCF Density.

 **********************************************************************

 Orbital symmetries:
       Occupied  (A') (A') (A') (A') (A') (A') (A') (A") (A') (A")
                 (A') (A')
       Virtual   (A") (A') (A') (A') (A') (A") (A') (A") (A') (A')
                 (A') (A") (A') (A') (A') (A") (A') (A") (A') (A')
                 (A") (A') (A") (A') (A') (A") (A') (A') (A") (A')
                 (A") (A') (A') (A") (A') (A') (A') (A") (A') (A')
                 (A") (A') (A") (A") (A') (A') (A") (A') (A') (A")
                 (A') (A') (A") (A') (A') (A') (A") (A") (A") (A')
                 (A') (A") (A') (A") (A') (A") (A') (A') (A") (A')
                 (A') (A') (A') (A") (A') (A") (A') (A')
 The electronic state is 1-A'.
 Alpha  occ. eigenvalues --  -24.67969 -19.29879 -14.57082  -1.33116  -1.16537
 Alpha  occ. eigenvalues --   -0.72919  -0.60306  -0.58158  -0.56337  -0.41365
 Alpha  occ. eigenvalues --   -0.40378  -0.35725
 Alpha virt. eigenvalues --   -0.14205  -0.03031   0.13635   0.21134   0.22086
 Alpha virt. eigenvalues --    0.22614   0.30452   0.36560   0.37080   0.45144
 Alpha virt. eigenvalues --    0.48356   0.48603   0.55072   0.67702   0.82555
 Alpha virt. eigenvalues --    1.02679   1.15515   1.16756   1.26237   1.37938
 Alpha virt. eigenvalues --    1.48684   1.59441   1.65225   1.74641   1.81688
 Alpha virt. eigenvalues --    1.83188   1.84819   1.91548   1.96806   2.01918
 Alpha virt. eigenvalues --    2.14050   2.15595   2.39913   2.40386   2.52184
 Alpha virt. eigenvalues --    2.55720   2.75395   2.83053   2.93994   3.21457
 Alpha virt. eigenvalues --    3.34756   3.40398   3.50454   3.74345   3.75752
 Alpha virt. eigenvalues --    3.85310   3.95587   3.96109   4.28843   4.34517
 Alpha virt. eigenvalues --    4.37882   4.38939   4.39196   4.47864   4.57010
 Alpha virt. eigenvalues --    4.61390   4.72839   4.88745   5.02392   5.03647
 Alpha virt. eigenvalues --    5.14987   5.24523   5.37677   5.90553   5.90745
 Alpha virt. eigenvalues --    5.92924   5.97228   6.09579   6.27823   6.30150
 Alpha virt. eigenvalues --    6.51559   6.69406   7.32797   7.52946   7.54879
 Alpha virt. eigenvalues --    7.80607   7.95415   8.57864
          Condensed to atoms (all electrons):
               1          2          3
     1  F    9.338444   0.001782  -0.063867
     2  N    0.001782   6.358363   0.349227
     3  O   -0.063867   0.349227   7.728910
 Mulliken charges:
               1
     1  F   -0.276358
     2  N    0.290628
     3  O   -0.014270
 Sum of Mulliken charges =   0.00000
 Mulliken charges with hydrogens summed into heavy atoms:
               1
     1  F   -0.276358
     2  N    0.290628
     3  O   -0.014270
 Electronic spatial extent (au):  <R**2>=            119.1305
 Charge=              0.0000 electrons
 Dipole moment (field-independent basis, Debye):
    X=              1.3698    Y=              1.1129    Z=              0.0000  Tot=              1.7649
 Quadrupole moment (field-independent basis, Debye-Ang):
   XX=            -16.8295   YY=            -16.0491   ZZ=            -14.4765
   XY=             -0.4575   XZ=             -0.0000   YZ=             -0.0000
 Traceless Quadrupole moment (field-independent basis, Debye-Ang):
   XX=             -1.0445   YY=             -0.2641   ZZ=              1.3085
   XY=             -0.4575   XZ=             -0.0000   YZ=             -0.0000
 Octapole moment (field-independent basis, Debye-Ang**2):
  XXX=             -0.2629  YYY=             -2.3210  ZZZ=              0.0000  XYY=              0.2514
  XXY=             -0.2450  XXZ=              0.0000  XZZ=              0.0469  YZZ=             -0.3938
  YYZ=              0.0000  XYZ=              0.0000
 Hexadecapole moment (field-independent basis, Debye-Ang**3):
 XXXX=            -75.8355 YYYY=            -36.4083 ZZZZ=            -10.6155 XXXY=            -13.2598
 XXXZ=             -0.0000 YYYX=            -12.0065 YYYZ=             -0.0000 ZZZX=             -0.0000
 ZZZY=             -0.0000 XXYY=            -18.5788 XXZZ=            -13.9371 YYZZ=             -7.6913
 XXYZ=             -0.0000 YYXZ=             -0.0000 ZZXY=             -4.1813
 N-N= 6.550894371804D+01 E-N=-6.754993780853D+02  KE= 2.292260223764D+02
 Symmetry A'   KE= 2.186860853296D+02
 Symmetry A"   KE= 1.053993704683D+01
 1\1\GINC-GAMBA\FOpt\RB3LYP\Gen\F1N1O1\IRIKURA\17-Jun-2022\0\\# b3lyp/g
 en opt freq\\nitrosyl fluoride, B3LYP/pcseg-2\\0,1\F,-0.9480799141,-0.
 6350216159,0.\N,-0.0024114005,0.5654593876,0.\O,1.0697723146,0.2203262
 283,0.\\Version=ES64L-G16RevB.01\State=1-A'\HF=-229.8131596\RMSD=3.190
 e-09\RMSF=4.607e-06\Dipole=0.53678,0.4404649,0.\Quadrupole=-0.7731966,
 -0.1996738,0.9728704,-0.3429546,0.,0.\PG=CS [SG(F1N1O1)]\\@


 HEAVEN'S NET CASTS WIDE.
 THOUGH ITS MESHES ARE COARSE, NOTHING SLIPS THROUGH.

                                          -- LAO-TSU
 Job cpu time:       0 days  0 hours  2 minutes 21.9 seconds.
 Elapsed time:       0 days  0 hours  0 minutes 12.1 seconds.
 File lengths (MBytes):  RWF=     10 Int=      0 D2E=      0 Chk=      2 Scr=      1
 Normal termination of Gaussian 16 at Fri Jun 17 17:25:05 2022.
 Link1:  Proceeding to internal job step number  2.
 ------------------------------------------------------------------
 #N Geom=AllCheck Guess=TCheck SCRF=Check GenChk RB3LYP/ChkBas Freq
 ------------------------------------------------------------------
 1/10=4,29=7,30=1,38=1,40=1/1,3;
 2/12=2,40=1/2;
 3/5=7,6=2,11=2,14=-4,25=1,30=1,67=1,70=2,71=2,74=-5,82=7,116=1,140=1/1,2,3;
 4/5=101/1;
 5/5=2,38=6,98=1/2;
 8/6=4,10=90,11=11/1;
 11/6=1,8=1,9=11,15=111,16=1/1,2,10;
 10/6=1/2;
 6/7=2,8=2,9=2,10=2,28=1/1;
 7/8=1,10=1,25=1/1,2,3,16;
 1/10=4,30=1/3;
 99//99;
 Structure from the checkpoint file:  "/wrk/irikura/Gau-1772.chk"
 --------------------------------
 nitrosyl fluoride, B3LYP/pcseg-2
 --------------------------------
 Charge =  0 Multiplicity = 1
 Redundant internal coordinates found in file.  (old form).
 F,0,-0.9480799141,-0.6350216159,0.
 N,0,-0.0024114005,0.5654593876,0.
 O,0,1.0697723146,0.2203262283,0.
 Recover connectivity data from disk.

 GradGradGradGradGradGradGradGradGradGradGradGradGradGradGradGradGradGrad
 Berny optimization.
 Initialization pass.
                           ----------------------------
                           !    Initial Parameters    !
                           ! (Angstroms and Degrees)  !
 --------------------------                            --------------------------
 ! Name  Definition              Value          Derivative Info.                !
 --------------------------------------------------------------------------------
 ! R1    R(1,2)                  1.5282         calculate D2E/DX2 analytically  !
 ! R2    R(2,3)                  1.1264         calculate D2E/DX2 analytically  !
 ! A1    A(1,2,3)              110.3857         calculate D2E/DX2 analytically  !
 --------------------------------------------------------------------------------
 Trust Radius=3.00D-01 FncErr=1.00D-07 GrdErr=1.00D-07 EigMax=2.50D+02 EigMin=1.00D-04
 Number of steps in this run=      2 maximum allowed number of steps=      2.
 GradGradGradGradGradGradGradGradGradGradGradGradGradGradGradGradGradGrad

                          Input orientation:                          
 ---------------------------------------------------------------------
 Center     Atomic      Atomic             Coordinates (Angstroms)
 Number     Number       Type             X           Y           Z
 ---------------------------------------------------------------------
      1          9           0       -0.948080   -0.635022   -0.000000
      2          7           0       -0.002411    0.565459    0.000000
      3          8           0        1.069772    0.220326    0.000000
 ---------------------------------------------------------------------
                    Distance matrix (angstroms):
                    1          2          3
     1  F    0.000000
     2  N    1.528216   0.000000
     3  O    2.191654   1.126364   0.000000
 Stoichiometry    FNO
 Framework group  CS[SG(FNO)]
 Deg. of freedom     3
 Full point group                 CS      NOp   2
 Largest Abelian subgroup         CS      NOp   2
 Largest concise Abelian subgroup C1      NOp   1
                         Standard orientation:                         
 ---------------------------------------------------------------------
 Center     Atomic      Atomic             Coordinates (Angstroms)
 Number     Number       Type             X           Y           Z
 ---------------------------------------------------------------------
      1          9           0       -0.951538   -0.630603    0.000000
      2          7           0        0.000000    0.565232    0.000000
      3          8           0        1.070480    0.214850    0.000000
 ---------------------------------------------------------------------
 Rotational constants (GHZ):          96.1449732          11.7490300          10.4696289
 Basis read from chk: "/wrk/irikura/Gau-1772.chk" (5D, 7F)
 There are    72 symmetry adapted cartesian basis functions of A'  symmetry.
 There are    33 symmetry adapted cartesian basis functions of A"  symmetry.
 There are    60 symmetry adapted basis functions of A'  symmetry.
 There are    30 symmetry adapted basis functions of A"  symmetry.
    90 basis functions,   153 primitive gaussians,   105 cartesian basis functions
    12 alpha electrons       12 beta electrons
       nuclear repulsion energy        65.5089437180 Hartrees.
 NAtoms=    3 NActive=    3 NUniq=    3 SFac= 1.00D+00 NAtFMM=   60 NAOKFM=F Big=F
 Integral buffers will be    131072 words long.
 Raffenetti 2 integral format.
 Two-electron integral symmetry is turned on.
 One-electron integrals computed using PRISM.
 NBasis=    90 RedAO= T EigKep=  9.76D-04  NBF=    60    30
 NBsUse=    90 1.00D-06 EigRej= -1.00D+00 NBFU=    60    30
 Initial guess from the checkpoint file:  "/wrk/irikura/Gau-1772.chk"
 B after Tr=     0.000000   -0.000000    0.000000
         Rot=    1.000000   -0.000000   -0.000000   -0.000000 Ang=   0.00 deg.
 Initial guess orbital symmetries:
       Occupied  (A') (A') (A') (A') (A') (A') (A') (A") (A') (A")
                 (A') (A')
       Virtual   (A") (A') (A') (A') (A') (A") (A') (A") (A') (A')
                 (A') (A") (A') (A') (A') (A") (A') (A") (A') (A')
                 (A") (A') (A") (A') (A') (A") (A') (A') (A") (A')
                 (A") (A') (A') (A") (A') (A') (A') (A") (A') (A')
                 (A") (A') (A") (A") (A') (A') (A") (A') (A') (A")
                 (A') (A') (A") (A') (A') (A') (A") (A") (A") (A')
                 (A') (A") (A') (A") (A') (A") (A') (A') (A") (A')
                 (A') (A') (A') (A") (A') (A") (A') (A')
 Keep R1 ints in memory in symmetry-blocked form, NReq=19563946.
 Requested convergence on RMS density matrix=1.00D-08 within 128 cycles.
 Requested convergence on MAX density matrix=1.00D-06.
 Requested convergence on             energy=1.00D-06.
 No special actions if energy rises.
 SCF Done:  E(RB3LYP) =  -229.813159623     A.U. after    1 cycles
            NFock=  1  Conv=0.12D-08     -V/T= 2.0026
 DoSCS=F DFT=T ScalE2(SS,OS)=  1.000000  1.000000
 Range of M.O.s used for correlation:     1    90
 NBasis=    90 NAE=    12 NBE=    12 NFC=     0 NFV=     0
 NROrb=     90 NOA=    12 NOB=    12 NVA=    78 NVB=    78

 **** Warning!!: The largest alpha MO coefficient is  0.10787540D+02

 Symmetrizing basis deriv contribution to polar:
 IMax=3 JMax=2 DiffMx= 0.00D+00
 G2DrvN: will do     4 centers at a time, making    1 passes.
 Calling FoFCou, ICntrl=  3107 FMM=F I1Cent=   0 AccDes= 0.00D+00.
 End of G2Drv F.D. properties file   721 does not exist.
 End of G2Drv F.D. properties file   722 does not exist.
 End of G2Drv F.D. properties file   788 does not exist.
          IDoAtm=111
          Differentiating once with respect to electric field.
                with respect to dipole field.
          Differentiating once with respect to nuclear coordinates.
 Keep R1 ints in memory in symmetry-blocked form, NReq=19524907.
          There are    12 degrees of freedom in the 1st order CPHF.  IDoFFX=6 NUNeed=     3.
      9 vectors produced by pass  0 Test12= 7.80D-15 8.33D-09 XBig12= 2.60D+01 3.41D+00.
 AX will form     9 AO Fock derivatives at one time.
      9 vectors produced by pass  1 Test12= 7.80D-15 8.33D-09 XBig12= 1.65D+01 1.17D+00.
      9 vectors produced by pass  2 Test12= 7.80D-15 8.33D-09 XBig12= 1.75D-01 1.10D-01.
      9 vectors produced by pass  3 Test12= 7.80D-15 8.33D-09 XBig12= 1.81D-03 1.07D-02.
      9 vectors produced by pass  4 Test12= 7.80D-15 8.33D-09 XBig12= 1.34D-05 7.64D-04.
      9 vectors produced by pass  5 Test12= 7.80D-15 8.33D-09 XBig12= 2.97D-08 3.98D-05.
      8 vectors produced by pass  6 Test12= 7.80D-15 8.33D-09 XBig12= 7.40D-11 2.00D-06.
      3 vectors produced by pass  7 Test12= 7.80D-15 8.33D-09 XBig12= 9.09D-14 7.05D-08.
 InvSVY:  IOpt=1 It=  1 EMax= 3.33D-16
 Solved reduced A of dimension    65 with     9 vectors.
 Isotropic polarizability for W=    0.000000       14.73 Bohr**3.
 End of Minotr F.D. properties file   721 does not exist.
 End of Minotr F.D. properties file   722 does not exist.
 End of Minotr F.D. properties file   788 does not exist.

 **********************************************************************

            Population analysis using the SCF Density.

 **********************************************************************

 Orbital symmetries:
       Occupied  (A') (A') (A') (A') (A') (A') (A') (A") (A') (A")
                 (A') (A')
       Virtual   (A") (A') (A') (A') (A') (A") (A') (A") (A') (A')
                 (A') (A") (A') (A') (A') (A") (A') (A") (A') (A')
                 (A") (A') (A") (A') (A') (A") (A') (A') (A") (A')
                 (A") (A') (A') (A") (A') (A') (A') (A") (A') (A')
                 (A") (A') (A") (A") (A') (A') (A") (A') (A') (A")
                 (A') (A') (A") (A') (A') (A') (A") (A") (A") (A')
                 (A') (A") (A') (A") (A') (A") (A') (A') (A") (A')
                 (A') (A') (A') (A") (A') (A") (A') (A')
 The electronic state is 1-A'.
 Alpha  occ. eigenvalues --  -24.67969 -19.29879 -14.57082  -1.33116  -1.16537
 Alpha  occ. eigenvalues --   -0.72919  -0.60306  -0.58158  -0.56337  -0.41365
 Alpha  occ. eigenvalues --   -0.40378  -0.35725
 Alpha virt. eigenvalues --   -0.14205  -0.03031   0.13635   0.21134   0.22086
 Alpha virt. eigenvalues --    0.22614   0.30452   0.36560   0.37080   0.45144
 Alpha virt. eigenvalues --    0.48356   0.48603   0.55072   0.67702   0.82555
 Alpha virt. eigenvalues --    1.02679   1.15515   1.16756   1.26237   1.37938
 Alpha virt. eigenvalues --    1.48684   1.59441   1.65225   1.74641   1.81688
 Alpha virt. eigenvalues --    1.83188   1.84819   1.91548   1.96806   2.01918
 Alpha virt. eigenvalues --    2.14050   2.15595   2.39913   2.40386   2.52184
 Alpha virt. eigenvalues --    2.55720   2.75395   2.83053   2.93994   3.21457
 Alpha virt. eigenvalues --    3.34756   3.40398   3.50454   3.74345   3.75752
 Alpha virt. eigenvalues --    3.85310   3.95587   3.96109   4.28843   4.34517
 Alpha virt. eigenvalues --    4.37882   4.38939   4.39196   4.47864   4.57010
 Alpha virt. eigenvalues --    4.61390   4.72839   4.88745   5.02392   5.03647
 Alpha virt. eigenvalues --    5.14987   5.24523   5.37677   5.90553   5.90745
 Alpha virt. eigenvalues --    5.92924   5.97228   6.09579   6.27823   6.30150
 Alpha virt. eigenvalues --    6.51559   6.69406   7.32797   7.52946   7.54879
 Alpha virt. eigenvalues --    7.80607   7.95415   8.57864
          Condensed to atoms (all electrons):
               1          2          3
     1  F    9.338444   0.001782  -0.063867
     2  N    0.001782   6.358363   0.349227
     3  O   -0.063867   0.349227   7.728910
 Mulliken charges:
               1
     1  F   -0.276358
     2  N    0.290628
     3  O   -0.014270
 Sum of Mulliken charges =   0.00000
 Mulliken charges with hydrogens summed into heavy atoms:
               1
     1  F   -0.276358
     2  N    0.290628
     3  O   -0.014270
 APT charges:
               1
     1  F   -0.646283
     2  N    0.973215
     3  O   -0.326932
 Sum of APT charges =  -0.00000
 APT charges with hydrogens summed into heavy atoms:
               1
     1  F   -0.646283
     2  N    0.973215
     3  O   -0.326932
 Electronic spatial extent (au):  <R**2>=            119.1305
 Charge=             -0.0000 electrons
 Dipole moment (field-independent basis, Debye):
    X=              1.3698    Y=              1.1129    Z=              0.0000  Tot=              1.7649
 Quadrupole moment (field-independent basis, Debye-Ang):
   XX=            -16.8295   YY=            -16.0491   ZZ=            -14.4765
   XY=             -0.4575   XZ=             -0.0000   YZ=              0.0000
 Traceless Quadrupole moment (field-independent basis, Debye-Ang):
   XX=             -1.0445   YY=             -0.2641   ZZ=              1.3085
   XY=             -0.4575   XZ=             -0.0000   YZ=              0.0000
 Octapole moment (field-independent basis, Debye-Ang**2):
  XXX=             -0.2629  YYY=             -2.3210  ZZZ=              0.0000  XYY=              0.2514
  XXY=             -0.2450  XXZ=              0.0000  XZZ=              0.0469  YZZ=             -0.3938
  YYZ=              0.0000  XYZ=              0.0000
 Hexadecapole moment (field-independent basis, Debye-Ang**3):
 XXXX=            -75.8355 YYYY=            -36.4083 ZZZZ=            -10.6155 XXXY=            -13.2598
 XXXZ=              0.0000 YYYX=            -12.0065 YYYZ=              0.0000 ZZZX=              0.0000
 ZZZY=              0.0000 XXYY=            -18.5788 XXZZ=            -13.9371 YYZZ=             -7.6913
 XXYZ=              0.0000 YYXZ=              0.0000 ZZXY=             -4.1813
 N-N= 6.550894371804D+01 E-N=-6.754993772336D+02  KE= 2.292260219655D+02
 Symmetry A'   KE= 2.186860849713D+02
 Symmetry A"   KE= 1.053993699421D+01
  Exact polarizability:  20.882   4.528  14.221   0.000  -0.000   9.089
 Approx polarizability:  40.610   9.717  22.021  -0.000   0.000  12.347
 Calling FoFJK, ICntrl=    100127 FMM=F ISym2X=1 I1Cent= 0 IOpClX= 0 NMat=1 NMatS=1 NMatT=0.
 Full mass-weighted force constant matrix:
 Low frequencies ---   -5.8007   -5.4555   -0.0017   -0.0013    0.0007    1.6311
 Low frequencies ---  522.0949  784.2531 1945.3148
 Diagonal vibrational polarizability:
       16.2239472       7.2649534       0.0000000
 Harmonic frequencies (cm**-1), IR intensities (KM/Mole), Raman scattering
 activities (A**4/AMU), depolarization ratios for plane and unpolarized
 incident light, reduced masses (AMU), force constants (mDyne/A),
 and normal coordinates:
                      1                      2                      3
                     A'                     A'                     A'
 Frequencies --    522.0949               784.2531              1945.3148
 Red. masses --     17.2688                14.9000                14.8946
 Frc consts  --      2.7734                 5.3994                33.2093
 IR Inten    --    136.6222               184.7302               269.6968
  Atom  AN      X      Y      Z        X      Y      Z        X      Y      Z
     1   9     0.65   0.35  -0.00     0.05  -0.33  -0.00     0.03   0.05   0.00
     2   7    -0.41  -0.06   0.00     0.24   0.81   0.00     0.67  -0.32  -0.00
     3   8    -0.41  -0.36   0.00    -0.27  -0.32   0.00    -0.63   0.22   0.00

 -------------------
 - Thermochemistry -
 -------------------
 Temperature   298.150 Kelvin.  Pressure   1.00000 Atm.
 Atom     1 has atomic number  9 and mass  18.99840
 Atom     2 has atomic number  7 and mass  14.00307
 Atom     3 has atomic number  8 and mass  15.99491
 Molecular mass:    48.99639 amu.
 Principal axes and moments of inertia in atomic units:
                           1         2         3
     Eigenvalues --    18.77104 153.60768 172.37872
           X            0.89515  -0.44576   0.00000
           Y            0.44576   0.89515   0.00000
           Z           -0.00000   0.00000   1.00000
 This molecule is an asymmetric top.
 Rotational symmetry number  1.
 Rotational temperatures (Kelvin)      4.61423     0.56386     0.50246
 Rotational constants (GHZ):          96.14497    11.74903    10.46963
 Zero-point vibrational energy      19449.3 (Joules/Mol)
                                    4.64849 (Kcal/Mol)
 Warning -- explicit consideration of   1 degrees of freedom as
           vibrations may cause significant error
 Vibrational temperatures:    751.18  1128.37  2798.87
          (Kelvin)
 
 Zero-point correction=                           0.007408 (Hartree/Particle)
 Thermal correction to Energy=                    0.010532
 Thermal correction to Enthalpy=                  0.011477
 Thermal correction to Gibbs Free Energy=        -0.016677
 Sum of electronic and zero-point Energies=           -229.805752
 Sum of electronic and thermal Energies=              -229.802627
 Sum of electronic and thermal Enthalpies=            -229.801683
 Sum of electronic and thermal Free Energies=         -229.829837
 
                     E (Thermal)             CV                S
                      KCal/Mol        Cal/Mol-Kelvin    Cal/Mol-Kelvin
 Total                    6.609              7.854             59.254
 Electronic               0.000              0.000              0.000
 Translational            0.889              2.981             37.591
 Rotational               0.889              2.981             20.835
 Vibrational              4.832              1.893              0.827
 Vibration     1          0.877              1.201              0.605
                       Q            Log10(Q)             Ln(Q)
 Total Bot       0.468642D+08          7.670841         17.662764
 Total V=0       0.119730D+12         11.078205         25.508509
 Vib (Bot)       0.435615D-03         -3.360897         -7.738751
 Vib (Bot)    1  0.308571D+00         -0.510645         -1.175804
 Vib (V=0)       0.111293D+01          0.046466          0.106993
 Vib (V=0)    1  0.108755D+01          0.036450          0.083928
 Electronic      0.100000D+01          0.000000          0.000000
 Translational   0.134803D+08          7.129700         16.416741
 Rotational      0.798065D+04          3.902038          8.984775
 ***** Axes restored to original set *****
 -------------------------------------------------------------------
 Center     Atomic                   Forces (Hartrees/Bohr)
 Number     Number              X              Y              Z
 -------------------------------------------------------------------
      1        9          -0.000000954   -0.000003274   -0.000000000
      2        7          -0.000007393    0.000006719   -0.000000000
      3        8           0.000008346   -0.000003445    0.000000000
 -------------------------------------------------------------------
 Cartesian Forces:  Max     0.000008346 RMS     0.000004630
 FormGI is forming the generalized inverse of G from B-inverse, IUseBI=4.

 GradGradGradGradGradGradGradGradGradGradGradGradGradGradGradGradGradGrad
 Berny optimization.
 Internal  Forces:  Max     0.000009195 RMS     0.000005748
 Search for a local minimum.
 Step number   1 out of a maximum of    2
 All quantities printed in internal units (Hartrees-Bohrs-Radians)
 Second derivative matrix not updated -- analytic derivatives used.
 The second derivative matrix:
                          R1        R2        A1
           R1           0.13726
           R2           0.12921   1.10157
           A1           0.02779   0.04538   0.42865
 ITU=  0
     Eigenvalues ---    0.11873   0.42676   1.12200
 Angle between quadratic step and forces=  48.87 degrees.
 Linear search not attempted -- first point.
 Iteration  1 RMS(Cart)=  0.00000816 RMS(Int)=  0.00000000
 Iteration  2 RMS(Cart)=  0.00000000 RMS(Int)=  0.00000000
 ClnCor:  largest displacement from symmetrization is 4.44D-16 for atom     3.
 Variable       Old X    -DE/DX   Delta X   Delta X   Delta X     New X
                                 (Linear)    (Quad)   (Total)
    R1        2.88791   0.00000   0.00000   0.00002   0.00002   2.88793
    R2        2.12852   0.00001   0.00000   0.00001   0.00001   2.12853
    A1        1.92659  -0.00000   0.00000  -0.00001  -0.00001   1.92659
         Item               Value     Threshold  Converged?
 Maximum Force            0.000009     0.000450     YES
 RMS     Force            0.000006     0.000300     YES
 Maximum Displacement     0.000010     0.001800     YES
 RMS     Displacement     0.000008     0.001200     YES
 Predicted change in Energy=-6.497809D-11
 Optimization completed.
    -- Stationary point found.
                           ----------------------------
                           !   Optimized Parameters   !
                           ! (Angstroms and Degrees)  !
 --------------------------                            --------------------------
 ! Name  Definition              Value          Derivative Info.                !
 --------------------------------------------------------------------------------
 ! R1    R(1,2)                  1.5282         -DE/DX =    0.0                 !
 ! R2    R(2,3)                  1.1264         -DE/DX =    0.0                 !
 ! A1    A(1,2,3)              110.3857         -DE/DX =    0.0                 !
 --------------------------------------------------------------------------------
 GradGradGradGradGradGradGradGradGradGradGradGradGradGradGradGradGradGrad


 ----------------------------------------------------------------------

 Electric dipole moment (input orientation):
 (Debye = 10**-18 statcoulomb cm , SI units = C m)
                  (au)            (Debye)         (10**-30 SI)
   Tot        0.694364D+00      0.176490D+01      0.588706D+01
   x          0.536779D+00      0.136436D+01      0.455101D+01
   y          0.440465D+00      0.111955D+01      0.373442D+01
   z          0.000000D+00      0.000000D+00      0.000000D+00

 Dipole polarizability, Alpha (input orientation).
 (esu units = cm**3 , SI units = C**2 m**2 J**-1)
 Alpha(0;0):
               (au)            (10**-24 esu)      (10**-40 SI)
   iso        0.147307D+02      0.218287D+01      0.242877D+01
   aniso      0.128986D+02      0.191138D+01      0.212670D+01
   xx         0.208370D+02      0.308773D+01      0.343556D+01
   yx         0.456003D+01      0.675726D+00      0.751847D+00
   yy         0.142659D+02      0.211399D+01      0.235213D+01
   zx         0.000000D+00      0.000000D+00      0.000000D+00
   zy         0.000000D+00      0.000000D+00      0.000000D+00
   zz         0.908925D+01      0.134689D+01      0.149861D+01

 ----------------------------------------------------------------------

 Dipole orientation:
     9         -0.13246385          0.16142914         -2.14623064
     7         -0.52583566          0.64081784          0.67431284
     8          0.60929126         -0.74252231          1.82689617

 Electric dipole moment (dipole orientation):
 (Debye = 10**-18 statcoulomb cm , SI units = C m)
                  (au)            (Debye)         (10**-30 SI)
   Tot        0.694364D+00      0.176490D+01      0.588706D+01
   x          0.000000D+00      0.000000D+00      0.000000D+00
   y          0.000000D+00      0.000000D+00      0.000000D+00
   z          0.694364D+00      0.176490D+01      0.588706D+01

 Dipole polarizability, Alpha (dipole orientation).
 (esu units = cm**3 , SI units = C**2 m**2 J**-1)
 Alpha(0;0):
               (au)            (10**-24 esu)      (10**-40 SI)
   iso        0.147307D+02      0.218287D+01      0.242877D+01
   aniso      0.128986D+02      0.191138D+01      0.212670D+01
   xx         0.104367D+02      0.154655D+01      0.172077D+01
   yx        -0.164205D+01     -0.243327D+00     -0.270738D+00
   yy         0.110904D+02      0.164342D+01      0.182855D+01
   zx         0.147937D+01      0.219220D+00      0.243915D+00
   zy        -0.180286D+01     -0.267156D+00     -0.297251D+00
   zz         0.226652D+02      0.335863D+01      0.373698D+01

 ----------------------------------------------------------------------
 1\1\GINC-GAMBA\Freq\RB3LYP\Gen\F1N1O1\IRIKURA\17-Jun-2022\0\\#N Geom=A
 llCheck Guess=TCheck SCRF=Check GenChk RB3LYP/ChkBas Freq\\nitrosyl fl
 uoride, B3LYP/pcseg-2\\0,1\F,-0.9480799141,-0.6350216159,0.\N,-0.00241
 14005,0.5654593876,0.\O,1.0697723146,0.2203262283,0.\\Version=ES64L-G1
 6RevB.01\State=1-A'\HF=-229.8131596\RMSD=1.220e-09\RMSF=4.630e-06\Zero
 Point=0.0074078\Thermal=0.0105325\Dipole=0.5367795,0.4404649,0.\Dipole
 Deriv=-0.8718219,-0.3609262,0.,-0.8016857,-0.851387,0.,0.,0.,-0.215641
 3,1.9942894,0.8232281,0.,0.3887189,0.7844426,0.,0.,0.,0.1409131,-1.122
 4675,-0.4623019,0.,0.4129667,0.0669444,0.,0.,0.,0.0747281\Polar=20.837
 0088,4.5600264,14.2659247,0.,0.,9.0892496\Quadrupole=-0.773197,-0.1996
 735,0.9728705,-0.3429543,0.,0.\PG=CS [SG(F1N1O1)]\NImag=0\\0.09363105,
 0.04399844,0.09500833,0.,0.,-0.00000840,0.01348290,0.03328668,0.,0.898
 86826,-0.01244513,-0.15445333,0.,-0.34122746,0.39061016,0.,0.,0.000010
 20,0.,0.,-0.00001106,-0.10711395,-0.07728512,0.,-0.91235116,0.35367259
 ,0.,1.01946512,-0.03155331,0.05944501,0.,0.30794078,-0.23615683,0.,-0.
 27638747,0.17671182,0.,0.,-0.00000180,0.,0.,0.00000086,0.,0.,0.0000009
 4\\0.00000095,0.00000327,0.,0.00000739,-0.00000672,0.,-0.00000835,0.00
 000345,0.\\\@


 ... SUBJECTS WHICH DISCLOSE THEIR FULL POWER, MEANING AND BEAUTY AS SOON
 AS THEY ARE PRESENTED TO THE MIND HAVE VERY LITTLE OF THOSE QUALITIES
 TO DISCLOSE.
                           -- CHARLES DUTTON (1882)
 Job cpu time:       0 days  0 hours  1 minutes 26.6 seconds.
 Elapsed time:       0 days  0 hours  0 minutes  7.3 seconds.
 File lengths (MBytes):  RWF=     10 Int=      0 D2E=      0 Chk=      2 Scr=      1
 Normal termination of Gaussian 16 at Fri Jun 17 17:25:13 2022.
