 Entering Gaussian System, Link 0=g16
 AtFile(1): pcseg2.gbs
            -H     0
            S   4   1.00
                  0.754732D+02           0.427821D-02
                  0.113575D+02           0.328672D-01
                  0.260081D+01           0.159578D+00
                  0.735503D+00           0.500000D+00
            S   1   1.00
                  0.231761D+00           1.0000000
            S   1   1.00
                  0.741675D-01           1.0000000
            P   1   1.00
                  0.160000D+01           1.0000000
            P   1   1.00
                  0.450000D+00           1.0000000
            D   1   1.00
                  0.125000D+01           1.0000000
            ****
            -C     0
            S   7   1.00
                  0.731999D+04           0.695369D-03
                  0.109818D+04           0.537138D-02
                  0.250014D+03           0.274734D-01
                  0.707586D+02           0.105078D+00
                  0.228595D+02           0.291262D+00
                  0.803936D+01           0.500000D+00
                  0.289309D+01           0.362224D+00
            S   2   1.00
                  0.521640D+01          -0.957844D-01
                  0.556124D+00           0.500000D+00
            S   1   1.00
                  0.228813D+00           1.0000000
            S   1   1.00
                  0.936338D-01           1.0000000
            P   4   1.00
                  0.339855D+02           0.818395D-02
                  0.772957D+01           0.586921D-01
                  0.224954D+01           0.222514D+00
                  0.767681D+00           0.500000D+00
            P   1   1.00
                  0.263283D+00           1.0000000
            P   1   1.00
                  0.848744D-01           1.0000000
            D   1   1.00
                  0.140000D+01           1.0000000
            D   1   1.00
                  0.450000D+00           1.0000000
            F   1   1.00
                  0.950000D+00           1.0000000
            ****
            -O     0
            S   7   1.00
                  0.135887D+05           0.665492D-03
                  0.203847D+04           0.514222D-02
                  0.464041D+03           0.263472D-01
                  0.131339D+03           0.101500D+00
                  0.425340D+02           0.285877D+00
                  0.150429D+02           0.500000D+00
                  0.546616D+01           0.368211D+00
            S   2   1.00
                  0.100915D+02          -0.100084D+00
                  0.110429D+01           0.500000D+00
            S   1   1.00
                  0.448082D+00           1.0000000
            S   1   1.00
                  0.175325D+00           1.0000000
            P   4   1.00
                  0.608220D+02           0.908253D-02
                  0.140332D+02           0.645878D-01
                  0.418244D+01           0.241502D+00
                  0.142490D+01           0.500000D+00
            P   1   1.00
                  0.478741D+00           1.0000000
            P   1   1.00
                  0.146257D+00           1.0000000
            D   1   1.00
                  0.220000D+01           1.0000000
            D   1   1.00
                  0.650000D+00           1.0000000
            F   1   1.00
                  0.110000D+01           1.0000000
            ****
            -N     0
            S   7   1.00
                  0.101643D+05           0.682757D-03
                  0.152481D+04           0.527488D-02
                  0.347119D+03           0.270037D-01
                  0.982389D+02           0.103673D+00
                  0.317799D+02           0.289575D+00
                  0.112240D+02           0.500000D+00
                  0.406611D+01           0.364621D+00
            S   2   1.00
                  0.747898D+01          -0.975681D-01
                  0.805040D+00           0.500000D+00
            S   1   1.00
                  0.324626D+00           1.0000000
            S   1   1.00
                  0.128132D+00           1.0000000
            P   4   1.00
                  0.482704D+02           0.829547D-02
                  0.110815D+02           0.596223D-01
                  0.326643D+01           0.227889D+00
                  0.111680D+01           0.500000D+00
            P   1   1.00
                  0.382049D+00           1.0000000
            P   1   1.00
                  0.121222D+00           1.0000000
            D   1   1.00
                  0.180000D+01           1.0000000
            D   1   1.00
                  0.550000D+00           1.0000000
            F   1   1.00
                  0.102000D+01           1.0000000
            ****
            -F     0
            S   7   1.00
                  0.174507D+05           0.655972D-03
                  0.261768D+04           0.506944D-02
                  0.595857D+03           0.259899D-01
                  0.168651D+03           0.100353D+00
                  0.546654D+02           0.284095D+00
                  0.193717D+02           0.500000D+00
                  0.706202D+01           0.370721D+00
            S   2   1.00
                  0.131197D+02          -0.101997D+00
                  0.145046D+01           0.500000D+00
            S   1   1.00
                  0.588255D+00           1.0000000
            S   1   1.00
                  0.227960D+00           1.0000000
            P   4   1.00
                  0.779407D+02           0.931135D-02
                  0.180425D+02           0.663964D-01
                  0.542342D+01           0.246386D+00
                  0.184876D+01           0.500000D+00
            P   1   1.00
                  0.617455D+00           1.0000000
            P   1   1.00
                  0.185496D+00           1.0000000
            D   1   1.00
                  0.280000D+01           1.0000000
            D   1   1.00
                  0.800000D+00           1.0000000
            F   1   1.00
                  0.120000D+01           1.0000000
            ****
            -Cl     0
            S   8   1.00
                  0.154272D+06           0.222473D-03
                  0.231232D+05           0.172590D-02
                  0.526257D+04           0.899286D-02
                  0.148995D+04           0.367724D-01
                  0.485417D+03           0.121446D+00
                  0.174634D+03           0.304148D+00
                  0.672393D+02           0.500000D+00
                  0.265780D+02           0.360252D+00
            S   3   1.00
                  0.131826D+03          -0.531330D-01
                  0.400703D+02          -0.233346D+00
                  0.789448D+01           0.500000D+00
            S   2   1.00
                  0.427711D+01           0.500000D+00
                  0.196233D+01           0.370517D+00
            S   1   1.00
                  0.520793D+00           1.0000000
            S   1   1.00
                  0.181633D+00           1.0000000
            P   7   1.00
                  0.124440D+04           0.988206D-03
                  0.295109D+03           0.829674D-02
                  0.947224D+02           0.430906D-01
                  0.352588D+02           0.148443D+00
                  0.144211D+02           0.344744D+00
                  0.610371D+01           0.500000D+00
                  0.258886D+01           0.348278D+00
            P   2   1.00
                  0.109447D+02          -0.196768D-01
                  0.104413D+01           0.500000D+00
            P   1   1.00
                  0.376184D+00           1.0000000
            P   1   1.00
                  0.120613D+00           1.0000000
            D   1   1.00
                  0.231000D+01           1.0000000
            D   1   1.00
                  0.520000D+00           1.0000000
            F   1   1.00
                  0.720000D+00           1.0000000
            ****
            -S     0
            S   8   1.00
                  0.134700D+06           0.226231D-03
                  0.201904D+05           0.175488D-02
                  0.459528D+04           0.914190D-02
                  0.130109D+04           0.373551D-01
                  0.423902D+03           0.123121D+00
                  0.152485D+03           0.306801D+00
                  0.586925D+02           0.500000D+00
                  0.231461D+02           0.354358D+00
            S   3   1.00
                  0.116327D+03          -0.491772D-01
                  0.352841D+02          -0.215962D+00
                  0.677831D+01           0.500000D+00
            S   2   1.00
                  0.360404D+01           0.500000D+00
                  0.164871D+01           0.366278D+00
            S   1   1.00
                  0.421821D+00           1.0000000
            S   1   1.00
                  0.147554D+00           1.0000000
            P   7   1.00
                  0.104863D+04           0.105273D-02
                  0.248717D+03           0.879338D-02
                  0.797887D+02           0.453358D-01
                  0.296023D+02           0.154476D+00
                  0.120627D+02           0.352366D+00
                  0.507628D+01           0.500000D+00
                  0.213375D+01           0.346429D+00
            P   2   1.00
                  0.928958D+01          -0.185932D-01
                  0.837819D+00           0.500000D+00
            P   1   1.00
                  0.301495D+00           1.0000000
            P   1   1.00
                  0.974740D-01           1.0000000
            D   1   1.00
                  0.210000D+01           1.0000000
            D   1   1.00
                  0.480000D+00           1.0000000
            F   1   1.00
                  0.660000D+00           1.0000000
            ****
            -Br     0
            S    10   1.00
                  0.233625D+07           0.532336D-04
                  0.349961D+06           0.413715D-03
                  0.796444D+05           0.217123D-02
                  0.225555D+05           0.910109D-02
                  0.735546D+04           0.323789D-01
                  0.265352D+04           0.988755D-01
                  0.103517D+04           0.248138D+00
                  0.422205D+03           0.474328D+00
                  0.180035D+03           0.500000D+00
                  0.793308D+02           0.187769D+00
            S    4   1.00
                  0.620834D+03          -0.226511D-01
                  0.190829D+03          -0.109497D+00
                  0.312505D+02           0.500000D+00
                  0.135270D+02           0.492812D+00
            S    2   1.00
                  0.216097D+02          -0.165418D+00
                  0.372566D+01           0.500000D+00
            S    1   1.00
                  0.169770D+01           1.0000000
            S    1   1.00
                  0.489332D+00           1.0000000
            S    1   1.00
                  0.175712D+00           1.0000000
            P    8   1.00
                  0.960829D+04           0.478974D-03
                  0.227618D+04           0.417853D-02
                  0.736723D+03           0.229315D-01
                  0.281579D+03           0.892653D-01
                  0.118395D+03           0.255288D+00
                  0.527481D+02           0.479074D+00
                  0.245098D+02           0.500000D+00
                  0.112009D+02           0.200944D+00
            P    4   1.00
                  0.587849D+02          -0.189674D-01
                  0.918962D+01           0.264104D+00
                  0.413895D+01           0.500000D+00
                  0.184225D+01           0.319316D+00
            P    1   1.00
                  0.713862D+00           1.0000000
            P    1   1.00
                  0.274232D+00           1.0000000
            P    1   1.00
                  0.944411D-01           1.0000000
            D    7   1.00
                  0.398470D+03           0.204066D-02
                  0.118967D+03           0.175171D-01
                  0.450197D+02           0.829708D-01
                  0.190320D+02           0.236284D+00
                  0.855686D+01           0.428468D+00
                  0.382950D+01           0.500000D+00
                  0.166291D+01           0.349360D+00
            D    1   1.00
                  0.672953D+00           1.0000000
            D    1   1.00
                  0.252000D+00           1.0000000
            F    1   1.00
                  0.530000D+00           1.0000000
            ****
            -Si     0
            S    8   1.00
                  0.996133D+05           0.235546D-03
                  0.149311D+05           0.182707D-02
                  0.339820D+04           0.951425D-02
                  0.962140D+03           0.388172D-01
                  0.313430D+03           0.127328D+00
                  0.112683D+03           0.313522D+00
                  0.433372D+02           0.500000D+00
                  0.170029D+02           0.340347D+00
            S    3   1.00
                  0.884208D+02          -0.404451D-01
                  0.266756D+02          -0.178059D+00
                  0.479640D+01           0.500000D+00
            S    2   1.00
                  0.239385D+01           0.500000D+00
                  0.108333D+01           0.338016D+00
            S    1   1.00
                  0.252420D+00           1.0000000
            S    1   1.00
                  0.891210D-01           1.0000000
            P    7   1.00
                  0.709901D+03           0.123028D-02
                  0.168426D+03           0.101366D-01
                  0.539946D+02           0.511840D-01
                  0.198646D+02           0.169967D+00
                  0.801369D+01           0.370717D+00
                  0.331870D+01           0.500000D+00
                  0.136112D+01           0.344128D+00
            P    2   1.00
                  0.622158D+01          -0.166609D-01
                  0.503049D+00           0.500000D+00
            P    1   1.00
                  0.179848D+00           1.0000000
            P    1   1.00
                  0.591912D-01           1.0000000
            D    1   1.00
                  0.168000D+01           1.0000000
            D    1   1.00
                  0.380000D+00           1.0000000
            F    1   1.00
                  0.540000D+00           1.0000000
            ****
            -P     0
            S    8   1.00
                  0.116416D+06           0.230715D-03
                  0.174500D+05           0.178960D-02
                  0.397149D+04           0.932116D-02
                  0.112447D+04           0.380591D-01
                  0.366347D+03           0.125148D+00
                  0.131757D+03           0.310022D+00
                  0.506988D+02           0.500000D+00
                  0.199436D+02           0.347528D+00
            S    3   1.00
                  0.101878D+03          -0.446755D-01
                  0.308249D+02          -0.196376D+00
                  0.573688D+01           0.500000D+00
            S    2   1.00
                  0.296868D+01           0.500000D+00
                  0.135315D+01           0.355098D+00
            S    1   1.00
                  0.332196D+00           1.0000000
            S    1   1.00
                  0.116229D+00           1.0000000
            P    7   1.00
                  0.873928D+03           0.112375D-02
                  0.207298D+03           0.933330D-02
                  0.664628D+02           0.477213D-01
                  0.245665D+02           0.160733D+00
                  0.996820D+01           0.359760D+00
                  0.416536D+01           0.500000D+00
                  0.173022D+01           0.346593D+00
            P    2   1.00
                  0.772530D+01          -0.175718D-01
                  0.657252D+00           0.500000D+00
            P    1   1.00
                  0.239903D+00           1.0000000
            P    1   1.00
                  0.800988D-01           1.0000000
            D    1   1.00
                  0.189000D+01           1.0000000
            D    1   1.00
                  0.430000D+00           1.0000000
            F    1   1.00
                  0.600000D+00           1.0000000
            ****
            
 Initial command:
 /usr/local/apps/g16_b01_avx/g16/l1.exe "/wrk/irikura/Gau-429531.inp" -scrdir="/wrk/irikura/"
 Entering Link 1 = /usr/local/apps/g16_b01_avx/g16/l1.exe PID=    429533.
  
 Copyright (c) 1988-2017, Gaussian, Inc.  All Rights Reserved.
  
 This is part of the Gaussian(R) 16 program.  It is based on
 the Gaussian(R) 09 system (copyright 2009, Gaussian, Inc.),
 the Gaussian(R) 03 system (copyright 2003, Gaussian, Inc.),
 the Gaussian(R) 98 system (copyright 1998, Gaussian, Inc.),
 the Gaussian(R) 94 system (copyright 1995, Gaussian, Inc.),
 the Gaussian 92(TM) system (copyright 1992, Gaussian, Inc.),
 the Gaussian 90(TM) system (copyright 1990, Gaussian, Inc.),
 the Gaussian 88(TM) system (copyright 1988, Gaussian, Inc.),
 the Gaussian 86(TM) system (copyright 1986, Carnegie Mellon
 University), and the Gaussian 82(TM) system (copyright 1983,
 Carnegie Mellon University). Gaussian is a federally registered
 trademark of Gaussian, Inc.
  
 This software contains proprietary and confidential information,
 including trade secrets, belonging to Gaussian, Inc.
  
 This software is provided under written license and may be
 used, copied, transmitted, or stored only in accord with that
 written license.
  
 The following legend is applicable only to US Government
 contracts under FAR:
  
                    RESTRICTED RIGHTS LEGEND
  
 Use, reproduction and disclosure by the US Government is
 subject to restrictions as set forth in subparagraphs (a)
 and (c) of the Commercial Computer Software - Restricted
 Rights clause in FAR 52.227-19.
  
 Gaussian, Inc.
 340 Quinnipiac St., Bldg. 40, Wallingford CT 06492
  
  
 ---------------------------------------------------------------
 Warning -- This program may not be used in any manner that
 competes with the business of Gaussian, Inc. or will provide
 assistance to any competitor of Gaussian, Inc.  The licensee
 of this program is prohibited from giving any competitor of
 Gaussian, Inc. access to this program.  By using this program,
 the user acknowledges that Gaussian, Inc. is engaged in the
 business of creating and licensing software in the field of
 computational chemistry and represents and warrants to the
 licensee that it is not a competitor of Gaussian, Inc. and that
 it will not use this program in any manner prohibited above.
 ---------------------------------------------------------------
  

 Cite this work as:
 Gaussian 16, Revision B.01,
 M. J. Frisch, G. W. Trucks, H. B. Schlegel, G. E. Scuseria, 
 M. A. Robb, J. R. Cheeseman, G. Scalmani, V. Barone, 
 G. A. Petersson, H. Nakatsuji, X. Li, M. Caricato, A. V. Marenich, 
 J. Bloino, B. G. Janesko, R. Gomperts, B. Mennucci, H. P. Hratchian, 
 J. V. Ortiz, A. F. Izmaylov, J. L. Sonnenberg, D. Williams-Young, 
 F. Ding, F. Lipparini, F. Egidi, J. Goings, B. Peng, A. Petrone, 
 T. Henderson, D. Ranasinghe, V. G. Zakrzewski, J. Gao, N. Rega, 
 G. Zheng, W. Liang, M. Hada, M. Ehara, K. Toyota, R. Fukuda, 
 J. Hasegawa, M. Ishida, T. Nakajima, Y. Honda, O. Kitao, H. Nakai, 
 T. Vreven, K. Throssell, J. A. Montgomery, Jr., J. E. Peralta, 
 F. Ogliaro, M. J. Bearpark, J. J. Heyd, E. N. Brothers, K. N. Kudin, 
 V. N. Staroverov, T. A. Keith, R. Kobayashi, J. Normand, 
 K. Raghavachari, A. P. Rendell, J. C. Burant, S. S. Iyengar, 
 J. Tomasi, M. Cossi, J. M. Millam, M. Klene, C. Adamo, R. Cammi, 
 J. W. Ochterski, R. L. Martin, K. Morokuma, O. Farkas, 
 J. B. Foresman, and D. J. Fox, Gaussian, Inc., Wallingford CT, 2016.
 
 ******************************************
 Gaussian 16:  ES64L-G16RevB.01 20-Dec-2017
                30-Sep-2023 
 ******************************************
 %chk=foo.chk
 %mem=500mw
 %nprocs=4
 Will use up to    4 processors via shared memory.
 ---------------------------------------
 # b3lyp/gen opt freq CPHF(Grid=OneStep)
 ---------------------------------------
 1/18=20,19=15,26=3,38=1/1,3;
 2/9=110,12=2,17=6,18=5,40=1/2;
 3/5=7,11=2,25=1,30=1,71=1,74=-5/1,2,3;
 4//1;
 5/5=2,38=5/2;
 6/7=2,8=2,9=2,10=2,28=1/1;
 7//1,2,3,16;
 1/18=20,19=15,26=3/3(2);
 2/9=110/2;
 99//99;
 2/9=110/2;
 3/5=7,6=1,11=2,25=1,30=1,71=1,74=-5,82=7/1,2,3;
 4/5=5,16=3,69=1/1;
 5/5=2,38=5/2;
 7//1,2,3,16;
 1/18=20,19=15,26=3/3(-5);
 2/9=110/2;
 6/7=2,8=2,9=2,10=2,19=2,28=1/1;
 99/9=1/99;
 ----------------------------
 fluoroperoxyl, B3LYP/pcseg-2
 ----------------------------
 Symbolic Z-matrix:
 Charge =  0 Multiplicity = 2
 O                     1.13423   0.21591   0. 
 O                     0.        0.56892   0. 
 F                    -1.0082   -0.69763   0. 
 

 GradGradGradGradGradGradGradGradGradGradGradGradGradGradGradGradGradGrad
 Berny optimization.
 Initialization pass.
                           ----------------------------
                           !    Initial Parameters    !
                           ! (Angstroms and Degrees)  !
 --------------------------                            --------------------------
 ! Name  Definition              Value          Derivative Info.                !
 --------------------------------------------------------------------------------
 ! R1    R(1,2)                  1.1879         estimate D2E/DX2                !
 ! R2    R(2,3)                  1.6188         estimate D2E/DX2                !
 ! A1    A(1,2,3)              111.2326         estimate D2E/DX2                !
 --------------------------------------------------------------------------------
 Trust Radius=3.00D-01 FncErr=1.00D-07 GrdErr=1.00D-06 EigMax=2.50D+02 EigMin=1.00D-04
 Number of steps in this run=     20 maximum allowed number of steps=    100.
 GradGradGradGradGradGradGradGradGradGradGradGradGradGradGradGradGradGrad

                          Input orientation:                          
 ---------------------------------------------------------------------
 Center     Atomic      Atomic             Coordinates (Angstroms)
 Number     Number       Type             X           Y           Z
 ---------------------------------------------------------------------
      1          8           0        1.134225    0.215909    0.000000
      2          8           0        0.000000    0.568920    0.000000
      3          9           0       -1.008200   -0.697626    0.000000
 ---------------------------------------------------------------------
                    Distance matrix (angstroms):
                    1          2          3
     1  O    0.000000
     2  O    1.187890   0.000000
     3  F    2.329062   1.618829   0.000000
 Stoichiometry    FO2(2)
 Framework group  CS[SG(FO2)]
 Deg. of freedom     3
 Full point group                 CS      NOp   2
 Largest Abelian subgroup         CS      NOp   2
 Largest concise Abelian subgroup C1      NOp   1
                         Standard orientation:                         
 ---------------------------------------------------------------------
 Center     Atomic      Atomic             Coordinates (Angstroms)
 Number     Number       Type             X           Y           Z
 ---------------------------------------------------------------------
      1          8           0        1.134225    0.215909    0.000000
      2          8           0        0.000000    0.568920    0.000000
      3          9           0       -1.008200   -0.697626    0.000000
 ---------------------------------------------------------------------
 Rotational constants (GHZ):          80.4325928          10.3680093           9.1841447
 General basis read from cards:  (5D, 7F)
 There are    72 symmetry adapted cartesian basis functions of A'  symmetry.
 There are    33 symmetry adapted cartesian basis functions of A"  symmetry.
 There are    60 symmetry adapted basis functions of A'  symmetry.
 There are    30 symmetry adapted basis functions of A"  symmetry.
    90 basis functions,   153 primitive gaussians,   105 cartesian basis functions
    13 alpha electrons       12 beta electrons
       nuclear repulsion energy        68.4053451159 Hartrees.
 NAtoms=    3 NActive=    3 NUniq=    3 SFac= 1.00D+00 NAtFMM=   60 NAOKFM=F Big=F
 Integral buffers will be    131072 words long.
 Raffenetti 2 integral format.
 Two-electron integral symmetry is turned on.
 One-electron integrals computed using PRISM.
 NBasis=    90 RedAO= T EigKep=  7.43D-04  NBF=    60    30
 NBsUse=    90 1.00D-06 EigRej= -1.00D+00 NBFU=    60    30
 ExpMin= 1.46D-01 ExpMax= 1.75D+04 ExpMxC= 5.96D+02 IAcc=3 IRadAn=         5 AccDes= 0.00D+00
 Harris functional with IExCor=  402 and IRadAn=       5 diagonalized for initial guess.
 HarFok:  IExCor=  402 AccDes= 0.00D+00 IRadAn=         5 IDoV= 1 UseB2=F ITyADJ=14
 ICtDFT=  3500011 ScaDFX=  1.000000  1.000000  1.000000  1.000000
 FoFCou: FMM=F IPFlag=           0 FMFlag=      100000 FMFlg1=           0
         NFxFlg=           0 DoJE=T BraDBF=F KetDBF=T FulRan=T
         wScrn=  0.000000 ICntrl=       500 IOpCl=  0 I1Cent=   200000004 NGrid=           0
         NMat0=    1 NMatS0=      1 NMatT0=    0 NMatD0=    1 NMtDS0=    0 NMtDT0=    0
 Petite list used in FoFCou.
 Initial guess orbital symmetries:
 Alpha Orbitals:
       Occupied  (A') (A') (A') (A') (A') (A') (A') (A') (A") (A")
                 (A') (A') (A")
       Virtual   (A') (A') (A') (A") (A') (A') (A') (A') (A") (A")
                 (A') (A') (A') (A') (A") (A') (A") (A') (A") (A')
                 (A') (A") (A') (A') (A') (A") (A') (A") (A') (A")
                 (A') (A") (A') (A') (A') (A") (A') (A') (A') (A")
                 (A') (A") (A') (A') (A") (A") (A') (A') (A") (A')
                 (A") (A') (A') (A') (A') (A") (A") (A') (A') (A")
                 (A') (A") (A') (A") (A') (A") (A") (A') (A') (A')
                 (A') (A") (A') (A") (A') (A') (A')
 Beta  Orbitals:
       Occupied  (A') (A') (A') (A') (A') (A') (A') (A') (A") (A")
                 (A') (A')
       Virtual   (A") (A') (A') (A') (A") (A') (A') (A') (A') (A")
                 (A") (A') (A') (A') (A') (A") (A') (A") (A') (A")
                 (A') (A') (A") (A') (A') (A') (A") (A') (A") (A')
                 (A") (A') (A") (A') (A') (A') (A") (A') (A') (A')
                 (A") (A') (A") (A') (A') (A") (A") (A') (A') (A")
                 (A') (A") (A') (A') (A') (A') (A") (A") (A') (A')
                 (A") (A') (A") (A') (A") (A') (A") (A") (A') (A')
                 (A') (A') (A") (A') (A") (A') (A') (A')
 The electronic state of the initial guess is 2-A".
 Initial guess <Sx>= 0.0000 <Sy>= 0.0000 <Sz>= 0.5000 <S**2>= 0.7500 S= 0.5000
 Keep R1 and R2 ints in memory in symmetry-blocked form, NReq=12776859.
 Requested convergence on RMS density matrix=1.00D-08 within 128 cycles.
 Requested convergence on MAX density matrix=1.00D-06.
 Requested convergence on             energy=1.00D-06.
 No special actions if energy rises.
 Integral accuracy reduced to 1.0D-05 until final iterations.
 EnCoef did     1 forward-backward iterations
 EnCoef did     2 forward-backward iterations
 Initial convergence to 1.0D-05 achieved.  Increase integral accuracy.
 SCF Done:  E(UB3LYP) =  -250.175747659     A.U. after   24 cycles
            NFock= 24  Conv=0.49D-08     -V/T= 2.0025
 <Sx>= 0.0000 <Sy>= 0.0000 <Sz>= 0.5000 <S**2>= 0.8041 S= 0.5267
 <L.S>=  0.00000000000    
 Annihilation of the first spin contaminant:
 S**2 before annihilation     0.8041,   after     0.7504

 **********************************************************************

            Population analysis using the SCF Density.

 **********************************************************************

 Orbital symmetries:
 Alpha Orbitals:
       Occupied  (A') (A') (A') (A') (A') (A') (A") (A') (A') (A")
                 (A') (A') (A")
       Virtual   (A') (A') (A') (A") (A') (A') (A') (A') (A") (A")
                 (A') (A') (A') (A') (A") (A') (A") (A') (A") (A')
                 (A') (A') (A") (A') (A') (A") (A') (A") (A') (A")
                 (A') (A") (A') (A') (A') (A") (A') (A') (A') (A")
                 (A') (A") (A') (A") (A') (A") (A') (A') (A") (A')
                 (A") (A') (A') (A') (A') (A") (A") (A') (A') (A")
                 (A") (A') (A') (A") (A') (A") (A") (A') (A') (A')
                 (A') (A") (A') (A") (A') (A') (A')
 Beta  Orbitals:
       Occupied  (A') (A') (A') (A') (A') (A') (A') (A') (A") (A')
                 (A") (A')
       Virtual   (A") (A') (A') (A') (A") (A') (A') (A') (A') (A")
                 (A') (A") (A') (A') (A') (A") (A') (A") (A') (A")
                 (A') (A') (A') (A") (A') (A') (A") (A') (A") (A')
                 (A") (A') (A") (A') (A') (A') (A") (A') (A') (A')
                 (A") (A') (A") (A') (A') (A") (A") (A') (A') (A")
                 (A') (A") (A') (A') (A') (A') (A") (A") (A') (A')
                 (A") (A") (A') (A') (A") (A') (A") (A") (A') (A')
                 (A') (A') (A") (A') (A") (A') (A') (A')
 The electronic state is 2-A".
 Alpha  occ. eigenvalues --  -24.68560 -19.40060 -19.32722  -1.39018  -1.14805
 Alpha  occ. eigenvalues --   -0.87718  -0.63747  -0.62701  -0.61281  -0.41925
 Alpha  occ. eigenvalues --   -0.40540  -0.38897  -0.35056
 Alpha virt. eigenvalues --   -0.16590   0.12664   0.24432   0.26407   0.29088
 Alpha virt. eigenvalues --    0.31253   0.34112   0.36561   0.37066   0.48669
 Alpha virt. eigenvalues --    0.48973   0.53810   0.70760   0.81529   1.15561
 Alpha virt. eigenvalues --    1.21581   1.24115   1.32826   1.49838   1.62303
 Alpha virt. eigenvalues --    1.66464   1.80165   1.84106   1.86397   1.87892
 Alpha virt. eigenvalues --    1.91292   2.00110   2.00239   2.10691   2.13174
 Alpha virt. eigenvalues --    2.35453   2.47038   2.51523   2.55909   2.61006
 Alpha virt. eigenvalues --    2.83408   2.88550   2.93254   3.28951   3.49131
 Alpha virt. eigenvalues --    3.56655   3.64504   3.74934   3.82475   3.82569
 Alpha virt. eigenvalues --    3.96567   3.98069   4.27436   4.35833   4.39625
 Alpha virt. eigenvalues --    4.39898   4.40480   4.44913   4.50932   4.57858
 Alpha virt. eigenvalues --    4.66083   4.92559   4.95293   5.52888   5.80678
 Alpha virt. eigenvalues --    5.85460   5.86329   5.92290   6.02055   6.09135
 Alpha virt. eigenvalues --    6.14486   6.33194   6.34863   6.47814   6.82294
 Alpha virt. eigenvalues --    7.16958   7.51755   7.52644   7.71992   7.77081
 Alpha virt. eigenvalues --    8.44923  13.31531
  Beta  occ. eigenvalues --  -24.69164 -19.38430 -19.30592  -1.35937  -1.15944
  Beta  occ. eigenvalues --   -0.82987  -0.61173  -0.58706  -0.55121  -0.41010
  Beta  occ. eigenvalues --   -0.40629  -0.38756
  Beta virt. eigenvalues --   -0.17564  -0.15652   0.14203   0.25037   0.28144
  Beta virt. eigenvalues --    0.29665   0.32712   0.34195   0.36825   0.39214
  Beta virt. eigenvalues --    0.48688   0.48787   0.53796   0.71731   0.81603
  Beta virt. eigenvalues --    1.17625   1.22457   1.26795   1.34573   1.52798
  Beta virt. eigenvalues --    1.64681   1.67997   1.80729   1.84365   1.86723
  Beta virt. eigenvalues --    1.88805   1.94719   2.01573   2.05565   2.11653
  Beta virt. eigenvalues --    2.15185   2.36476   2.51529   2.53100   2.56947
  Beta virt. eigenvalues --    2.60811   2.83500   2.89063   2.94227   3.29483
  Beta virt. eigenvalues --    3.50849   3.58746   3.67069   3.75953   3.83862
  Beta virt. eigenvalues --    3.84921   3.99811   4.01062   4.28149   4.35891
  Beta virt. eigenvalues --    4.39680   4.39974   4.40647   4.44475   4.53158
  Beta virt. eigenvalues --    4.59678   4.67512   4.93716   4.95922   5.53995
  Beta virt. eigenvalues --    5.87291   5.89909   5.92821   5.94092   6.07720
  Beta virt. eigenvalues --    6.12753   6.19381   6.36887   6.37840   6.49845
  Beta virt. eigenvalues --    6.83061   7.18150   7.51677   7.52577   7.70357
  Beta virt. eigenvalues --    7.75230   8.42658  13.32959
          Condensed to atoms (all electrons):
               1          2          3
     1  O    7.851546   0.153258  -0.050880
     2  O    0.153258   7.648180  -0.005787
     3  F   -0.050880  -0.005787   9.307092
          Atomic-Atomic Spin Densities.
               1          2          3
     1  O    0.921999  -0.237521   0.008452
     2  O   -0.237521   0.690290   0.025003
     3  F    0.008452   0.025003  -0.204157
 Mulliken charges and spin densities:
               1          2
     1  O    0.046076   0.692930
     2  O    0.204349   0.477772
     3  F   -0.250425  -0.170702
 Sum of Mulliken charges =  -0.00000   1.00000
 Mulliken charges and spin densities with hydrogens summed into heavy atoms:
               1          2
     1  O    0.046076   0.692930
     2  O    0.204349   0.477772
     3  F   -0.250425  -0.170702
 Electronic spatial extent (au):  <R**2>=            130.0942
 Charge=             -0.0000 electrons
 Dipole moment (field-independent basis, Debye):
    X=              1.3078    Y=              1.2785    Z=              0.0000  Tot=              1.8289
 Quadrupole moment (field-independent basis, Debye-Ang):
   XX=            -16.2573   YY=            -15.2161   ZZ=            -14.8665
   XY=             -0.5346   XZ=              0.0000   YZ=              0.0000
 Traceless Quadrupole moment (field-independent basis, Debye-Ang):
   XX=             -0.8107   YY=              0.2306   ZZ=              0.5801
   XY=             -0.5346   XZ=              0.0000   YZ=              0.0000
 Octapole moment (field-independent basis, Debye-Ang**2):
  XXX=             -0.3209  YYY=             -0.1556  ZZZ=              0.0000  XYY=             -0.1993
  XXY=              0.2786  XXZ=              0.0000  XZZ=             -0.1929  YZZ=             -0.0492
  YYZ=              0.0000  XYZ=              0.0000
 Hexadecapole moment (field-independent basis, Debye-Ang**3):
 XXXX=            -81.4620 YYYY=            -35.8939 ZZZZ=            -10.4482 XXXY=            -14.9133
 XXXZ=              0.0000 YYYX=            -14.0132 YYYZ=              0.0000 ZZZX=              0.0000
 ZZZY=              0.0000 XXYY=            -19.3532 XXZZ=            -15.4288 YYZZ=             -7.9233
 XXYZ=              0.0000 YYXZ=              0.0000 ZZXY=             -4.9035
 N-N= 6.840534511591D+01 E-N=-7.308575019340D+02  KE= 2.495596644541D+02
 Symmetry A'   KE= 2.351604164196D+02
 Symmetry A"   KE= 1.439924803450D+01
 Symmetry A'   SP= 9.636772614976D-15
 Symmetry A"   SP= 1.000000000000D+00
                          Isotropic Fermi Contact Couplings
        Atom                 a.u.       MegaHertz       Gauss      10(-4) cm-1
     1  O(17)              0.17295    -104.83864     -37.40903     -34.97041
     2  O(17)              0.03764     -22.81818      -8.14209      -7.61132
     3  F(19)             -0.05438    -228.78480     -81.63610     -76.31439
 --------------------------------------------------------
       Center         ----  Spin Dipole Couplings  ----
                      3XX-RR        3YY-RR        3ZZ-RR
 --------------------------------------------------------
     1   Atom       -1.661759     -0.894278      2.556036
     2   Atom       -1.404472     -0.805669      2.210141
     3   Atom       -0.203744     -0.686431      0.890175
 --------------------------------------------------------
                        XY            XZ            YZ
 --------------------------------------------------------
     1   Atom        0.284403      0.000000      0.000000
     2   Atom        0.126518      0.000000      0.000000
     3   Atom       -0.981421      0.000000      0.000000
 --------------------------------------------------------


 ---------------------------------------------------------------------------------
              Anisotropic Spin Dipole Couplings in Principal Axis System
 ---------------------------------------------------------------------------------

       Atom             a.u.   MegaHertz   Gauss  10(-4) cm-1        Axes

              Baa    -1.7557   127.038    45.330    42.375  0.9496 -0.3135 -0.0000
     1 O(17)  Bbb    -0.8004    57.915    20.665    19.318  0.3135  0.9496  0.0000
              Bcc     2.5560  -184.953   -65.996   -61.694  0.0000  0.0000  1.0000
 
              Baa    -1.4301   103.481    36.925    34.518  0.9801 -0.1986 -0.0000
     2 O(17)  Bbb    -0.7800    56.443    20.140    18.827  0.1986  0.9801  0.0000
              Bcc     2.2101  -159.924   -57.065   -53.345  0.0000  0.0000  1.0000
 
              Baa    -1.4557  -731.114  -260.880  -243.873  0.6169  0.7870  0.0000
     3 F(19)  Bbb     0.5656   284.045   101.354    94.747  0.7870 -0.6169 -0.0000
              Bcc     0.8902   447.069   159.525   149.126  0.0000  0.0000  1.0000
 

 ---------------------------------------------------------------------------------

 Calling FoFJK, ICntrl=      2127 FMM=F ISym2X=1 I1Cent= 0 IOpClX= 1 NMat=1 NMatS=1 NMatT=0.
 ***** Axes restored to original set *****
 -------------------------------------------------------------------
 Center     Atomic                   Forces (Hartrees/Bohr)
 Number     Number              X              Y              Z
 -------------------------------------------------------------------
      1        8          -0.000013202   -0.000007226   -0.000000000
      2        8           0.000022172    0.000031131    0.000000000
      3        9          -0.000008970   -0.000023906   -0.000000000
 -------------------------------------------------------------------
 Cartesian Forces:  Max     0.000031131 RMS     0.000016122

 GradGradGradGradGradGradGradGradGradGradGradGradGradGradGradGradGradGrad
 Berny optimization.
 FormGI is forming the generalized inverse of G from B-inverse, IUseBI=4.
 Internal  Forces:  Max     0.000024303 RMS     0.000020710
 Search for a local minimum.
 Step number   1 out of a maximum of   20
 All quantities printed in internal units (Hartrees-Bohrs-Radians)
 Mixed Optimization -- En-DIIS/RFO-DIIS
 Second derivative matrix not updated -- first step.
 The second derivative matrix:
                          R1        R2        A1
           R1           1.11151
           R2           0.00000   0.22538
           A1           0.00000   0.00000   0.25000
 ITU=  0
     Eigenvalues ---    0.22538   0.25000   1.11151
 RFO step:  Lambda= 0.00000000D+00 EMin= 2.25379016D-01
 Linear search not attempted -- first point.
 Iteration  1 RMS(Cart)=  0.00007148 RMS(Int)=  0.00000000
 Iteration  2 RMS(Cart)=  0.00000000 RMS(Int)=  0.00000000
 ClnCor:  largest displacement from symmetrization is 9.86D-32 for atom     1.
 Variable       Old X    -DE/DX   Delta X   Delta X   Delta X     New X
                                 (Linear)    (Quad)   (Total)
    R1        2.24479  -0.00001   0.00000  -0.00001  -0.00001   2.24478
    R2        3.05914   0.00002   0.00000   0.00011   0.00011   3.05925
    A1        1.94138  -0.00002   0.00000  -0.00010  -0.00010   1.94128
         Item               Value     Threshold  Converged?
 Maximum Force            0.000024     0.000450     YES
 RMS     Force            0.000021     0.000300     YES
 Maximum Displacement     0.000094     0.001800     YES
 RMS     Displacement     0.000071     0.001200     YES
 Predicted change in Energy=-2.532313D-09
 Optimization completed.
    -- Stationary point found.
                           ----------------------------
                           !   Optimized Parameters   !
                           ! (Angstroms and Degrees)  !
 --------------------------                            --------------------------
 ! Name  Definition              Value          Derivative Info.                !
 --------------------------------------------------------------------------------
 ! R1    R(1,2)                  1.1879         -DE/DX =    0.0                 !
 ! R2    R(2,3)                  1.6188         -DE/DX =    0.0                 !
 ! A1    A(1,2,3)              111.2326         -DE/DX =    0.0                 !
 --------------------------------------------------------------------------------
 GradGradGradGradGradGradGradGradGradGradGradGradGradGradGradGradGradGrad

                          Input orientation:                          
 ---------------------------------------------------------------------
 Center     Atomic      Atomic             Coordinates (Angstroms)
 Number     Number       Type             X           Y           Z
 ---------------------------------------------------------------------
      1          8           0        1.134225    0.215909    0.000000
      2          8           0        0.000000    0.568920    0.000000
      3          9           0       -1.008200   -0.697626   -0.000000
 ---------------------------------------------------------------------
                    Distance matrix (angstroms):
                    1          2          3
     1  O    0.000000
     2  O    1.187890   0.000000
     3  F    2.329062   1.618829   0.000000
 Stoichiometry    FO2(2)
 Framework group  CS[SG(FO2)]
 Deg. of freedom     3
 Full point group                 CS      NOp   2
 Largest Abelian subgroup         CS      NOp   2
 Largest concise Abelian subgroup C1      NOp   1
                         Standard orientation:                         
 ---------------------------------------------------------------------
 Center     Atomic      Atomic             Coordinates (Angstroms)
 Number     Number       Type             X           Y           Z
 ---------------------------------------------------------------------
      1          8           0        1.134225    0.215909    0.000000
      2          8           0        0.000000    0.568920    0.000000
      3          9           0       -1.008200   -0.697626    0.000000
 ---------------------------------------------------------------------
 Rotational constants (GHZ):          80.4325928          10.3680093           9.1841447
 1\1\GINC-GAMBA\FOpt\UB3LYP\Gen\F1O2(2)\IRIKURA\30-Sep-2023\0\\# b3lyp/
 gen opt freq CPHF(Grid=OneStep)\\fluoroperoxyl, B3LYP/pcseg-2\\0,2\O,1
 .134225,0.215909,0.\O,0.,0.56892,0.\F,-1.0082,-0.697626,0.\\Version=ES
 64L-G16RevB.01\State=2-A"\HF=-250.1757477\S2=0.804136\S2-1=0.\S2A=0.75
 0429\RMSD=4.943e-09\RMSF=1.612e-05\Dipole=0.5145421,0.5030022,0.\Quadr
 upole=-0.6027344,0.1714154,0.431319,-0.3974954,0.,0.\PG=CS [SG(F1O2)]\
 \@


 SI MONUMENTUM REQUIRIS, CIRCUMSPICE
     -- FROM SIR CHRISTOPHER WREN'S TOMBSTONE
 Job cpu time:       0 days  0 hours  0 minutes 23.9 seconds.
 Elapsed time:       0 days  0 hours  0 minutes  6.1 seconds.
 File lengths (MBytes):  RWF=     10 Int=      0 D2E=      0 Chk=      2 Scr=      1
 Normal termination of Gaussian 16 at Sat Sep 30 01:31:59 2023.
 Link1:  Proceeding to internal job step number  2.
 ------------------------------------------------------------------
 #N Geom=AllCheck Guess=TCheck SCRF=Check GenChk UB3LYP/ChkBas Freq
 ------------------------------------------------------------------
 1/10=4,29=7,30=1,38=1,40=1/1,3;
 2/12=2,40=1/2;
 3/5=7,6=2,11=2,14=-4,25=1,30=1,67=1,70=2,71=2,74=-5,82=7,116=2,140=1/1,2,3;
 4/5=101/1;
 5/5=2,38=6,98=1/2;
 8/6=4,10=90,11=11/1;
 11/6=1,8=1,9=11,15=111,16=1/1,2,10;
 10/6=1,60=-420/2;
 6/7=2,8=2,9=2,10=2,28=1/1;
 7/8=1,10=1,25=1/1,2,3,16;
 1/10=4,30=1/3;
 99//99;
 Structure from the checkpoint file:  "foo.chk"
 ----------------------------
 fluoroperoxyl, B3LYP/pcseg-2
 ----------------------------
 Charge =  0 Multiplicity = 2
 Redundant internal coordinates found in file.  (old form).
 O,0,1.134225,0.215909,0.
 O,0,0.,0.56892,0.
 F,0,-1.0082,-0.697626,0.
 Recover connectivity data from disk.

 GradGradGradGradGradGradGradGradGradGradGradGradGradGradGradGradGradGrad
 Berny optimization.
 Initialization pass.
                           ----------------------------
                           !    Initial Parameters    !
                           ! (Angstroms and Degrees)  !
 --------------------------                            --------------------------
 ! Name  Definition              Value          Derivative Info.                !
 --------------------------------------------------------------------------------
 ! R1    R(1,2)                  1.1879         calculate D2E/DX2 analytically  !
 ! R2    R(2,3)                  1.6188         calculate D2E/DX2 analytically  !
 ! A1    A(1,2,3)              111.2326         calculate D2E/DX2 analytically  !
 --------------------------------------------------------------------------------
 Trust Radius=3.00D-01 FncErr=1.00D-07 GrdErr=1.00D-07 EigMax=2.50D+02 EigMin=1.00D-04
 Number of steps in this run=      2 maximum allowed number of steps=      2.
 GradGradGradGradGradGradGradGradGradGradGradGradGradGradGradGradGradGrad

                          Input orientation:                          
 ---------------------------------------------------------------------
 Center     Atomic      Atomic             Coordinates (Angstroms)
 Number     Number       Type             X           Y           Z
 ---------------------------------------------------------------------
      1          8           0        1.134225    0.215909    0.000000
      2          8           0        0.000000    0.568920    0.000000
      3          9           0       -1.008200   -0.697626   -0.000000
 ---------------------------------------------------------------------
                    Distance matrix (angstroms):
                    1          2          3
     1  O    0.000000
     2  O    1.187890   0.000000
     3  F    2.329062   1.618829   0.000000
 Stoichiometry    FO2(2)
 Framework group  CS[SG(FO2)]
 Deg. of freedom     3
 Full point group                 CS      NOp   2
 Largest Abelian subgroup         CS      NOp   2
 Largest concise Abelian subgroup C1      NOp   1
                         Standard orientation:                         
 ---------------------------------------------------------------------
 Center     Atomic      Atomic             Coordinates (Angstroms)
 Number     Number       Type             X           Y           Z
 ---------------------------------------------------------------------
      1          8           0        1.134225    0.215909   -0.000000
      2          8           0        0.000000    0.568920   -0.000000
      3          9           0       -1.008200   -0.697626    0.000000
 ---------------------------------------------------------------------
 Rotational constants (GHZ):          80.4325928          10.3680093           9.1841447
 Basis read from chk: "foo.chk" (5D, 7F)
 There are    72 symmetry adapted cartesian basis functions of A'  symmetry.
 There are    33 symmetry adapted cartesian basis functions of A"  symmetry.
 There are    60 symmetry adapted basis functions of A'  symmetry.
 There are    30 symmetry adapted basis functions of A"  symmetry.
    90 basis functions,   153 primitive gaussians,   105 cartesian basis functions
    13 alpha electrons       12 beta electrons
       nuclear repulsion energy        68.4053451159 Hartrees.
 NAtoms=    3 NActive=    3 NUniq=    3 SFac= 1.00D+00 NAtFMM=   60 NAOKFM=F Big=F
 Integral buffers will be    131072 words long.
 Raffenetti 2 integral format.
 Two-electron integral symmetry is turned on.
 One-electron integrals computed using PRISM.
 NBasis=    90 RedAO= T EigKep=  7.43D-04  NBF=    60    30
 NBsUse=    90 1.00D-06 EigRej= -1.00D+00 NBFU=    60    30
 Initial guess from the checkpoint file:  "foo.chk"
 B after Tr=     0.000000    0.000000    0.000000
         Rot=    1.000000    0.000000    0.000000   -0.000000 Ang=   0.00 deg.
 Initial guess orbital symmetries:
 Alpha Orbitals:
       Occupied  (A') (A') (A') (A') (A') (A') (A") (A') (A') (A")
                 (A') (A') (A")
       Virtual   (A') (A') (A') (A") (A') (A') (A') (A') (A") (A")
                 (A') (A') (A') (A') (A") (A') (A") (A') (A") (A')
                 (A') (A') (A") (A') (A') (A") (A') (A") (A') (A")
                 (A') (A") (A') (A') (A') (A") (A') (A') (A') (A")
                 (A') (A") (A') (A") (A') (A") (A') (A') (A") (A')
                 (A") (A') (A') (A') (A') (A") (A") (A') (A') (A")
                 (A") (A') (A') (A") (A') (A") (A") (A') (A') (A')
                 (A') (A") (A') (A") (A') (A') (A')
 Beta  Orbitals:
       Occupied  (A') (A') (A') (A') (A') (A') (A') (A') (A") (A')
                 (A") (A')
       Virtual   (A") (A') (A') (A') (A") (A') (A') (A') (A') (A")
                 (A') (A") (A') (A') (A') (A") (A') (A") (A') (A")
                 (A') (A') (A') (A") (A') (A') (A") (A') (A") (A')
                 (A") (A') (A") (A') (A') (A') (A") (A') (A') (A')
                 (A") (A') (A") (A') (A') (A") (A") (A') (A') (A")
                 (A') (A") (A') (A') (A') (A') (A") (A") (A') (A')
                 (A") (A") (A') (A') (A") (A') (A") (A") (A') (A')
                 (A') (A') (A") (A') (A") (A') (A') (A')
 Initial guess <Sx>= 0.0000 <Sy>= 0.0000 <Sz>= 0.5000 <S**2>= 0.8041 S= 0.5267
 Keep R1 and R2 ints in memory in symmetry-blocked form, NReq=12776859.
 Requested convergence on RMS density matrix=1.00D-08 within 128 cycles.
 Requested convergence on MAX density matrix=1.00D-06.
 Requested convergence on             energy=1.00D-06.
 No special actions if energy rises.
 SCF Done:  E(UB3LYP) =  -250.175747659     A.U. after    1 cycles
            NFock=  1  Conv=0.70D-09     -V/T= 2.0025
 <Sx>= 0.0000 <Sy>= 0.0000 <Sz>= 0.5000 <S**2>= 0.8041 S= 0.5267
 <L.S>=  0.00000000000    
 Annihilation of the first spin contaminant:
 S**2 before annihilation     0.8041,   after     0.7504
 DoSCS=F DFT=T ScalE2(SS,OS)=  1.000000  1.000000
 Range of M.O.s used for correlation:     1    90
 NBasis=    90 NAE=    13 NBE=    12 NFC=     0 NFV=     0
 NROrb=     90 NOA=    13 NOB=    12 NVA=    77 NVB=    78

 **** Warning!!: The largest alpha MO coefficient is  0.19071230D+02


 **** Warning!!: The largest beta MO coefficient is  0.19069899D+02

 Symmetrizing basis deriv contribution to polar:
 IMax=3 JMax=2 DiffMx= 0.00D+00
 G2DrvN: will do     4 centers at a time, making    1 passes.
 Calling FoFCou, ICntrl=  3107 FMM=F I1Cent=   0 AccDes= 0.00D+00.
 End of G2Drv F.D. properties file   721 does not exist.
 End of G2Drv F.D. properties file   722 does not exist.
 End of G2Drv F.D. properties file   788 does not exist.
          IDoAtm=111
          Differentiating once with respect to electric field.
                with respect to dipole field.
          Differentiating once with respect to nuclear coordinates.
 Keep R1 and R2 ints in memory in symmetry-blocked form, NReq=12779007.
          There are    12 degrees of freedom in the 1st order CPHF.  IDoFFX=6 NUNeed=     3.
      9 vectors produced by pass  0 Test12= 1.61D-14 8.33D-09 XBig12= 9.89D+01 6.24D+00.
 AX will form     9 AO Fock derivatives at one time.
      9 vectors produced by pass  1 Test12= 1.61D-14 8.33D-09 XBig12= 7.02D+01 2.24D+00.
      9 vectors produced by pass  2 Test12= 1.61D-14 8.33D-09 XBig12= 2.99D+00 4.89D-01.
      9 vectors produced by pass  3 Test12= 1.61D-14 8.33D-09 XBig12= 1.74D-01 1.50D-01.
      9 vectors produced by pass  4 Test12= 1.61D-14 8.33D-09 XBig12= 5.73D-03 2.32D-02.
      9 vectors produced by pass  5 Test12= 1.61D-14 8.33D-09 XBig12= 1.16D-04 2.79D-03.
      9 vectors produced by pass  6 Test12= 1.61D-14 8.33D-09 XBig12= 4.73D-07 1.20D-04.
      9 vectors produced by pass  7 Test12= 1.61D-14 8.33D-09 XBig12= 2.96D-09 8.97D-06.
      4 vectors produced by pass  8 Test12= 1.61D-14 8.33D-09 XBig12= 1.17D-11 6.08D-07.
      2 vectors produced by pass  9 Test12= 1.61D-14 8.33D-09 XBig12= 5.70D-14 5.23D-08.
 InvSVY:  IOpt=1 It=  1 EMax= 1.11D-15
 Solved reduced A of dimension    78 with     9 vectors.
 Isotropic polarizability for W=    0.000000       15.52 Bohr**3.
 End of Minotr F.D. properties file   721 does not exist.
 End of Minotr F.D. properties file   722 does not exist.
 End of Minotr F.D. properties file   788 does not exist.

 **********************************************************************

            Population analysis using the SCF Density.

 **********************************************************************

 Orbital symmetries:
 Alpha Orbitals:
       Occupied  (A') (A') (A') (A') (A') (A') (A") (A') (A') (A")
                 (A') (A') (A")
       Virtual   (A') (A') (A') (A") (A') (A') (A') (A') (A") (A")
                 (A') (A') (A') (A') (A") (A') (A") (A') (A") (A')
                 (A') (A') (A") (A') (A') (A") (A') (A") (A') (A")
                 (A') (A") (A') (A') (A') (A") (A') (A') (A') (A")
                 (A') (A") (A') (A") (A') (A") (A') (A') (A") (A')
                 (A") (A') (A') (A') (A') (A") (A") (A') (A') (A")
                 (A") (A') (A') (A") (A') (A") (A") (A') (A') (A')
                 (A') (A") (A') (A") (A') (A') (A')
 Beta  Orbitals:
       Occupied  (A') (A') (A') (A') (A') (A') (A') (A') (A") (A')
                 (A") (A')
       Virtual   (A") (A') (A') (A') (A") (A') (A') (A') (A') (A")
                 (A') (A") (A') (A') (A') (A") (A') (A") (A') (A")
                 (A') (A') (A') (A") (A') (A') (A") (A') (A") (A')
                 (A") (A') (A") (A') (A') (A') (A") (A') (A') (A')
                 (A") (A') (A") (A') (A') (A") (A") (A') (A') (A")
                 (A') (A") (A') (A') (A') (A') (A") (A") (A') (A')
                 (A") (A") (A') (A') (A") (A') (A") (A") (A') (A')
                 (A') (A') (A") (A') (A") (A') (A') (A')
 The electronic state is 2-A".
 Alpha  occ. eigenvalues --  -24.68560 -19.40060 -19.32722  -1.39018  -1.14805
 Alpha  occ. eigenvalues --   -0.87718  -0.63747  -0.62701  -0.61281  -0.41925
 Alpha  occ. eigenvalues --   -0.40540  -0.38897  -0.35056
 Alpha virt. eigenvalues --   -0.16590   0.12664   0.24432   0.26407   0.29088
 Alpha virt. eigenvalues --    0.31253   0.34112   0.36561   0.37066   0.48669
 Alpha virt. eigenvalues --    0.48973   0.53810   0.70760   0.81529   1.15561
 Alpha virt. eigenvalues --    1.21581   1.24115   1.32826   1.49838   1.62303
 Alpha virt. eigenvalues --    1.66464   1.80165   1.84106   1.86397   1.87892
 Alpha virt. eigenvalues --    1.91292   2.00110   2.00239   2.10691   2.13174
 Alpha virt. eigenvalues --    2.35453   2.47038   2.51523   2.55909   2.61006
 Alpha virt. eigenvalues --    2.83408   2.88550   2.93254   3.28951   3.49131
 Alpha virt. eigenvalues --    3.56655   3.64504   3.74934   3.82475   3.82569
 Alpha virt. eigenvalues --    3.96567   3.98069   4.27436   4.35833   4.39625
 Alpha virt. eigenvalues --    4.39898   4.40480   4.44913   4.50932   4.57858
 Alpha virt. eigenvalues --    4.66083   4.92559   4.95293   5.52888   5.80678
 Alpha virt. eigenvalues --    5.85460   5.86329   5.92290   6.02055   6.09135
 Alpha virt. eigenvalues --    6.14486   6.33194   6.34863   6.47814   6.82294
 Alpha virt. eigenvalues --    7.16958   7.51755   7.52644   7.71992   7.77081
 Alpha virt. eigenvalues --    8.44923  13.31531
  Beta  occ. eigenvalues --  -24.69164 -19.38430 -19.30592  -1.35937  -1.15944
  Beta  occ. eigenvalues --   -0.82987  -0.61173  -0.58706  -0.55121  -0.41010
  Beta  occ. eigenvalues --   -0.40629  -0.38756
  Beta virt. eigenvalues --   -0.17564  -0.15652   0.14203   0.25037   0.28144
  Beta virt. eigenvalues --    0.29665   0.32712   0.34195   0.36825   0.39214
  Beta virt. eigenvalues --    0.48688   0.48787   0.53796   0.71731   0.81603
  Beta virt. eigenvalues --    1.17625   1.22457   1.26795   1.34573   1.52798
  Beta virt. eigenvalues --    1.64681   1.67997   1.80729   1.84365   1.86723
  Beta virt. eigenvalues --    1.88805   1.94719   2.01573   2.05565   2.11653
  Beta virt. eigenvalues --    2.15185   2.36476   2.51529   2.53100   2.56947
  Beta virt. eigenvalues --    2.60811   2.83500   2.89063   2.94227   3.29483
  Beta virt. eigenvalues --    3.50849   3.58746   3.67069   3.75953   3.83862
  Beta virt. eigenvalues --    3.84921   3.99811   4.01062   4.28149   4.35891
  Beta virt. eigenvalues --    4.39680   4.39974   4.40647   4.44475   4.53158
  Beta virt. eigenvalues --    4.59678   4.67512   4.93716   4.95922   5.53995
  Beta virt. eigenvalues --    5.87291   5.89909   5.92821   5.94092   6.07720
  Beta virt. eigenvalues --    6.12753   6.19381   6.36887   6.37840   6.49845
  Beta virt. eigenvalues --    6.83061   7.18150   7.51677   7.52577   7.70357
  Beta virt. eigenvalues --    7.75230   8.42658  13.32959
          Condensed to atoms (all electrons):
               1          2          3
     1  O    7.851546   0.153258  -0.050880
     2  O    0.153258   7.648180  -0.005787
     3  F   -0.050880  -0.005787   9.307092
          Atomic-Atomic Spin Densities.
               1          2          3
     1  O    0.921999  -0.237521   0.008452
     2  O   -0.237521   0.690290   0.025003
     3  F    0.008452   0.025003  -0.204157
 Mulliken charges and spin densities:
               1          2
     1  O    0.046076   0.692930
     2  O    0.204349   0.477772
     3  F   -0.250425  -0.170702
 Sum of Mulliken charges =  -0.00000   1.00000
 Mulliken charges and spin densities with hydrogens summed into heavy atoms:
               1          2
     1  O    0.046076   0.692930
     2  O    0.204349   0.477772
     3  F   -0.250425  -0.170702
 APT charges:
               1
     1  O   -0.169753
     2  O    0.610235
     3  F   -0.440481
 Sum of APT charges =  -0.00000
 APT charges with hydrogens summed into heavy atoms:
               1
     1  O   -0.169753
     2  O    0.610235
     3  F   -0.440481
 Electronic spatial extent (au):  <R**2>=            130.0942
 Charge=             -0.0000 electrons
 Dipole moment (field-independent basis, Debye):
    X=              1.3078    Y=              1.2785    Z=             -0.0000  Tot=              1.8289
 Quadrupole moment (field-independent basis, Debye-Ang):
   XX=            -16.2573   YY=            -15.2161   ZZ=            -14.8665
   XY=             -0.5346   XZ=              0.0000   YZ=              0.0000
 Traceless Quadrupole moment (field-independent basis, Debye-Ang):
   XX=             -0.8107   YY=              0.2306   ZZ=              0.5801
   XY=             -0.5346   XZ=              0.0000   YZ=              0.0000
 Octapole moment (field-independent basis, Debye-Ang**2):
  XXX=             -0.3209  YYY=             -0.1556  ZZZ=             -0.0000  XYY=             -0.1993
  XXY=              0.2786  XXZ=             -0.0000  XZZ=             -0.1929  YZZ=             -0.0492
  YYZ=             -0.0000  XYZ=             -0.0000
 Hexadecapole moment (field-independent basis, Debye-Ang**3):
 XXXX=            -81.4620 YYYY=            -35.8939 ZZZZ=            -10.4482 XXXY=            -14.9133
 XXXZ=              0.0000 YYYX=            -14.0132 YYYZ=              0.0000 ZZZX=              0.0000
 ZZZY=              0.0000 XXYY=            -19.3532 XXZZ=            -15.4288 YYZZ=             -7.9233
 XXYZ=              0.0000 YYXZ=              0.0000 ZZXY=             -4.9035
 N-N= 6.840534511591D+01 E-N=-7.308575014734D+02  KE= 2.495596642043D+02
 Symmetry A'   KE= 2.351604162438D+02
 Symmetry A"   KE= 1.439924796042D+01
 Symmetry A'   SP=-6.834403919534D-16
 Symmetry A"   SP= 1.000000000000D+00
  Exact polarizability:  24.867   6.534  14.379  -0.000  -0.000   7.315
 Approx polarizability:  55.660  17.212  25.467  -0.000  -0.000   9.087
                          Isotropic Fermi Contact Couplings
        Atom                 a.u.       MegaHertz       Gauss      10(-4) cm-1
     1  O(17)              0.17295    -104.83863     -37.40903     -34.97040
     2  O(17)              0.03764     -22.81821      -8.14210      -7.61133
     3  F(19)             -0.05438    -228.78460     -81.63603     -76.31433
 --------------------------------------------------------
       Center         ----  Spin Dipole Couplings  ----
                      3XX-RR        3YY-RR        3ZZ-RR
 --------------------------------------------------------
     1   Atom       -1.661759     -0.894278      2.556036
     2   Atom       -1.404472     -0.805669      2.210141
     3   Atom       -0.203745     -0.686431      0.890176
 --------------------------------------------------------
                        XY            XZ            YZ
 --------------------------------------------------------
     1   Atom        0.284403     -0.000000      0.000000
     2   Atom        0.126518     -0.000000      0.000000
     3   Atom       -0.981421     -0.000000     -0.000000
 --------------------------------------------------------


 ---------------------------------------------------------------------------------
              Anisotropic Spin Dipole Couplings in Principal Axis System
 ---------------------------------------------------------------------------------

       Atom             a.u.   MegaHertz   Gauss  10(-4) cm-1        Axes

              Baa    -1.7557   127.038    45.330    42.375  0.9496 -0.3135  0.0000
     1 O(17)  Bbb    -0.8004    57.915    20.665    19.318  0.3135  0.9496 -0.0000
              Bcc     2.5560  -184.953   -65.996   -61.694  0.0000  0.0000  1.0000
 
              Baa    -1.4301   103.481    36.925    34.518  0.9801 -0.1986  0.0000
     2 O(17)  Bbb    -0.7800    56.443    20.140    18.827  0.1986  0.9801 -0.0000
              Bcc     2.2101  -159.924   -57.065   -53.345  0.0000  0.0000  1.0000
 
              Baa    -1.4557  -731.114  -260.880  -243.873  0.6169  0.7870 -0.0000
     3 F(19)  Bbb     0.5656   284.045   101.354    94.747  0.7870 -0.6169 -0.0000
              Bcc     0.8902   447.069   159.525   149.126  0.0000  0.0000  1.0000
 

 ---------------------------------------------------------------------------------

 Calling FoFJK, ICntrl=    100127 FMM=F ISym2X=1 I1Cent= 0 IOpClX= 1 NMat=1 NMatS=1 NMatT=0.
 Full mass-weighted force constant matrix:
 Low frequencies ---   -5.2703   -2.8162   -0.0021   -0.0016   -0.0008    3.0323
 Low frequencies ---  357.8577  592.6212 1543.1849
 Diagonal vibrational polarizability:
       15.3567710       4.0134925       0.0000000
 Harmonic frequencies (cm**-1), IR intensities (KM/Mole), Raman scattering
 activities (A**4/AMU), depolarization ratios for plane and unpolarized
 incident light, reduced masses (AMU), force constants (mDyne/A),
 and normal coordinates:
                      1                      2                      3
                     A'                     A'                     A'
 Frequencies --    357.8576               592.6212              1543.1849
 Red. masses --     17.7005                16.3638                16.0050
 Frc consts  --      1.3355                 3.3860                22.4564
 IR Inten    --     65.0079                53.1249               145.0030
  Atom  AN      X      Y      Z        X      Y      Z        X      Y      Z
     1   8    -0.38  -0.35   0.00    -0.29  -0.38   0.00     0.68  -0.22  -0.00
     2   8    -0.39  -0.10   0.00     0.19   0.78  -0.00    -0.64   0.28   0.00
     3   9     0.65   0.38  -0.00     0.08  -0.34  -0.00    -0.03  -0.05   0.00

 -------------------
 - Thermochemistry -
 -------------------
 Temperature   298.150 Kelvin.  Pressure   1.00000 Atm.
 Atom     1 has atomic number  8 and mass  15.99491
 Atom     2 has atomic number  8 and mass  15.99491
 Atom     3 has atomic number  9 and mass  18.99840
 Molecular mass:    50.98823 amu.
 Principal axes and moments of inertia in atomic units:
                           1         2         3
     Eigenvalues --    22.43793 174.06825 196.50618
           X            0.88936  -0.45721   0.00000
           Y            0.45721   0.88936   0.00000
           Z           -0.00000   0.00000   1.00000
 This molecule is an asymmetric top.
 Rotational symmetry number  1.
 Rotational temperatures (Kelvin)      3.86016     0.49759     0.44077
 Rotational constants (GHZ):          80.43259    10.36801     9.18414
 Zero-point vibrational energy      14915.4 (Joules/Mol)
                                    3.56487 (Kcal/Mol)
 Warning -- explicit consideration of   2 degrees of freedom as
           vibrations may cause significant error
 Vibrational temperatures:    514.88   852.65  2220.30
          (Kelvin)
 
 Zero-point correction=                           0.005681 (Hartree/Particle)
 Thermal correction to Energy=                    0.009034
 Thermal correction to Enthalpy=                  0.009979
 Thermal correction to Gibbs Free Energy=        -0.019460
 Sum of electronic and zero-point Energies=           -250.170067
 Sum of electronic and thermal Energies=              -250.166713
 Sum of electronic and thermal Enthalpies=            -250.165769
 Sum of electronic and thermal Free Energies=         -250.195208
 
                     E (Thermal)             CV                S
                      KCal/Mol        Cal/Mol-Kelvin    Cal/Mol-Kelvin
 Total                    5.669              8.633             61.958
 Electronic               0.000              0.000              1.377
 Translational            0.889              2.981             37.710
 Rotational               0.889              2.981             21.267
 Vibrational              3.892              2.671              1.604
 Vibration     1          0.733              1.559              1.131
 Vibration     2          0.950              1.047              0.463
                       Q            Log10(Q)             Ln(Q)
 Total Bot       0.893132D+09          8.950916         20.610245
 Total V=0       0.366425D+12         11.563985         26.627059
 Vib (Bot)       0.314660D-02         -2.502158         -5.761432
 Vib (Bot)    1  0.512917D+00         -0.289953         -0.667641
 Vib (Bot)    2  0.253875D+00         -0.595381         -1.370914
 Vib (V=0)       0.129095D+01          0.110911          0.255382
 Vib (V=0)    1  0.121630D+01          0.085040          0.195812
 Vib (V=0)    2  0.106076D+01          0.025617          0.058986
 Electronic      0.200000D+01          0.301030          0.693147
 Translational   0.143106D+08          7.155659         16.476513
 Rotational      0.991711D+04          3.996385          9.202016
 ***** Axes restored to original set *****
 -------------------------------------------------------------------
 Center     Atomic                   Forces (Hartrees/Bohr)
 Number     Number              X              Y              Z
 -------------------------------------------------------------------
      1        8          -0.000013171   -0.000007231   -0.000000000
      2        8           0.000022135    0.000031124    0.000000000
      3        9          -0.000008964   -0.000023893   -0.000000000
 -------------------------------------------------------------------
 Cartesian Forces:  Max     0.000031124 RMS     0.000016110
 FormGI is forming the generalized inverse of G from B-inverse, IUseBI=4.

 GradGradGradGradGradGradGradGradGradGradGradGradGradGradGradGradGradGrad
 Berny optimization.
 Internal  Forces:  Max     0.000024290 RMS     0.000020696
 Search for a local minimum.
 Step number   1 out of a maximum of    2
 All quantities printed in internal units (Hartrees-Bohrs-Radians)
 Second derivative matrix not updated -- analytic derivatives used.
 The second derivative matrix:
                          R1        R2        A1
           R1           0.74058
           R2           0.07621   0.06893
           A1           0.02554   0.00244   0.28068
 ITU=  0
     Eigenvalues ---    0.06039   0.27928   0.75052
 Angle between quadratic step and forces=  33.94 degrees.
 Linear search not attempted -- first point.
 Iteration  1 RMS(Cart)=  0.00016968 RMS(Int)=  0.00000000
 Iteration  2 RMS(Cart)=  0.00000000 RMS(Int)=  0.00000000
 ClnCor:  largest displacement from symmetrization is 9.86D-32 for atom     1.
 Variable       Old X    -DE/DX   Delta X   Delta X   Delta X     New X
                                 (Linear)    (Quad)   (Total)
    R1        2.24479  -0.00001   0.00000  -0.00005  -0.00005   2.24473
    R2        3.05914   0.00002   0.00000   0.00041   0.00041   3.05956
    A1        1.94138  -0.00002   0.00000  -0.00008  -0.00008   1.94129
         Item               Value     Threshold  Converged?
 Maximum Force            0.000024     0.000450     YES
 RMS     Force            0.000021     0.000300     YES
 Maximum Displacement     0.000164     0.001800     YES
 RMS     Displacement     0.000170     0.001200     YES
 Predicted change in Energy=-6.348866D-09
 Optimization completed.
    -- Stationary point found.
                           ----------------------------
                           !   Optimized Parameters   !
                           ! (Angstroms and Degrees)  !
 --------------------------                            --------------------------
 ! Name  Definition              Value          Derivative Info.                !
 --------------------------------------------------------------------------------
 ! R1    R(1,2)                  1.1879         -DE/DX =    0.0                 !
 ! R2    R(2,3)                  1.6188         -DE/DX =    0.0                 !
 ! A1    A(1,2,3)              111.2326         -DE/DX =    0.0                 !
 --------------------------------------------------------------------------------
 GradGradGradGradGradGradGradGradGradGradGradGradGradGradGradGradGradGrad


 ----------------------------------------------------------------------

 Electric dipole moment (input orientation):
 (Debye = 10**-18 statcoulomb cm , SI units = C m)
                  (au)            (Debye)         (10**-30 SI)
   Tot        0.719558D+00      0.182893D+01      0.610067D+01
   x          0.514542D+00      0.130783D+01      0.436247D+01
   y          0.503002D+00      0.127850D+01      0.426463D+01
   z          0.000000D+00      0.000000D+00      0.000000D+00

 Dipole polarizability, Alpha (input orientation).
 (esu units = cm**3 , SI units = C**2 m**2 J**-1)
 Alpha(0;0):
               (au)            (10**-24 esu)      (10**-40 SI)
   iso        0.155204D+02      0.229988D+01      0.255896D+01
   aniso      0.190282D+02      0.281969D+01      0.313733D+01
   xx         0.248671D+02      0.368493D+01      0.410004D+01
   yx         0.653418D+01      0.968265D+00      0.107734D+01
   yy         0.143788D+02      0.213072D+01      0.237075D+01
   zx         0.000000D+00      0.000000D+00      0.000000D+00
   zy         0.000000D+00      0.000000D+00      0.000000D+00
   zz         0.731511D+01      0.108399D+01      0.120610D+01

 ----------------------------------------------------------------------

 Dipole orientation:
     8          0.84343077         -0.86278066          1.81789990
     8         -0.53741324          0.54974251          0.75154283
     9         -0.27201538          0.27825592         -2.28394938

 Electric dipole moment (dipole orientation):
 (Debye = 10**-18 statcoulomb cm , SI units = C m)
                  (au)            (Debye)         (10**-30 SI)
   Tot        0.719558D+00      0.182893D+01      0.610067D+01
   x          0.000000D+00      0.000000D+00      0.000000D+00
   y          0.000000D+00      0.000000D+00      0.000000D+00
   z          0.719558D+00      0.182893D+01      0.610067D+01

 Dipole polarizability, Alpha (dipole orientation).
 (esu units = cm**3 , SI units = C**2 m**2 J**-1)
 Alpha(0;0):
               (au)            (10**-24 esu)      (10**-40 SI)
   iso        0.155204D+02      0.229988D+01      0.255896D+01
   aniso      0.190282D+02      0.281969D+01      0.313733D+01
   xx         0.100792D+02      0.149358D+01      0.166183D+01
   yx        -0.282749D+01     -0.418992D+00     -0.466191D+00
   yy         0.102075D+02      0.151259D+01      0.168298D+01
   zx         0.356136D+01      0.527738D+00      0.587188D+00
   zy        -0.364306D+01     -0.539846D+00     -0.600659D+00
   zz         0.262744D+02      0.389347D+01      0.433206D+01

 ----------------------------------------------------------------------
 1\1\GINC-GAMBA\Freq\UB3LYP\Gen\F1O2(2)\IRIKURA\30-Sep-2023\0\\#N Geom=
 AllCheck Guess=TCheck SCRF=Check GenChk UB3LYP/ChkBas Freq\\fluoropero
 xyl, B3LYP/pcseg-2\\0,2\O,1.134225,0.215909,0.\O,0.,0.56892,0.\F,-1.00
 82,-0.697626,0.\\Version=ES64L-G16RevB.01\State=2-A"\HF=-250.1757477\S
 2=0.804136\S2-1=0.\S2A=0.750429\RMSD=7.027e-10\RMSF=1.611e-05\ZeroPoin
 t=0.005681\Thermal=0.0090344\Dipole=0.5145418,0.503002,0.\DipoleDeriv=
 -0.7314112,-0.5956204,0.,0.2516486,0.1794724,0.,0.,0.,0.0426786,1.3835
 359,0.7313761,0.,0.2765756,0.2677867,0.,0.,0.,0.1793812,-0.6521247,-0.
 1357557,0.,-0.5282242,-0.4472591,0.,0.,0.,-0.2220598\Polar=24.8671338,
 6.5341783,14.3788262,0.,0.,7.3151066\Quadrupole=-0.6027343,0.1714154,0
 .4313189,-0.3974952,0.,0.\PG=CS [SG(F1O2)]\NImag=0\\0.68654735,-0.1849
 6515,0.10971961,0.,0.,0.00000246,-0.62528922,0.20009453,0.,0.60991363,
 0.22962212,-0.14939902,0.,-0.22560043,0.24211505,0.,0.,0.00000275,0.,0
 .,-0.00001108,-0.06125813,-0.01512938,0.,0.01537559,-0.00402169,0.,0.0
 4588254,-0.04465697,0.03967941,0.,0.02550590,-0.09271603,0.,0.01915107
 ,0.05303662,0.,0.,-0.00000521,0.,0.,0.00000834,0.,0.,-0.00000312\\0.00
 001317,0.00000723,0.,-0.00002214,-0.00003112,0.,0.00000896,0.00002389,
 0.\\\@


 EVERYBODY NEEDS BEAUTY AS WELL AS BREAD, PLACES TO PLAY IN AND PRAY IN,
 WHERE NATURE MAY HEAL AND CHEER AND GIVE STRENGTH TO BODY AND SOUL ALIKE.

                                    -- JOHN MUIR
 Job cpu time:       0 days  0 hours  1 minutes 45.0 seconds.
 Elapsed time:       0 days  0 hours  0 minutes 26.3 seconds.
 File lengths (MBytes):  RWF=     10 Int=      0 D2E=      0 Chk=      2 Scr=      1
 Normal termination of Gaussian 16 at Sat Sep 30 01:32:26 2023.
 AtFile(1): ccpvtz-f12.gbs
            -H     0
            S    3   1.00
                 82.6400000              0.0020060
                 12.4100000              0.0153430
                  2.8240000              0.0755790
            S    1   1.00
                  0.7977000              1.0000000
            S    1   1.00
                  0.2581000              1.0000000
            S    1   1.00
                  0.0898900              1.0000000
            P    1   1.00
                  1.5513000              1.0000000
            P    1   1.00
                  0.5580000              1.0000000
            P    1   1.00
                  0.2007000              1.0000000
            D    1   1.00
                  0.4648000              1.0000000
            ****
            -He     0
            S    4   1.00
                528.5000000              0.0009400
                 79.3100000              0.0072140
                 18.0500000              0.0359750
                  5.0850000              0.1277820
            S    1   1.00
                  1.6090000              1.0000000
            S    1   1.00
                  0.5363000              1.0000000
            S    1   1.00
                  0.1833000              1.0000000
            S    1   1.00
                  0.0481900              1.0000000
            P    1   1.00
                  3.7026000              1.0000000
            P    1   1.00
                  1.2284000              1.0000000
            P    1   1.00
                  0.4075000              1.0000000
            D    1   1.00
                  0.6525000              1.0000000
            ****
            -Li     0
            S    9   1.00
               6601.0000000              0.0001170
                989.7000000              0.0009110
                225.7000000              0.0047280
                 64.2900000              0.0191970
                 21.1800000              0.0630470
                  7.7240000              0.1632080
                  3.0030000              0.3148270
                  1.2120000              0.3939360
                  0.4930000              0.1969180
            S    9   1.00
               6601.0000000             -0.0000180
                989.7000000             -0.0001420
                225.7000000             -0.0007410
                 64.2900000             -0.0030200
                 21.1800000             -0.0101230
                  7.7240000             -0.0270940
                  3.0030000             -0.0573590
                  1.2120000             -0.0938950
                  0.4930000             -0.1210910
            S    1   1.00
                  0.0951500              1.0000000
            S    1   1.00
                  0.0479100              1.0000000
            S    1   1.00
                  0.0222000              1.0000000
            S    1   1.00
                  0.0064000              1.0000000
            P    2   1.00
                  6.2500000              0.0033880
                  1.3700000              0.0193160
            P    1   1.00
                  0.3672000              1.0000000
            P    1   1.00
                  0.1192000              1.0000000
            P    1   1.00
                  0.0447400              1.0000000
            P    1   1.00
                  0.0179500              1.0000000
            P    1   1.00
                  0.0075000              1.0000000
            D    1   1.00
                  0.2351180              1.0000000
            D    1   1.00
                  0.1194040              1.0000000
            D    1   1.00
                  0.0606390              1.0000000
            F    1   1.00
                  0.1637750              1.0000000
            F    1   1.00
                  0.0759100              1.0000000
            ****
            -Be     0
            S    9   1.00
              14630.0000000              0.0000920
               2191.0000000              0.0007130
                498.2000000              0.0037350
                140.9000000              0.0154680
                 45.8600000              0.0528740
                 16.4700000              0.1456940
                  6.3190000              0.3026810
                  2.5350000              0.4049360
                  1.0350000              0.2223870
            S    9   1.00
              14630.0000000             -0.0000170
               2191.0000000             -0.0001300
                498.2000000             -0.0006790
                140.9000000             -0.0028570
                 45.8600000             -0.0098130
                 16.4700000             -0.0286090
                  6.3190000             -0.0637600
                  2.5350000             -0.1172310
                  1.0350000             -0.1212020
            S    1   1.00
                  0.2528000              1.0000000
            S    1   1.00
                  0.1052000              1.0000000
            S    1   1.00
                  0.0426100              1.0000000
            S    1   1.00
                  0.0141000              1.0000000
            P    2   1.00
                 14.0300000              0.0040990
                  3.1680000              0.0256260
            P    1   1.00
                  0.9024000              1.0000000
            P    1   1.00
                  0.3036000              1.0000000
            P    1   1.00
                  0.1130000              1.0000000
            P    1   1.00
                  0.0428600              1.0000000
            P    1   1.00
                  0.0084000              1.0000000
            D    1   1.00
                  0.4670460              1.0000000
            D    1   1.00
                  0.2205970              1.0000000
            D    1   1.00
                  0.1041940              1.0000000
            F    1   1.00
                  0.3166400              1.0000000
            F    1   1.00
                  0.1457880              1.0000000
            ****
            -B     0
            S    9   1.00
[...]
 K. Raghavachari, A. P. Rendell, J. C. Burant, S. S. Iyengar, 
 J. Tomasi, M. Cossi, J. M. Millam, M. Klene, C. Adamo, R. Cammi, 
 J. W. Ochterski, R. L. Martin, K. Morokuma, O. Farkas, 
 J. B. Foresman, and D. J. Fox, Gaussian, Inc., Wallingford CT, 2016.
 
 ******************************************
 Gaussian 16:  ES64L-G16RevB.01 20-Dec-2017
                30-Sep-2023 
 ******************************************
 %chk=foo.chk
 %mem=500mw
 %nprocs=4
 Will use up to    4 processors via shared memory.
 ---------------------------------
 # rohf/gen geom=check guess=check
 ---------------------------------
 1/29=2,38=1,172=1/1;
 2/12=2,40=1/2;
 3/5=7,11=2,14=-4,25=1,30=1,116=101/1,2,3;
 4/5=1/1;
 5/5=2,38=6/2;
 6/7=2,8=2,9=2,10=2,28=1/1;
 99/5=1,9=1/99;
 -------------------------------
 fluoroperoxyl, ROHF/cc-pVTZ-F12
 -------------------------------
 Structure from the checkpoint file:  "foo.chk"
 Charge =  0 Multiplicity = 2
 Redundant internal coordinates found in file.  (old form).
 O,0,1.134225,0.215909,0.
 O,0,0.,0.56892,0.
 F,0,-1.0082,-0.697626,0.
 Recover connectivity data from disk.
                           ----------------------------
                           !    Current Parameters    !
                           ! (Angstroms and Degrees)  !
 --------------------------                            --------------------------
 ! Name  Definition              Value                                          !
 --------------------------------------------------------------------------------
 ! R1    R(1,2)                  1.1879                                         !
 ! R2    R(2,3)                  1.6188                                         !
 ! A1    A(1,2,3)              111.2326                                         !
 --------------------------------------------------------------------------------
                          Input orientation:                          
 ---------------------------------------------------------------------
 Center     Atomic      Atomic             Coordinates (Angstroms)
 Number     Number       Type             X           Y           Z
 ---------------------------------------------------------------------
      1          8           0        1.134225    0.215909    0.000000
      2          8           0        0.000000    0.568920    0.000000
      3          9           0       -1.008200   -0.697626   -0.000000
 ---------------------------------------------------------------------
                    Distance matrix (angstroms):
                    1          2          3
     1  O    0.000000
     2  O    1.187890   0.000000
     3  F    2.329062   1.618829   0.000000
 Stoichiometry    FO2(2)
 Framework group  CS[SG(FO2)]
 Deg. of freedom     3
 Full point group                 CS      NOp   2
 Largest Abelian subgroup         CS      NOp   2
 Largest concise Abelian subgroup C1      NOp   1
                         Standard orientation:                         
 ---------------------------------------------------------------------
 Center     Atomic      Atomic             Coordinates (Angstroms)
 Number     Number       Type             X           Y           Z
 ---------------------------------------------------------------------
      1          8           0        1.134225    0.215909    0.000000
      2          8           0        0.000000    0.568920    0.000000
      3          9           0       -1.008200   -0.697626    0.000000
 ---------------------------------------------------------------------
 Rotational constants (GHZ):          80.4325928          10.3680093           9.1841447
 General basis read from cards:  (5D, 7F)
 There are   126 symmetry adapted cartesian basis functions of A'  symmetry.
 There are    60 symmetry adapted cartesian basis functions of A"  symmetry.
 There are   105 symmetry adapted basis functions of A'  symmetry.
 There are    54 symmetry adapted basis functions of A"  symmetry.
   159 basis functions,   234 primitive gaussians,   186 cartesian basis functions
    13 alpha electrons       12 beta electrons
       nuclear repulsion energy        68.4053451159 Hartrees.
 NAtoms=    3 NActive=    3 NUniq=    3 SFac= 1.00D+00 NAtFMM=   60 NAOKFM=F Big=F
 Integral buffers will be    131072 words long.
 Raffenetti 2 integral format.
 Two-electron integral symmetry is turned on.
 One-electron integrals computed using PRISM.
 NBasis=   159 RedAO= T EigKep=  5.34D-04  NBF=   105    54
 NBsUse=   159 1.00D-06 EigRej= -1.00D+00 NBFU=   105    54
 Initial guess from the checkpoint file:  "foo.chk"
 B after Tr=     0.000000    0.000000    0.000000
         Rot=    1.000000   -0.000000    0.000000   -0.000000 Ang=   0.00 deg.
 BiOrM2:  NumA=      13 NumB=      12.
 Eigenvalues of SAB:
  0.99999999  0.99999993  0.99999986  0.99999260  0.99998207
  0.99998056  0.99997506  0.99989172  0.99983342  0.99964458
  0.99886939  0.97444013 -1.08154611
 BiOrM2:  NumA=       1 NumB=     147.
 Eigenvalues of SAB:
  1.00000000 -1.17483981 -0.05224986 -0.10293791 -0.24630222
  1.62785121 -1.32788886 -2.19547937  0.00513779 -0.10372139
  0.00000000 -0.01887465  0.37886500  0.00000000  0.05727608
 -1.04444369  0.00000000  0.82173439  3.15460946  0.00000000
  1.39157095  3.84387375  0.00000000  2.64145634  1.09068925
  0.00000000  0.04228203  0.00000000  0.00000000  0.02095784
  0.01885285 -0.13495306  0.00000000  0.00000000 -0.03347209
 -0.10156406  0.65326419  0.00000000  0.00000000  1.83721157
  3.40119565  0.00000000 -0.00755782  0.01329333  0.00000000
  0.00000000 -0.20553230 -0.08065105  0.00000000  0.09899208
 -0.43985680  0.00000000  0.00000000  1.31272390  1.22973461
 -0.05118120 -0.12578513 -0.43103800  0.68228109 -1.11438467
  6.98815620  0.01556579  0.00867674  0.00000000 -0.05588254
 -0.03183054  0.00000000  0.14865000  0.09506228  0.00000000
 -0.48584112 -0.43585633  0.00000000  1.53783867  1.25374050
  0.00000000  0.53687963  1.65927823  0.00000000 -0.05075415
  0.00000000  0.00000000 -0.00320232  0.09846234  0.17106606
  0.00000000  0.00000000  0.01587439 -0.30517509 -0.36056883
  0.00000000  0.00000000 -0.01355636  0.49989510  0.00000000
  0.02585867  0.05067686  0.00000000  0.00000000 -0.00173283
 -0.00331137  0.00000000 -0.06898064 -0.14045365  0.00000000
  0.00000000  0.00822020 -0.02848242 -0.01011686 -0.02139227
 -0.13350630  0.96355308 -0.42993043 -2.53239170 -0.05197578
 -0.12272765  0.00000000  0.18927504  0.44386174  0.00000000
 -0.49087526 -1.17105503  0.00000000  0.84175521  3.98292562
  0.00000000  1.91646594  2.57193538  0.00000000 -0.52673370
 -2.01511660  0.00000000  0.04456573  0.00000000  0.00000000
 -0.02636472  0.03314127 -0.15608015  0.00000000  0.00000000
  0.11829165 -0.12729416  0.33033891  0.00000000  0.00000000
 -2.77841182 -3.63677262
 BiOrM2:  NumA=     146 NumB=     146.
 Eigenvalues of SAB:
  1.00000000  1.00000000  1.00000000  1.00000000  1.00000000
  1.00000000  1.00000000  1.00000000  1.00000000  1.00000000
  1.00000000  1.00000000  1.00000000  1.00000000  1.00000000
  1.00000000  1.00000000  1.00000000  1.00000000  1.00000000
  1.00000000  1.00000000  1.00000000  1.00000000  1.00000000
  1.00000000  1.00000000  1.00000000  1.00000000  1.00000000
  1.00000000  1.00000000  1.00000000  1.00000000  1.00000000
  1.00000000  1.00000000  1.00000000  1.00000000  1.00000000
  1.00000000  1.00000000  1.00000000  1.00000000  1.00000000
  1.00000000  1.00000000  1.00000000  1.00000000  1.00000000
  1.00000000  1.00000000  1.00000000  1.00000000  1.00000000
  1.00000000  1.00000000  1.00000000  1.00000000  1.00000000
  1.00000000  1.00000000  1.00000000  1.00000000  1.00000000
  1.00000000  1.00000000  1.00000000  1.00000000  1.00000000
  1.00000000  1.00000000  1.00000000  1.00000000  1.00000000
  1.00000000  1.00000000  1.00000000  1.00000000  1.00000000
  1.00000000  1.00000000  1.00000000  1.00000000  1.00000000
  1.00000000  1.00000000  1.00000000  1.00000000  1.00000000
  1.00000000  1.00000000  1.00000000  1.00000000  1.00000000
  1.00000000  1.00000000  1.00000000  1.00000000  1.00000000
  1.00000000  1.00000000  1.00000000  1.00000000  1.00000000
  1.00000000  1.00000000  1.00000000  1.00000000  1.00000000
  1.00000000  1.00000000  1.00000000  1.00000000  1.00000000
  1.00000000  1.00000000  1.00000000  1.00000000  1.00000000
  1.00000000  1.00000000  1.00000000  1.00000000  1.00000000
  1.00000000  1.00000000  1.00000000  1.00000000  1.00000000
  1.00000000  1.00000000  1.00000000  1.00000000  0.99999999
  0.99999993  0.99999986  0.99999260  0.99998207  0.99998056
  0.99997506  0.99989172  0.99983342  0.99964458  0.99886939
  0.97444013
 Initial guess orbital symmetries:
       Occupied  (A') (A') (A') (A') (A') (A') (A") (A') (A') (A')
                 (A") (A') (A")
       Virtual   (A') (A') (A') (A') (A') (A') (A") (A") (A") (A")
                 (A") (A") (A") (A") (A") (A") (A") (A") (A") (A")
                 (A") (A") (A") (A") (A") (A") (A") (A") (A") (A")
                 (A") (A") (A") (A") (A") (A") (A") (A") (A") (A")
                 (A") (A") (A") (A") (A") (A") (A") (A") (A") (A")
                 (A") (A") (A") (A") (A") (A") (A") (A") (A") (A")
                 (A") (A") (A") (A") (A") (A") (A") (A") (A") (A")
                 (A") (A") (A") (A") (A") (A") (A") (A") (A") (A")
                 (A") (A") (A") (A") (A") (A") (A") (A") (A") (A")
                 (A") (A") (A") (A") (A") (A") (A") (A") (A") (A")
                 (A") (A") (A") (A") (A") (A") (A") (A") (A") (A")
                 (A") (A") (A") (A") (A") (A") (A") (A") (A") (A")
                 (A") (A") (A") (A") (A") (A") (A') (A') (A') (A')
                 (A') (A') (A') (A') (A') (A') (A') (A') (A') (A')
                 (A") (A') (A') (A') (A") (A')
 Keep R1 and R2 ints in memory in symmetry-blocked form, NReq=122824998.
 Requested convergence on RMS density matrix=1.00D-08 within 128 cycles.
 Requested convergence on MAX density matrix=1.00D-06.
 Requested convergence on             energy=1.00D-06.
 No special actions if energy rises.
 An orbital has undefined symmetry, so N**3 symmetry is turned off.
 SCF Done:  E(ROHF) =  -248.996696413     A.U. after   17 cycles
            NFock= 17  Conv=0.68D-08     -V/T= 2.0011
 <Sx>= 0.0000 <Sy>= 0.0000 <Sz>= 0.5000 <S**2>= 0.7500 S= 0.5000
 <L.S>=  0.00000000000    
 Annihilation of the first spin contaminant:
 S**2 before annihilation     0.7500,   after     0.7500

 **********************************************************************

            Population analysis using the SCF Density.

 **********************************************************************

 Orbital symmetries:
       Occupied  (A') (A') (A') (A') (A') (A') (A') (A') (A") (A')
                 (A") (A') (A")
       Virtual   (A') (A') (A') (A') (A") (A") (A') (A') (A") (A')
                 (A') (A') (A') (A') (A') (A") (A') (A') (A") (A')
                 (A') (A") (A') (A') (A") (A') (A") (A') (A') (A")
                 (A') (A") (A') (A') (A') (A") (A') (A") (A') (A')
                 (A') (A') (A') (A") (A") (A") (A') (A') (A") (A')
                 (A") (A") (A') (A') (A') (A") (A') (A') (A") (A')
                 (A') (A") (A') (A") (A') (A') (A') (A") (A") (A')
                 (A") (A') (A") (A') (A') (A') (A") (A') (A") (A")
                 (A') (A') (A') (A") (A') (A') (A') (A') (A") (A')
                 (A') (A") (A') (A") (A') (A') (A") (A') (A") (A')
                 (A") (A') (A') (A") (A') (A') (A") (A') (A') (A")
                 (A') (A") (A') (A") (A') (A") (A') (A") (A') (A")
                 (A') (A") (A') (A') (A") (A') (A') (A') (A") (A')
                 (A') (A") (A') (A') (A") (A') (A') (A") (A') (A')
                 (A') (A') (A") (A') (A') (A')
 The electronic state is 2-A".
 Alpha  occ. eigenvalues --  -26.31539 -20.85055 -20.76871  -1.74349  -1.53845
 Alpha  occ. eigenvalues --   -1.14076  -0.80907  -0.79263  -0.77415  -0.63741
 Alpha  occ. eigenvalues --   -0.63218  -0.52621  -0.17744
 Alpha virt. eigenvalues --    0.02952   0.09086   0.10821   0.12231   0.12522
 Alpha virt. eigenvalues --    0.17191   0.17272   0.18462   0.21695   0.23077
 Alpha virt. eigenvalues --    0.25829   0.31831   0.39690   0.45449   0.63268
 Alpha virt. eigenvalues --    0.65189   0.65849   0.67871   0.69300   0.72767
 Alpha virt. eigenvalues --    0.86678   0.87245   0.91640   0.94985   0.98019
 Alpha virt. eigenvalues --    1.06261   1.08286   1.14094   1.16859   1.24731
 Alpha virt. eigenvalues --    1.35441   1.36828   1.39268   1.54625   1.63162
 Alpha virt. eigenvalues --    1.64328   1.69914   1.72155   1.72479   1.81221
 Alpha virt. eigenvalues --    1.92749   2.04311   2.07327   2.07682   2.24129
 Alpha virt. eigenvalues --    2.24912   2.28385   2.36472   2.51150   2.53298
 Alpha virt. eigenvalues --    2.56262   2.58900   2.71643   2.77185   2.82080
 Alpha virt. eigenvalues --    2.89802   2.95914   3.33457   3.42337   3.44543
 Alpha virt. eigenvalues --    3.45885   3.46542   3.49242   3.51443   3.52369
 Alpha virt. eigenvalues --    3.54486   3.63030   3.64846   3.69560   3.76253
 Alpha virt. eigenvalues --    3.80616   3.82099   3.84969   3.99680   4.08742
 Alpha virt. eigenvalues --    4.10152   4.13585   4.28160   4.41198   4.44123
 Alpha virt. eigenvalues --    4.45959   4.48063   4.67195   4.74692   4.79571
 Alpha virt. eigenvalues --    4.91080   5.25416   5.67951   6.25995   6.29888
 Alpha virt. eigenvalues --    6.39047   6.44450   6.54144   6.64897   6.67933
 Alpha virt. eigenvalues --    6.72386   6.88553   6.99343   7.26157   7.32900
 Alpha virt. eigenvalues --    7.79409   7.90833   8.27035   9.23929   9.55785
 Alpha virt. eigenvalues --   10.05788  10.08794  10.16308  10.64123  10.83740
 Alpha virt. eigenvalues --   10.93766  10.96169  11.05151  11.07482  11.17227
 Alpha virt. eigenvalues --   11.32618  11.32902  11.40015  11.42165  11.58891
 Alpha virt. eigenvalues --   11.60989  11.64009  11.70622  11.78562  11.86118
 Alpha virt. eigenvalues --   11.97605  11.99940  12.92927  13.55296  13.56367
 Alpha virt. eigenvalues --   13.59453  13.66575  13.72343  13.95970  36.92883
 Alpha virt. eigenvalues --   37.18241  37.49335  37.58604  37.68676  38.45727
 Alpha virt. eigenvalues --   41.15690  43.04542  46.80470  46.86379  47.40023
 Alpha virt. eigenvalues --   53.76630
          Condensed to atoms (all electrons):
               1          2          3
     1  O    7.712863   0.243895  -0.036585
     2  O    0.243895   7.508963   0.058596
     3  F   -0.036585   0.058596   9.246361
          Atomic-Atomic Spin Densities.
               1          2          3
     1  O    0.928216  -0.130138   0.002452
     2  O   -0.130138   0.332860  -0.005565
     3  F    0.002452  -0.005565   0.005425
 Mulliken charges and spin densities:
               1          2
     1  O    0.079826   0.800530
     2  O    0.188545   0.197157
     3  F   -0.268372   0.002313
 Sum of Mulliken charges =  -0.00000   1.00000
 Mulliken charges and spin densities with hydrogens summed into heavy atoms:
               1          2
     1  O    0.079826   0.800530
     2  O    0.188545   0.197157
     3  F   -0.268372   0.002313
 Electronic spatial extent (au):  <R**2>=            129.5687
 Charge=             -0.0000 electrons
 Dipole moment (field-independent basis, Debye):
    X=              1.6160    Y=              1.3325    Z=              0.0000  Tot=              2.0945
 Quadrupole moment (field-independent basis, Debye-Ang):
   XX=            -15.8468   YY=            -15.2371   ZZ=            -14.5492
   XY=             -0.6019   XZ=             -0.0000   YZ=              0.0000
 Traceless Quadrupole moment (field-independent basis, Debye-Ang):
   XX=             -0.6358   YY=             -0.0261   ZZ=              0.6618
   XY=             -0.6019   XZ=             -0.0000   YZ=              0.0000
 Octapole moment (field-independent basis, Debye-Ang**2):
  XXX=             -0.0298  YYY=             -0.1315  ZZZ=             -0.0000  XYY=             -0.1650
  XXY=              0.3275  XXZ=             -0.0000  XZZ=              0.1228  YZZ=             -0.1400
  YYZ=             -0.0000  XYZ=             -0.0000
 Hexadecapole moment (field-independent basis, Debye-Ang**3):
 XXXX=            -78.8847 YYYY=            -35.1390 ZZZZ=             -9.4955 XXXY=            -15.0176
 XXXZ=             -0.0000 YYYX=            -14.0007 YYYZ=             -0.0000 ZZZX=             -0.0000
 ZZZY=             -0.0000 XXYY=            -19.2371 XXZZ=            -14.4762 YYZZ=             -7.6871
 XXYZ=             -0.0000 YYXZ=             -0.0000 ZZXY=             -4.7635
 N-N= 6.840534511591D+01 E-N=-7.297149821020D+02  KE= 2.487239448043D+02
 Symmetry A'   KE= 2.343820110764D+02
 Symmetry A"   KE= 1.434193372784D+01
 Symmetry A'   SP= 1.025449246768D-16
 Symmetry A"   SP= 1.000000000000D+00
                          Isotropic Fermi Contact Couplings
        Atom                 a.u.       MegaHertz       Gauss      10(-4) cm-1
     1  O(17)              0.00000      -0.00000      -0.00000      -0.00000
     2  O(17)              0.00000      -0.00000      -0.00000      -0.00000
     3  F(19)             -0.00000      -0.00000      -0.00000      -0.00000
 --------------------------------------------------------
       Center         ----  Spin Dipole Couplings  ----
                      3XX-RR        3YY-RR        3ZZ-RR
 --------------------------------------------------------
     1   Atom       -1.783889     -1.800558      3.584446
     2   Atom       -0.486236     -0.586843      1.073079
     3   Atom        0.000347     -0.010308      0.009961
 --------------------------------------------------------
                        XY            XZ            YZ
 --------------------------------------------------------
     1   Atom       -0.005286      0.000000     -0.000000
     2   Atom       -0.034402      0.000000     -0.000000
     3   Atom        0.017757      0.000000      0.000000
 --------------------------------------------------------


 ---------------------------------------------------------------------------------
              Anisotropic Spin Dipole Couplings in Principal Axis System
 ---------------------------------------------------------------------------------

       Atom             a.u.   MegaHertz   Gauss  10(-4) cm-1        Axes

              Baa    -1.8021   130.398    46.529    43.496  0.2789  0.9603 -0.0000
     1 O(17)  Bbb    -1.7824   128.970    46.020    43.020  0.9603 -0.2789  0.0000
              Bcc     3.5844  -259.368   -92.549   -86.516  0.0000  0.0000  1.0000
 
              Baa    -0.5975    43.233    15.427    14.421  0.2954  0.9554 -0.0000
     2 O(17)  Bbb    -0.4756    34.414    12.280    11.479  0.9554 -0.2954  0.0000
              Bcc     1.0731   -77.647   -27.706   -25.900  0.0000  0.0000  1.0000
 
              Baa    -0.0235   -11.812    -4.215    -3.940 -0.5969  0.8023  0.0000
     3 F(19)  Bbb     0.0100     5.003     1.785     1.669  0.0000  0.0000  1.0000
              Bcc     0.0136     6.809     2.430     2.271  0.8023  0.5969 -0.0000
 

 ---------------------------------------------------------------------------------

 1\1\GINC-GAMBA\SP\ROHF\Gen\F1O2(2)\IRIKURA\30-Sep-2023\0\\# rohf/gen g
 eom=check guess=check\\fluoroperoxyl, ROHF/cc-pVTZ-F12\\0,2\O,0,1.1342
 25,0.215909,0.\O,0,0.,0.56892,0.\F,0,-1.0082,-0.697626,0.\\Version=ES6
 4L-G16RevB.01\State=2-A"\HF=-248.9966964\RMSD=6.781e-09\Dipole=0.63577
 03,0.5242489,0.\Quadrupole=-0.4726864,-0.0193747,0.4920611,-0.4474799,
 0.,0.\PG=CS [SG(F1O2)]\\@


  ON THE CHOICE OF THE CORRECT LANGUAGE -
 I SPEAK SPANISH TO GOD, ITALIAN TO WOMEN,
 FRENCH TO MEN, AND GERMAN TO MY HORSE.
          -- CHARLES V
 Job cpu time:       0 days  0 hours  0 minutes 24.6 seconds.
 Elapsed time:       0 days  0 hours  0 minutes  7.1 seconds.
 File lengths (MBytes):  RWF=     14 Int=      0 D2E=      0 Chk=      3 Scr=      1
 Normal termination of Gaussian 16 at Sat Sep 30 01:32:33 2023.
