 Entering Gaussian System, Link 0=g16
 AtFile(1): pcseg2.gbs
            -H     0
            S   4   1.00
                  0.754732D+02           0.427821D-02
                  0.113575D+02           0.328672D-01
                  0.260081D+01           0.159578D+00
                  0.735503D+00           0.500000D+00
            S   1   1.00
                  0.231761D+00           1.0000000
            S   1   1.00
                  0.741675D-01           1.0000000
            P   1   1.00
                  0.160000D+01           1.0000000
            P   1   1.00
                  0.450000D+00           1.0000000
            D   1   1.00
                  0.125000D+01           1.0000000
            ****
            -C     0
            S   7   1.00
                  0.731999D+04           0.695369D-03
                  0.109818D+04           0.537138D-02
                  0.250014D+03           0.274734D-01
                  0.707586D+02           0.105078D+00
                  0.228595D+02           0.291262D+00
                  0.803936D+01           0.500000D+00
                  0.289309D+01           0.362224D+00
            S   2   1.00
                  0.521640D+01          -0.957844D-01
                  0.556124D+00           0.500000D+00
            S   1   1.00
                  0.228813D+00           1.0000000
            S   1   1.00
                  0.936338D-01           1.0000000
            P   4   1.00
                  0.339855D+02           0.818395D-02
                  0.772957D+01           0.586921D-01
                  0.224954D+01           0.222514D+00
                  0.767681D+00           0.500000D+00
            P   1   1.00
                  0.263283D+00           1.0000000
            P   1   1.00
                  0.848744D-01           1.0000000
            D   1   1.00
                  0.140000D+01           1.0000000
            D   1   1.00
                  0.450000D+00           1.0000000
            F   1   1.00
                  0.950000D+00           1.0000000
            ****
            -O     0
            S   7   1.00
                  0.135887D+05           0.665492D-03
                  0.203847D+04           0.514222D-02
                  0.464041D+03           0.263472D-01
                  0.131339D+03           0.101500D+00
                  0.425340D+02           0.285877D+00
                  0.150429D+02           0.500000D+00
                  0.546616D+01           0.368211D+00
            S   2   1.00
                  0.100915D+02          -0.100084D+00
                  0.110429D+01           0.500000D+00
            S   1   1.00
                  0.448082D+00           1.0000000
            S   1   1.00
                  0.175325D+00           1.0000000
            P   4   1.00
                  0.608220D+02           0.908253D-02
                  0.140332D+02           0.645878D-01
                  0.418244D+01           0.241502D+00
                  0.142490D+01           0.500000D+00
            P   1   1.00
                  0.478741D+00           1.0000000
            P   1   1.00
                  0.146257D+00           1.0000000
            D   1   1.00
                  0.220000D+01           1.0000000
            D   1   1.00
                  0.650000D+00           1.0000000
            F   1   1.00
                  0.110000D+01           1.0000000
            ****
            -N     0
            S   7   1.00
                  0.101643D+05           0.682757D-03
                  0.152481D+04           0.527488D-02
                  0.347119D+03           0.270037D-01
                  0.982389D+02           0.103673D+00
                  0.317799D+02           0.289575D+00
                  0.112240D+02           0.500000D+00
                  0.406611D+01           0.364621D+00
            S   2   1.00
                  0.747898D+01          -0.975681D-01
                  0.805040D+00           0.500000D+00
            S   1   1.00
                  0.324626D+00           1.0000000
            S   1   1.00
                  0.128132D+00           1.0000000
            P   4   1.00
                  0.482704D+02           0.829547D-02
                  0.110815D+02           0.596223D-01
                  0.326643D+01           0.227889D+00
                  0.111680D+01           0.500000D+00
            P   1   1.00
                  0.382049D+00           1.0000000
            P   1   1.00
                  0.121222D+00           1.0000000
            D   1   1.00
                  0.180000D+01           1.0000000
            D   1   1.00
                  0.550000D+00           1.0000000
            F   1   1.00
                  0.102000D+01           1.0000000
            ****
            -F     0
            S   7   1.00
                  0.174507D+05           0.655972D-03
                  0.261768D+04           0.506944D-02
                  0.595857D+03           0.259899D-01
                  0.168651D+03           0.100353D+00
                  0.546654D+02           0.284095D+00
                  0.193717D+02           0.500000D+00
                  0.706202D+01           0.370721D+00
            S   2   1.00
                  0.131197D+02          -0.101997D+00
                  0.145046D+01           0.500000D+00
            S   1   1.00
                  0.588255D+00           1.0000000
            S   1   1.00
                  0.227960D+00           1.0000000
            P   4   1.00
                  0.779407D+02           0.931135D-02
                  0.180425D+02           0.663964D-01
                  0.542342D+01           0.246386D+00
                  0.184876D+01           0.500000D+00
            P   1   1.00
                  0.617455D+00           1.0000000
            P   1   1.00
                  0.185496D+00           1.0000000
            D   1   1.00
                  0.280000D+01           1.0000000
            D   1   1.00
                  0.800000D+00           1.0000000
            F   1   1.00
                  0.120000D+01           1.0000000
            ****
            -Cl     0
            S   8   1.00
                  0.154272D+06           0.222473D-03
                  0.231232D+05           0.172590D-02
                  0.526257D+04           0.899286D-02
                  0.148995D+04           0.367724D-01
                  0.485417D+03           0.121446D+00
                  0.174634D+03           0.304148D+00
                  0.672393D+02           0.500000D+00
                  0.265780D+02           0.360252D+00
            S   3   1.00
                  0.131826D+03          -0.531330D-01
                  0.400703D+02          -0.233346D+00
                  0.789448D+01           0.500000D+00
            S   2   1.00
                  0.427711D+01           0.500000D+00
                  0.196233D+01           0.370517D+00
            S   1   1.00
                  0.520793D+00           1.0000000
            S   1   1.00
                  0.181633D+00           1.0000000
            P   7   1.00
                  0.124440D+04           0.988206D-03
                  0.295109D+03           0.829674D-02
                  0.947224D+02           0.430906D-01
                  0.352588D+02           0.148443D+00
                  0.144211D+02           0.344744D+00
                  0.610371D+01           0.500000D+00
                  0.258886D+01           0.348278D+00
            P   2   1.00
                  0.109447D+02          -0.196768D-01
                  0.104413D+01           0.500000D+00
            P   1   1.00
                  0.376184D+00           1.0000000
            P   1   1.00
                  0.120613D+00           1.0000000
            D   1   1.00
                  0.231000D+01           1.0000000
            D   1   1.00
                  0.520000D+00           1.0000000
            F   1   1.00
                  0.720000D+00           1.0000000
            ****
            -S     0
            S   8   1.00
                  0.134700D+06           0.226231D-03
                  0.201904D+05           0.175488D-02
                  0.459528D+04           0.914190D-02
                  0.130109D+04           0.373551D-01
                  0.423902D+03           0.123121D+00
                  0.152485D+03           0.306801D+00
                  0.586925D+02           0.500000D+00
                  0.231461D+02           0.354358D+00
            S   3   1.00
                  0.116327D+03          -0.491772D-01
                  0.352841D+02          -0.215962D+00
                  0.677831D+01           0.500000D+00
            S   2   1.00
                  0.360404D+01           0.500000D+00
                  0.164871D+01           0.366278D+00
            S   1   1.00
                  0.421821D+00           1.0000000
            S   1   1.00
                  0.147554D+00           1.0000000
            P   7   1.00
                  0.104863D+04           0.105273D-02
                  0.248717D+03           0.879338D-02
                  0.797887D+02           0.453358D-01
                  0.296023D+02           0.154476D+00
                  0.120627D+02           0.352366D+00
                  0.507628D+01           0.500000D+00
                  0.213375D+01           0.346429D+00
            P   2   1.00
                  0.928958D+01          -0.185932D-01
                  0.837819D+00           0.500000D+00
            P   1   1.00
                  0.301495D+00           1.0000000
            P   1   1.00
                  0.974740D-01           1.0000000
            D   1   1.00
                  0.210000D+01           1.0000000
            D   1   1.00
                  0.480000D+00           1.0000000
            F   1   1.00
                  0.660000D+00           1.0000000
            ****
            -Br     0
            S    10   1.00
                  0.233625D+07           0.532336D-04
                  0.349961D+06           0.413715D-03
                  0.796444D+05           0.217123D-02
                  0.225555D+05           0.910109D-02
                  0.735546D+04           0.323789D-01
                  0.265352D+04           0.988755D-01
                  0.103517D+04           0.248138D+00
                  0.422205D+03           0.474328D+00
                  0.180035D+03           0.500000D+00
                  0.793308D+02           0.187769D+00
            S    4   1.00
                  0.620834D+03          -0.226511D-01
                  0.190829D+03          -0.109497D+00
                  0.312505D+02           0.500000D+00
                  0.135270D+02           0.492812D+00
            S    2   1.00
                  0.216097D+02          -0.165418D+00
                  0.372566D+01           0.500000D+00
            S    1   1.00
                  0.169770D+01           1.0000000
            S    1   1.00
                  0.489332D+00           1.0000000
            S    1   1.00
                  0.175712D+00           1.0000000
            P    8   1.00
                  0.960829D+04           0.478974D-03
                  0.227618D+04           0.417853D-02
                  0.736723D+03           0.229315D-01
                  0.281579D+03           0.892653D-01
                  0.118395D+03           0.255288D+00
                  0.527481D+02           0.479074D+00
                  0.245098D+02           0.500000D+00
                  0.112009D+02           0.200944D+00
            P    4   1.00
                  0.587849D+02          -0.189674D-01
                  0.918962D+01           0.264104D+00
                  0.413895D+01           0.500000D+00
                  0.184225D+01           0.319316D+00
            P    1   1.00
                  0.713862D+00           1.0000000
            P    1   1.00
                  0.274232D+00           1.0000000
            P    1   1.00
                  0.944411D-01           1.0000000
            D    7   1.00
                  0.398470D+03           0.204066D-02
                  0.118967D+03           0.175171D-01
                  0.450197D+02           0.829708D-01
                  0.190320D+02           0.236284D+00
                  0.855686D+01           0.428468D+00
                  0.382950D+01           0.500000D+00
                  0.166291D+01           0.349360D+00
            D    1   1.00
                  0.672953D+00           1.0000000
            D    1   1.00
                  0.252000D+00           1.0000000
            F    1   1.00
                  0.530000D+00           1.0000000
            ****
            -Si     0
            S    8   1.00
                  0.996133D+05           0.235546D-03
                  0.149311D+05           0.182707D-02
                  0.339820D+04           0.951425D-02
                  0.962140D+03           0.388172D-01
                  0.313430D+03           0.127328D+00
                  0.112683D+03           0.313522D+00
                  0.433372D+02           0.500000D+00
                  0.170029D+02           0.340347D+00
            S    3   1.00
                  0.884208D+02          -0.404451D-01
                  0.266756D+02          -0.178059D+00
                  0.479640D+01           0.500000D+00
            S    2   1.00
                  0.239385D+01           0.500000D+00
                  0.108333D+01           0.338016D+00
            S    1   1.00
                  0.252420D+00           1.0000000
            S    1   1.00
                  0.891210D-01           1.0000000
            P    7   1.00
                  0.709901D+03           0.123028D-02
                  0.168426D+03           0.101366D-01
                  0.539946D+02           0.511840D-01
                  0.198646D+02           0.169967D+00
                  0.801369D+01           0.370717D+00
                  0.331870D+01           0.500000D+00
                  0.136112D+01           0.344128D+00
            P    2   1.00
                  0.622158D+01          -0.166609D-01
                  0.503049D+00           0.500000D+00
            P    1   1.00
                  0.179848D+00           1.0000000
            P    1   1.00
                  0.591912D-01           1.0000000
            D    1   1.00
                  0.168000D+01           1.0000000
            D    1   1.00
                  0.380000D+00           1.0000000
            F    1   1.00
                  0.540000D+00           1.0000000
            ****
            -P     0
            S    8   1.00
                  0.116416D+06           0.230715D-03
                  0.174500D+05           0.178960D-02
                  0.397149D+04           0.932116D-02
                  0.112447D+04           0.380591D-01
                  0.366347D+03           0.125148D+00
                  0.131757D+03           0.310022D+00
                  0.506988D+02           0.500000D+00
                  0.199436D+02           0.347528D+00
            S    3   1.00
                  0.101878D+03          -0.446755D-01
                  0.308249D+02          -0.196376D+00
                  0.573688D+01           0.500000D+00
            S    2   1.00
                  0.296868D+01           0.500000D+00
                  0.135315D+01           0.355098D+00
            S    1   1.00
                  0.332196D+00           1.0000000
            S    1   1.00
                  0.116229D+00           1.0000000
            P    7   1.00
                  0.873928D+03           0.112375D-02
                  0.207298D+03           0.933330D-02
                  0.664628D+02           0.477213D-01
                  0.245665D+02           0.160733D+00
                  0.996820D+01           0.359760D+00
                  0.416536D+01           0.500000D+00
                  0.173022D+01           0.346593D+00
            P    2   1.00
                  0.772530D+01          -0.175718D-01
                  0.657252D+00           0.500000D+00
            P    1   1.00
                  0.239903D+00           1.0000000
            P    1   1.00
                  0.800988D-01           1.0000000
            D    1   1.00
                  0.189000D+01           1.0000000
            D    1   1.00
                  0.430000D+00           1.0000000
            F    1   1.00
                  0.600000D+00           1.0000000
            ****
            
 Initial command:
 /usr/local/apps/g16_b01_avx/g16/l1.exe "/wrk/irikura/Gau-16984.inp" -scrdir="/wrk/irikura/"
 Entering Link 1 = /usr/local/apps/g16_b01_avx/g16/l1.exe PID=     16986.
  
 Copyright (c) 1988-2017, Gaussian, Inc.  All Rights Reserved.
  
 This is part of the Gaussian(R) 16 program.  It is based on
 the Gaussian(R) 09 system (copyright 2009, Gaussian, Inc.),
 the Gaussian(R) 03 system (copyright 2003, Gaussian, Inc.),
 the Gaussian(R) 98 system (copyright 1998, Gaussian, Inc.),
 the Gaussian(R) 94 system (copyright 1995, Gaussian, Inc.),
 the Gaussian 92(TM) system (copyright 1992, Gaussian, Inc.),
 the Gaussian 90(TM) system (copyright 1990, Gaussian, Inc.),
 the Gaussian 88(TM) system (copyright 1988, Gaussian, Inc.),
 the Gaussian 86(TM) system (copyright 1986, Carnegie Mellon
 University), and the Gaussian 82(TM) system (copyright 1983,
 Carnegie Mellon University). Gaussian is a federally registered
 trademark of Gaussian, Inc.
  
 This software contains proprietary and confidential information,
 including trade secrets, belonging to Gaussian, Inc.
  
 This software is provided under written license and may be
 used, copied, transmitted, or stored only in accord with that
 written license.
  
 The following legend is applicable only to US Government
 contracts under FAR:
  
                    RESTRICTED RIGHTS LEGEND
  
 Use, reproduction and disclosure by the US Government is
 subject to restrictions as set forth in subparagraphs (a)
 and (c) of the Commercial Computer Software - Restricted
 Rights clause in FAR 52.227-19.
  
 Gaussian, Inc.
 340 Quinnipiac St., Bldg. 40, Wallingford CT 06492
  
  
 ---------------------------------------------------------------
 Warning -- This program may not be used in any manner that
 competes with the business of Gaussian, Inc. or will provide
 assistance to any competitor of Gaussian, Inc.  The licensee
 of this program is prohibited from giving any competitor of
 Gaussian, Inc. access to this program.  By using this program,
 the user acknowledges that Gaussian, Inc. is engaged in the
 business of creating and licensing software in the field of
 computational chemistry and represents and warrants to the
 licensee that it is not a competitor of Gaussian, Inc. and that
 it will not use this program in any manner prohibited above.
 ---------------------------------------------------------------
  

 Cite this work as:
 Gaussian 16, Revision B.01,
 M. J. Frisch, G. W. Trucks, H. B. Schlegel, G. E. Scuseria, 
 M. A. Robb, J. R. Cheeseman, G. Scalmani, V. Barone, 
 G. A. Petersson, H. Nakatsuji, X. Li, M. Caricato, A. V. Marenich, 
 J. Bloino, B. G. Janesko, R. Gomperts, B. Mennucci, H. P. Hratchian, 
 J. V. Ortiz, A. F. Izmaylov, J. L. Sonnenberg, D. Williams-Young, 
 F. Ding, F. Lipparini, F. Egidi, J. Goings, B. Peng, A. Petrone, 
 T. Henderson, D. Ranasinghe, V. G. Zakrzewski, J. Gao, N. Rega, 
 G. Zheng, W. Liang, M. Hada, M. Ehara, K. Toyota, R. Fukuda, 
 J. Hasegawa, M. Ishida, T. Nakajima, Y. Honda, O. Kitao, H. Nakai, 
 T. Vreven, K. Throssell, J. A. Montgomery, Jr., J. E. Peralta, 
 F. Ogliaro, M. J. Bearpark, J. J. Heyd, E. N. Brothers, K. N. Kudin, 
 V. N. Staroverov, T. A. Keith, R. Kobayashi, J. Normand, 
 K. Raghavachari, A. P. Rendell, J. C. Burant, S. S. Iyengar, 
 J. Tomasi, M. Cossi, J. M. Millam, M. Klene, C. Adamo, R. Cammi, 
 J. W. Ochterski, R. L. Martin, K. Morokuma, O. Farkas, 
 J. B. Foresman, and D. J. Fox, Gaussian, Inc., Wallingford CT, 2016.
 
 ******************************************
 Gaussian 16:  ES64L-G16RevB.01 20-Dec-2017
                15-Jun-2022 
 ******************************************
 %mem=500mw
 %nprocs=8
 Will use up to    8 processors via shared memory.
 --------------------
 # b3lyp/gen opt freq
 --------------------
 1/18=20,19=15,26=3,38=1/1,3;
 2/9=110,12=2,17=6,18=5,40=1/2;
 3/5=7,11=2,25=1,30=1,71=1,74=-5/1,2,3;
 4//1;
 5/5=2,38=5/2;
 6/7=2,8=2,9=2,10=2,28=1/1;
 7//1,2,3,16;
 1/18=20,19=15,26=3/3(2);
 2/9=110/2;
 99//99;
 2/9=110/2;
 3/5=7,6=1,11=2,25=1,30=1,71=1,74=-5,82=7/1,2,3;
 4/5=5,16=3,69=1/1;
 5/5=2,38=5/2;
 7//1,2,3,16;
 1/18=20,19=15,26=3/3(-5);
 2/9=110/2;
 6/7=2,8=2,9=2,10=2,19=2,28=1/1;
 99/9=1/99;
 --------------------------
 diacetylene, B3LYP/pcseg-2
 --------------------------
 Symbolic Z-matrix:
 Charge =  0 Multiplicity = 1
 C                     0.        0.        0.68071 
 C                     0.        0.       -0.68071 
 C                     0.        0.        1.88739 
 C                     0.        0.       -1.88739 
 H                     0.        0.        2.94927 
 H                     0.        0.       -2.94927 
 

 GradGradGradGradGradGradGradGradGradGradGradGradGradGradGradGradGradGrad
 Berny optimization.
 Initialization pass.
                           ----------------------------
                           !    Initial Parameters    !
                           ! (Angstroms and Degrees)  !
 --------------------------                            --------------------------
 ! Name  Definition              Value          Derivative Info.                !
 --------------------------------------------------------------------------------
 ! R1    R(1,2)                  1.3614         estimate D2E/DX2                !
 ! R2    R(1,3)                  1.2067         estimate D2E/DX2                !
 ! R3    R(2,4)                  1.2067         estimate D2E/DX2                !
 ! R4    R(3,5)                  1.0619         estimate D2E/DX2                !
 ! R5    R(4,6)                  1.0619         estimate D2E/DX2                !
 ! A1    L(2,1,3,-1,-1)        180.0            estimate D2E/DX2                !
 ! A2    L(1,2,4,-1,-1)        180.0            estimate D2E/DX2                !
 ! A3    L(1,3,5,-1,-1)        180.0            estimate D2E/DX2                !
 ! A4    L(2,4,6,-1,-1)        180.0            estimate D2E/DX2                !
 ! A5    L(2,1,3,-2,-2)        180.0            estimate D2E/DX2                !
 ! A6    L(1,2,4,-2,-2)        180.0            estimate D2E/DX2                !
 ! A7    L(1,3,5,-2,-2)        180.0            estimate D2E/DX2                !
 ! A8    L(2,4,6,-2,-2)        180.0            estimate D2E/DX2                !
 --------------------------------------------------------------------------------
 Trust Radius=3.00D-01 FncErr=1.00D-07 GrdErr=1.00D-06 EigMax=2.50D+02 EigMin=1.00D-04
 Number of steps in this run=     23 maximum allowed number of steps=    100.
 GradGradGradGradGradGradGradGradGradGradGradGradGradGradGradGradGradGrad

                          Input orientation:                          
 ---------------------------------------------------------------------
 Center     Atomic      Atomic             Coordinates (Angstroms)
 Number     Number       Type             X           Y           Z
 ---------------------------------------------------------------------
      1          6           0        0.000000    0.000000    0.680709
      2          6           0        0.000000    0.000000   -0.680709
      3          6           0        0.000000    0.000000    1.887385
      4          6           0        0.000000    0.000000   -1.887385
      5          1           0        0.000000    0.000000    2.949265
      6          1           0        0.000000    0.000000   -2.949265
 ---------------------------------------------------------------------
                    Distance matrix (angstroms):
                    1          2          3          4          5
     1  C    0.000000
     2  C    1.361418   0.000000
     3  C    1.206676   2.568094   0.000000
     4  C    2.568094   1.206676   3.774770   0.000000
     5  H    2.268556   3.629974   1.061880   4.836650   0.000000
     6  H    3.629974   2.268556   4.836650   1.061880   5.898530
                    6
     6  H    0.000000
 Stoichiometry    C4H2
 Framework group  D*H[C*(HCC.CCH)]
 Deg. of freedom     3
 Full point group                 D*H     NOp   8
 Largest Abelian subgroup         D2H     NOp   8
 Largest concise Abelian subgroup C2      NOp   2
                         Standard orientation:                         
 ---------------------------------------------------------------------
 Center     Atomic      Atomic             Coordinates (Angstroms)
 Number     Number       Type             X           Y           Z
 ---------------------------------------------------------------------
      1          6           0        0.000000    0.000000    0.680709
      2          6           0        0.000000    0.000000   -0.680709
      3          6           0        0.000000    0.000000    1.887385
      4          6           0        0.000000    0.000000   -1.887385
      5          1           0        0.000000    0.000000    2.949265
      6          1           0        0.000000    0.000000   -2.949265
 ---------------------------------------------------------------------
 Rotational constants (GHZ):           0.0000000           4.4274580           4.4274580
 General basis read from cards:  (5D, 7F)
 There are    40 symmetry adapted cartesian basis functions of AG  symmetry.
 There are     7 symmetry adapted cartesian basis functions of B1G symmetry.
 There are    19 symmetry adapted cartesian basis functions of B2G symmetry.
 There are    19 symmetry adapted cartesian basis functions of B3G symmetry.
 There are     7 symmetry adapted cartesian basis functions of AU  symmetry.
 There are    40 symmetry adapted cartesian basis functions of B1U symmetry.
 There are    19 symmetry adapted cartesian basis functions of B2U symmetry.
 There are    19 symmetry adapted cartesian basis functions of B3U symmetry.
 There are    33 symmetry adapted basis functions of AG  symmetry.
 There are     7 symmetry adapted basis functions of B1G symmetry.
 There are    17 symmetry adapted basis functions of B2G symmetry.
 There are    17 symmetry adapted basis functions of B3G symmetry.
 There are     7 symmetry adapted basis functions of AU  symmetry.
 There are    33 symmetry adapted basis functions of B1U symmetry.
 There are    17 symmetry adapted basis functions of B2U symmetry.
 There are    17 symmetry adapted basis functions of B3U symmetry.
   148 basis functions,   240 primitive gaussians,   170 cartesian basis functions
    13 alpha electrons       13 beta electrons
       nuclear repulsion energy        77.3822425001 Hartrees.
 NAtoms=    6 NActive=    6 NUniq=    3 SFac= 4.00D+00 NAtFMM=   60 NAOKFM=F Big=F
 Integral buffers will be    131072 words long.
 Raffenetti 2 integral format.
 Two-electron integral symmetry is turned on.
 One-electron integrals computed using PRISM.
 NBasis=   148 RedAO= T EigKep=  4.39D-05  NBF=    33     7    17    17     7    33    17    17
 NBsUse=   148 1.00D-06 EigRej= -1.00D+00 NBFU=    33     7    17    17     7    33    17    17
 ExpMin= 7.42D-02 ExpMax= 7.32D+03 ExpMxC= 2.50D+02 IAcc=3 IRadAn=         5 AccDes= 0.00D+00
 Harris functional with IExCor=  402 and IRadAn=       5 diagonalized for initial guess.
 HarFok:  IExCor=  402 AccDes= 0.00D+00 IRadAn=         5 IDoV= 1 UseB2=F ITyADJ=14
 ICtDFT=  3500011 ScaDFX=  1.000000  1.000000  1.000000  1.000000
 FoFCou: FMM=F IPFlag=           0 FMFlag=      100000 FMFlg1=           0
         NFxFlg=           0 DoJE=T BraDBF=F KetDBF=T FulRan=T
         wScrn=  0.000000 ICntrl=       500 IOpCl=  0 I1Cent=   200000004 NGrid=           0
         NMat0=    1 NMatS0=      1 NMatT0=    0 NMatD0=    1 NMtDS0=    0 NMtDT0=    0
 Petite list used in FoFCou.
 Initial guess orbital symmetries:
       Occupied  (SGG) (SGU) (SGG) (SGU) (SGG) (SGU) (SGG) (SGU)
                 (SGG) (PIU) (PIU) (PIG) (PIG)
       Virtual   (PIU) (PIU) (SGU) (PIG) (PIG) (SGG) (SGG) (SGU)
                 (SGU) (PIU) (PIU) (SGG) (PIG) (PIG) (SGU) (PIU)
                 (PIU) (SGG) (PIG) (PIG) (SGU) (SGG) (SGU) (SGG)
                 (SGG) (SGU) (DLTG) (DLTG) (PIU) (PIU) (DLTU) (DLTU)
                 (SGU) (PIG) (PIG) (SGG) (DLTG) (DLTG) (PIU) (PIU)
                 (PIU) (PIU) (SGU) (PIG) (PIG) (PIU) (PIU) (DLTU)
                 (DLTU) (SGG) (PIG) (PIG) (SGU) (SGG) (PIG) (PIG)
                 (SGU) (SGG) (PIU) (PIU) (SGU) (SGG) (PIG) (PIG)
                 (SGG) (SGU) (SGU) (DLTG) (DLTG) (PHIU) (PHIU)
                 (DLTU) (DLTU) (SGG) (PHIG) (PHIG) (SGU) (SGG)
                 (PHIU) (PHIU) (PIU) (PIU) (PHIG) (PHIG) (DLTG)
                 (DLTG) (PIU) (PIU) (PIG) (PIG) (SGU) (DLTG) (DLTG)
                 (DLTU) (DLTU) (PIU) (PIU) (DLTG) (DLTG) (PIG)
                 (PIG) (DLTU) (DLTU) (DLTU) (DLTU) (SGG) (SGG)
                 (SGU) (DLTG) (DLTG) (PIU) (PIU) (PIG) (PIG) (PIG)
                 (PIG) (SGU) (DLTU) (DLTU) (SGG) (PIU) (PIU) (SGU)
                 (PIG) (PIG) (SGG) (PIG) (PIG) (PIU) (PIU) (SGU)
                 (SGU) (SGG) (SGG) (SGU)
 The electronic state of the initial guess is 1-SGG.
 Keep R1 ints in memory in symmetry-blocked form, NReq=68802035.
 Requested convergence on RMS density matrix=1.00D-08 within 128 cycles.
 Requested convergence on MAX density matrix=1.00D-06.
 Requested convergence on             energy=1.00D-06.
 No special actions if energy rises.
 Integral accuracy reduced to 1.0D-05 until final iterations.
 Initial convergence to 1.0D-05 achieved.  Increase integral accuracy.
 SCF Done:  E(RB3LYP) =  -153.549707795     A.U. after   12 cycles
            NFock= 12  Conv=0.10D-08     -V/T= 2.0040

 **********************************************************************

            Population analysis using the SCF Density.

 **********************************************************************

 Orbital symmetries:
       Occupied  (SGG) (SGU) (SGG) (SGU) (SGG) (SGU) (SGG) (SGU)
                 (SGG) (PIU) (PIU) (PIG) (PIG)
       Virtual   (PIU) (PIU) (SGG) (SGU) (SGG) (PIG) (PIG) (SGU)
                 (PIU) (PIU) (SGU) (SGG) (PIG) (PIG) (SGU) (PIU)
                 (PIU) (SGG) (PIG) (PIG) (SGU) (SGG) (SGU) (SGG)
                 (SGU) (SGG) (DLTG) (DLTG) (PIU) (PIU) (DLTU) (DLTU)
                 (PIG) (PIG) (SGU) (SGG) (DLTG) (DLTG) (PIU) (PIU)
                 (PIU) (PIU) (SGU) (PIG) (PIG) (PIU) (PIU) (DLTU)
                 (DLTU) (SGG) (PIG) (PIG) (SGU) (SGG) (PIG) (PIG)
                 (SGU) (SGG) (SGU) (PIU) (PIU) (SGG) (PIG) (PIG)
                 (SGG) (SGU) (SGU) (DLTG) (DLTG) (PHIU) (PHIU)
                 (DLTU) (DLTU) (SGG) (PHIG) (PHIG) (SGU) (SGG)
                 (PHIU) (PHIU) (PIU) (PIU) (PHIG) (PHIG) (DLTG)
                 (DLTG) (PIU) (PIU) (PIG) (PIG) (SGU) (DLTU) (DLTU)
                 (DLTG) (DLTG) (PIU) (PIU) (PIG) (PIG) (DLTG) (DLTG)
                 (DLTU) (DLTU) (DLTU) (DLTU) (SGG) (SGG) (DLTG)
                 (DLTG) (SGU) (PIU) (PIU) (PIG) (PIG) (PIG) (PIG)
                 (SGU) (DLTU) (DLTU) (SGG) (PIU) (PIU) (SGU) (SGG)
                 (PIG) (PIG) (PIG) (PIG) (PIU) (PIU) (SGU) (SGU)
                 (SGG) (SGG) (SGU)
 The electronic state is 1-SGG.
 Alpha  occ. eigenvalues --  -10.20724 -10.20655 -10.19847 -10.19846  -0.81240
 Alpha  occ. eigenvalues --   -0.75530  -0.64173  -0.54746  -0.52600  -0.36772
 Alpha  occ. eigenvalues --   -0.36772  -0.27447  -0.27447
 Alpha virt. eigenvalues --   -0.04157  -0.04157   0.03334   0.03445   0.08314
 Alpha virt. eigenvalues --    0.10545   0.10545   0.10688   0.15600   0.15600
 Alpha virt. eigenvalues --    0.20443   0.21433   0.23224   0.23224   0.27631
 Alpha virt. eigenvalues --    0.27750   0.27750   0.30175   0.36683   0.36683
 Alpha virt. eigenvalues --    0.41174   0.48327   0.50935   0.58476   0.69273
 Alpha virt. eigenvalues --    0.74294   0.74955   0.74955   0.76602   0.76602
 Alpha virt. eigenvalues --    0.85708   0.85708   0.90607   0.90607   0.92836
 Alpha virt. eigenvalues --    1.06776   1.08149   1.08149   1.14385   1.14385
 Alpha virt. eigenvalues --    1.24399   1.24399   1.26777   1.27162   1.27162
 Alpha virt. eigenvalues --    1.30479   1.30479   1.34442   1.34442   1.34883
 Alpha virt. eigenvalues --    1.41286   1.41286   1.46836   1.57383   1.59523
 Alpha virt. eigenvalues --    1.59523   1.65792   1.73888   1.90777   1.92034
 Alpha virt. eigenvalues --    1.92034   1.98007   2.47101   2.47101   2.50593
 Alpha virt. eigenvalues --    2.60242   2.66308   2.83195   2.83195   3.10585
 Alpha virt. eigenvalues --    3.10585   3.15404   3.15404   3.20452   3.21430
 Alpha virt. eigenvalues --    3.21430   3.37007   3.48874   3.49071   3.49071
 Alpha virt. eigenvalues --    3.55794   3.55794   3.63013   3.63013   3.65204
 Alpha virt. eigenvalues --    3.65204   3.75239   3.75239   3.84277   3.84277
 Alpha virt. eigenvalues --    3.87703   3.89664   3.89664   3.89723   3.89723
 Alpha virt. eigenvalues --    3.91017   3.91017   4.00236   4.00236   4.03762
 Alpha virt. eigenvalues --    4.03762   4.03842   4.03842   4.17509   4.17509
 Alpha virt. eigenvalues --    4.28067   4.44325   4.47979   4.47979   4.49011
 Alpha virt. eigenvalues --    4.52753   4.52753   4.66277   4.66277   4.74666
 Alpha virt. eigenvalues --    4.74666   4.82241   4.88927   4.88927   5.12819
 Alpha virt. eigenvalues --    5.17294   5.17294   5.26179   5.68317   5.69649
 Alpha virt. eigenvalues --    5.69649   5.89604   5.89604   5.91250   5.91250
 Alpha virt. eigenvalues --    6.06067   6.66233   7.28090   8.10548  10.78465
          Condensed to atoms (all electrons):
               1          2          3          4          5          6
     1  C    4.889868   0.452533   0.828947  -0.134567  -0.071113  -0.001323
     2  C    0.452533   4.889868  -0.134567   0.828947  -0.001323  -0.071113
     3  C    0.828947  -0.134567   4.972340  -0.042516   0.480684  -0.001189
     4  C   -0.134567   0.828947  -0.042516   4.972340  -0.001189   0.480684
     5  H   -0.071113  -0.001323   0.480684  -0.001189   0.524920  -0.000024
     6  H   -0.001323  -0.071113  -0.001189   0.480684  -0.000024   0.524920
 Mulliken charges:
               1
     1  C    0.035655
     2  C    0.035655
     3  C   -0.103700
     4  C   -0.103700
     5  H    0.068045
     6  H    0.068045
 Sum of Mulliken charges =  -0.00000
 Mulliken charges with hydrogens summed into heavy atoms:
               1
     1  C    0.035655
     2  C    0.035655
     3  C   -0.035655
     4  C   -0.035655
 Electronic spatial extent (au):  <R**2>=            280.6709
 Charge=             -0.0000 electrons
 Dipole moment (field-independent basis, Debye):
    X=              0.0000    Y=              0.0000    Z=              0.0000  Tot=              0.0000
 Quadrupole moment (field-independent basis, Debye-Ang):
   XX=            -24.8224   YY=            -24.8224   ZZ=            -12.2805
   XY=             -0.0000   XZ=             -0.0000   YZ=              0.0000
 Traceless Quadrupole moment (field-independent basis, Debye-Ang):
   XX=             -4.1806   YY=             -4.1806   ZZ=              8.3612
   XY=             -0.0000   XZ=             -0.0000   YZ=              0.0000
 Octapole moment (field-independent basis, Debye-Ang**2):
  XXX=             -0.0000  YYY=              0.0000  ZZZ=             -0.0000  XYY=             -0.0000
  XXY=             -0.0000  XXZ=              0.0000  XZZ=              0.0000  YZZ=              0.0000
  YYZ=              0.0000  XYZ=              0.0000
 Hexadecapole moment (field-independent basis, Debye-Ang**3):
 XXXX=            -30.3397 YYYY=            -30.3397 ZZZZ=           -211.3465 XXXY=             -0.0000
 XXXZ=              0.0000 YYYX=             -0.0000 YYYZ=              0.0000 ZZZX=              0.0000
 ZZZY=              0.0000 XXYY=            -10.1132 XXZZ=            -69.8055 YYZZ=            -69.8055
 XXYZ=              0.0000 YYXZ=              0.0000 ZZXY=             -0.0000
 N-N= 7.738224250011D+01 E-N=-5.110333698129D+02  KE= 1.529328354504D+02
 Symmetry AG   KE= 7.360805594109D+01
 Symmetry B1G  KE= 4.092267924685D-33
 Symmetry B2G  KE= 2.395777465847D+00
 Symmetry B3G  KE= 2.395777465847D+00
 Symmetry AU   KE= 5.640865828820D-33
 Symmetry B1U  KE= 7.015833751800D+01
 Symmetry B2U  KE= 2.187443529817D+00
 Symmetry B3U  KE= 2.187443529817D+00
 Calling FoFJK, ICntrl=      2127 FMM=F ISym2X=1 I1Cent= 0 IOpClX= 0 NMat=1 NMatS=1 NMatT=0.
 ***** Axes restored to original set *****
 -------------------------------------------------------------------
 Center     Atomic                   Forces (Hartrees/Bohr)
 Number     Number              X              Y              Z
 -------------------------------------------------------------------
      1        6           0.000000000    0.000000000    0.006321077
      2        6           0.000000000    0.000000000   -0.006321077
      3        6          -0.000000000   -0.000000000   -0.004259386
      4        6          -0.000000000   -0.000000000    0.004259386
      5        1          -0.000000000   -0.000000000   -0.000333380
      6        1          -0.000000000   -0.000000000    0.000333380
 -------------------------------------------------------------------
 Cartesian Forces:  Max     0.006321077 RMS     0.002543172

 GradGradGradGradGradGradGradGradGradGradGradGradGradGradGradGradGradGrad
 Berny optimization.
 FormGI is forming the generalized inverse of G from B-inverse, IUseBI=4.
 Internal  Forces:  Max     0.004592767 RMS     0.001868697
 Search for a local minimum.
 Step number   1 out of a maximum of   23
 All quantities printed in internal units (Hartrees-Bohrs-Radians)
 Mixed Optimization -- RFO/linear search
 Second derivative matrix not updated -- first step.
 The second derivative matrix:
                          R1        R2        R3        R4        R5
           R1           0.52662
           R2           0.00000   1.01539
           R3           0.00000   0.00000   1.01539
           R4           0.00000   0.00000   0.00000   0.38276
           R5           0.00000   0.00000   0.00000   0.00000   0.38276
           A1           0.00000   0.00000   0.00000   0.00000   0.00000
           A2           0.00000   0.00000   0.00000   0.00000   0.00000
           A3           0.00000   0.00000   0.00000   0.00000   0.00000
           A4           0.00000   0.00000   0.00000   0.00000   0.00000
           A5           0.00000   0.00000   0.00000   0.00000   0.00000
           A6           0.00000   0.00000   0.00000   0.00000   0.00000
           A7           0.00000   0.00000   0.00000   0.00000   0.00000
           A8           0.00000   0.00000   0.00000   0.00000   0.00000
                          A1        A2        A3        A4        A5
           A1           0.04646
           A2           0.00000   0.04646
           A3           0.00000   0.00000   0.00607
           A4           0.00000   0.00000   0.00000   0.00607
           A5           0.00000   0.00000   0.00000   0.00000   0.04646
           A6           0.00000   0.00000   0.00000   0.00000   0.00000
           A7           0.00000   0.00000   0.00000   0.00000   0.00000
           A8           0.00000   0.00000   0.00000   0.00000   0.00000
                          A6        A7        A8
           A6           0.04646
           A7           0.00000   0.00607
           A8           0.00000   0.00000   0.00607
 ITU=  0
     Eigenvalues ---    0.00607   0.00607   0.00607   0.00607   0.04646
     Eigenvalues ---    0.04646   0.04646   0.04646   0.38276   0.38276
     Eigenvalues ---    0.52662   1.01539   1.01539
 RFO step:  Lambda=-4.78005336D-05 EMin= 6.06803814D-03
 Linear search not attempted -- first point.
 Iteration  1 RMS(Cart)=  0.00196447 RMS(Int)=  0.00000001
 Iteration  2 RMS(Cart)=  0.00000002 RMS(Int)=  0.00000001
 ClnCor:  largest displacement from symmetrization is 5.53D-08 for atom     6.
 Variable       Old X    -DE/DX   Delta X   Delta X   Delta X     New X
                                 (Linear)    (Quad)   (Total)
    R1        2.57271   0.00173   0.00000   0.00328   0.00328   2.57599
    R2        2.28029  -0.00459   0.00000  -0.00452  -0.00452   2.27576
    R3        2.28029  -0.00459   0.00000  -0.00452  -0.00452   2.27576
    R4        2.00666  -0.00033   0.00000  -0.00087  -0.00087   2.00579
    R5        2.00666  -0.00033   0.00000  -0.00087  -0.00087   2.00579
    A1        3.14159  -0.00000   0.00000  -0.00000   0.00000   3.14159
    A2        3.14159   0.00000   0.00000   0.00000   0.00000   3.14159
    A3        3.14159  -0.00000   0.00000  -0.00000   0.00000   3.14159
    A4        3.14159   0.00000   0.00000   0.00000   0.00000   3.14159
    A5        3.14159   0.00000   0.00000   0.00000   0.00000   3.14159
    A6        3.14159  -0.00000   0.00000  -0.00000   0.00000   3.14159
    A7        3.14159   0.00000   0.00000   0.00000   0.00000   3.14159
    A8        3.14159  -0.00000   0.00000  -0.00000   0.00000   3.14159
         Item               Value     Threshold  Converged?
 Maximum Force            0.004593     0.000450     NO 
 RMS     Force            0.001869     0.000300     NO 
 Maximum Displacement     0.003753     0.001800     NO 
 RMS     Displacement     0.001964     0.001200     NO 
 Predicted change in Energy=-2.390027D-05
 GradGradGradGradGradGradGradGradGradGradGradGradGradGradGradGradGradGrad

                          Input orientation:                          
 ---------------------------------------------------------------------
 Center     Atomic      Atomic             Coordinates (Angstroms)
 Number     Number       Type             X           Y           Z
 ---------------------------------------------------------------------
      1          6           0        0.000000    0.000000    0.681577
      2          6           0        0.000000    0.000000   -0.681577
      3          6           0       -0.000000    0.000000    1.885860
      4          6           0        0.000000    0.000000   -1.885860
      5          1           0       -0.000000    0.000000    2.947279
      6          1           0        0.000000    0.000000   -2.947279
 ---------------------------------------------------------------------
                    Distance matrix (angstroms):
                    1          2          3          4          5
     1  C    0.000000
     2  C    1.363155   0.000000
     3  C    1.204283   2.567437   0.000000
     4  C    2.567437   1.204283   3.771720   0.000000
     5  H    2.265702   3.628856   1.061419   4.833139   0.000000
     6  H    3.628856   2.265702   4.833139   1.061419   5.894558
                    6
     6  H    0.000000
 Stoichiometry    C4H2
 Framework group  D*H[C*(HCC.CCH)]
 Deg. of freedom     3
 Full point group                 D*H     NOp   8
 Largest Abelian subgroup         D2H     NOp   8
 Largest concise Abelian subgroup C2      NOp   2
                         Standard orientation:                         
 ---------------------------------------------------------------------
 Center     Atomic      Atomic             Coordinates (Angstroms)
 Number     Number       Type             X           Y           Z
 ---------------------------------------------------------------------
      1          6           0        0.000000    0.000000    0.681577
      2          6           0        0.000000    0.000000   -0.681577
      3          6           0        0.000000    0.000000    1.885860
      4          6           0        0.000000    0.000000   -1.885860
      5          1           0        0.000000    0.000000    2.947279
      6          1           0        0.000000    0.000000   -2.947279
 ---------------------------------------------------------------------
 Rotational constants (GHZ):           0.0000000           4.4326357           4.4326357
 Basis read from rwf:  (5D, 7F)
 There are    40 symmetry adapted cartesian basis functions of AG  symmetry.
 There are     7 symmetry adapted cartesian basis functions of B1G symmetry.
 There are    19 symmetry adapted cartesian basis functions of B2G symmetry.
 There are    19 symmetry adapted cartesian basis functions of B3G symmetry.
 There are     7 symmetry adapted cartesian basis functions of AU  symmetry.
 There are    40 symmetry adapted cartesian basis functions of B1U symmetry.
 There are    19 symmetry adapted cartesian basis functions of B2U symmetry.
 There are    19 symmetry adapted cartesian basis functions of B3U symmetry.
 There are    33 symmetry adapted basis functions of AG  symmetry.
 There are     7 symmetry adapted basis functions of B1G symmetry.
 There are    17 symmetry adapted basis functions of B2G symmetry.
 There are    17 symmetry adapted basis functions of B3G symmetry.
 There are     7 symmetry adapted basis functions of AU  symmetry.
 There are    33 symmetry adapted basis functions of B1U symmetry.
 There are    17 symmetry adapted basis functions of B2U symmetry.
 There are    17 symmetry adapted basis functions of B3U symmetry.
   148 basis functions,   240 primitive gaussians,   170 cartesian basis functions
    13 alpha electrons       13 beta electrons
       nuclear repulsion energy        77.4427233183 Hartrees.
 NAtoms=    6 NActive=    6 NUniq=    3 SFac= 4.00D+00 NAtFMM=   60 NAOKFM=F Big=F
 Integral buffers will be    131072 words long.
 Raffenetti 2 integral format.
 Two-electron integral symmetry is turned on.
 One-electron integrals computed using PRISM.
 NBasis=   148 RedAO= T EigKep=  4.35D-05  NBF=    33     7    17    17     7    33    17    17
 NBsUse=   148 1.00D-06 EigRej= -1.00D+00 NBFU=    33     7    17    17     7    33    17    17
 Initial guess from the checkpoint file:  "/wrk/irikura/Gau-16986.chk"
 B after Tr=    -0.000000    0.000000    0.000000
         Rot=    1.000000    0.000000    0.000000    0.000000 Ang=   0.00 deg.
 Initial guess orbital symmetries:
       Occupied  (SGG) (SGU) (SGG) (SGU) (SGG) (SGU) (SGG) (SGU)
                 (SGG) (PIU) (PIU) (PIG) (PIG)
       Virtual   (PIU) (PIU) (SGG) (SGU) (SGG) (PIG) (PIG) (SGU)
                 (PIU) (PIU) (SGU) (SGG) (PIG) (PIG) (SGU) (PIU)
                 (PIU) (SGG) (PIG) (PIG) (SGU) (SGG) (SGU) (SGG)
                 (SGU) (SGG) (DLTG) (DLTG) (PIU) (PIU) (DLTU) (DLTU)
                 (PIG) (PIG) (SGU) (SGG) (DLTG) (DLTG) (PIU) (PIU)
                 (PIU) (PIU) (SGU) (PIG) (PIG) (PIU) (PIU) (DLTU)
                 (DLTU) (SGG) (PIG) (PIG) (SGU) (SGG) (PIG) (PIG)
                 (SGU) (SGG) (SGU) (PIU) (PIU) (SGG) (PIG) (PIG)
                 (SGG) (SGU) (SGU) (DLTG) (DLTG) (PHIU) (PHIU)
                 (DLTU) (DLTU) (SGG) (PHIG) (PHIG) (SGU) (SGG)
                 (PHIU) (PHIU) (PIU) (PIU) (PHIG) (PHIG) (DLTG)
                 (DLTG) (PIU) (PIU) (PIG) (PIG) (SGU) (DLTU) (DLTU)
                 (DLTG) (DLTG) (PIU) (PIU) (PIG) (PIG) (DLTG) (DLTG)
                 (DLTU) (DLTU) (DLTU) (DLTU) (SGG) (SGG) (DLTG)
                 (DLTG) (SGU) (PIU) (PIU) (PIG) (PIG) (PIG) (PIG)
                 (SGU) (DLTU) (DLTU) (SGG) (PIU) (PIU) (SGU) (SGG)
                 (PIG) (PIG) (PIG) (PIG) (PIU) (PIU) (SGU) (SGU)
                 (SGG) (SGG) (SGU)
 Keep R1 ints in memory in symmetry-blocked form, NReq=68802035.
 Requested convergence on RMS density matrix=1.00D-08 within 128 cycles.
 Requested convergence on MAX density matrix=1.00D-06.
 Requested convergence on             energy=1.00D-06.
 No special actions if energy rises.
 SCF Done:  E(RB3LYP) =  -153.549732968     A.U. after    7 cycles
            NFock=  7  Conv=0.67D-08     -V/T= 2.0039
 Calling FoFJK, ICntrl=      2127 FMM=F ISym2X=1 I1Cent= 0 IOpClX= 0 NMat=1 NMatS=1 NMatT=0.
 ***** Axes restored to original set *****
 -------------------------------------------------------------------
 Center     Atomic                   Forces (Hartrees/Bohr)
 Number     Number              X              Y              Z
 -------------------------------------------------------------------
      1        6           0.000000000    0.000000000    0.000606833
      2        6           0.000000000    0.000000000   -0.000606833
      3        6          -0.000000000   -0.000000000   -0.000083255
      4        6          -0.000000000   -0.000000000    0.000083255
      5        1          -0.000000000   -0.000000000    0.000002839
      6        1          -0.000000000   -0.000000000   -0.000002839
 -------------------------------------------------------------------
 Cartesian Forces:  Max     0.000606833 RMS     0.000204175

 GradGradGradGradGradGradGradGradGradGradGradGradGradGradGradGradGradGrad
 Berny optimization.
 Using GEDIIS/GDIIS optimizer.
 FormGI is forming the generalized inverse of G from B-inverse, IUseBI=4.
 Internal  Forces:  Max     0.000526418 RMS     0.000149374
 Search for a local minimum.
 Step number   2 out of a maximum of   23
 All quantities printed in internal units (Hartrees-Bohrs-Radians)
 Mixed Optimization -- En-DIIS/RFO-DIIS
 Update second derivatives using D2CorX and points    1    2
 DE= -2.52D-05 DEPred=-2.39D-05 R= 1.05D+00
 TightC=F SS=  1.41D+00  RLast= 7.29D-03 DXNew= 5.0454D-01 2.1881D-02
 Trust test= 1.05D+00 RLast= 7.29D-03 DXMaxT set to 3.00D-01
 The second derivative matrix:
                          R1        R2        R3        R4        R5
           R1           0.49599
           R2           0.04646   1.02310
           R3           0.04646   0.00771   1.02310
           R4           0.00314   0.00143   0.00143   0.38292
           R5           0.00314   0.00143   0.00143   0.00017   0.38292
           A1          -0.00000   0.00000   0.00000   0.00000   0.00000
           A2          -0.00000   0.00000   0.00000   0.00000   0.00000
           A3          -0.00000   0.00000   0.00000   0.00000   0.00000
           A4          -0.00000   0.00000   0.00000   0.00000   0.00000
           A5           0.00000  -0.00000  -0.00000  -0.00000  -0.00000
           A6           0.00000  -0.00000  -0.00000  -0.00000  -0.00000
           A7          -0.00000   0.00000   0.00000   0.00000   0.00000
           A8          -0.00000   0.00000   0.00000   0.00000   0.00000
                          A1        A2        A3        A4        A5
           A1           0.04646
           A2           0.00000   0.04646
           A3          -0.00000  -0.00000   0.00607
           A4          -0.00000  -0.00000  -0.00000   0.00607
           A5          -0.00000  -0.00000   0.00000   0.00000   0.04646
           A6          -0.00000  -0.00000   0.00000   0.00000   0.00000
           A7          -0.00000  -0.00000  -0.00000  -0.00000   0.00000
           A8           0.00000   0.00000  -0.00000  -0.00000  -0.00000
                          A6        A7        A8
           A6           0.04646
           A7           0.00000   0.00607
           A8          -0.00000  -0.00000   0.00607
 ITU=  1  0
 Use linear search instead of GDIIS.
     Eigenvalues ---    0.00607   0.00607   0.00607   0.00607   0.04646
     Eigenvalues ---    0.04646   0.04646   0.04646   0.38276   0.38292
     Eigenvalues ---    0.48819   1.01539   1.03879
 RFO step:  Lambda=-4.58138312D-07 EMin= 6.06803814D-03
 Quartic linear search produced a step of  0.05366.
 Iteration  1 RMS(Cart)=  0.00031361 RMS(Int)=  0.00000000
 Iteration  2 RMS(Cart)=  0.00000000 RMS(Int)=  0.00000000
 ClnCor:  largest displacement from symmetrization is 6.30D-10 for atom     3.
 Variable       Old X    -DE/DX   Delta X   Delta X   Delta X     New X
                                 (Linear)    (Quad)   (Total)
    R1        2.57599   0.00053   0.00018   0.00091   0.00108   2.57707
    R2        2.27576  -0.00008  -0.00024   0.00012  -0.00013   2.27564
    R3        2.27576  -0.00008  -0.00024   0.00012  -0.00013   2.27564
    R4        2.00579   0.00000  -0.00005   0.00005   0.00000   2.00579
    R5        2.00579   0.00000  -0.00005   0.00005   0.00000   2.00579
    A1        3.14159  -0.00000   0.00000  -0.00000   0.00000   3.14159
    A2        3.14159   0.00000   0.00000   0.00000   0.00000   3.14159
    A3        3.14159  -0.00000   0.00000  -0.00000   0.00000   3.14159
    A4        3.14159   0.00000   0.00000  -0.00000   0.00000   3.14159
    A5        3.14159   0.00000   0.00000   0.00000   0.00000   3.14159
    A6        3.14159  -0.00000   0.00000  -0.00000   0.00000   3.14159
    A7        3.14159   0.00000   0.00000  -0.00000   0.00000   3.14159
    A8        3.14159  -0.00000   0.00000  -0.00000   0.00000   3.14159
         Item               Value     Threshold  Converged?
 Maximum Force            0.000526     0.000450     NO 
 RMS     Force            0.000149     0.000300     YES
 Maximum Displacement     0.000541     0.001800     YES
 RMS     Displacement     0.000314     0.001200     YES
 Predicted change in Energy=-2.958184D-07
 GradGradGradGradGradGradGradGradGradGradGradGradGradGradGradGradGradGrad

                          Input orientation:                          
 ---------------------------------------------------------------------
 Center     Atomic      Atomic             Coordinates (Angstroms)
 Number     Number       Type             X           Y           Z
 ---------------------------------------------------------------------
      1          6           0        0.000000    0.000000    0.681864
      2          6           0        0.000000    0.000000   -0.681864
      3          6           0        0.000000    0.000000    1.886080
      4          6           0        0.000000    0.000000   -1.886080
      5          1           0        0.000000    0.000000    2.947499
      6          1           0        0.000000    0.000000   -2.947499
 ---------------------------------------------------------------------
                    Distance matrix (angstroms):
                    1          2          3          4          5
     1  C    0.000000
     2  C    1.363728   0.000000
     3  C    1.204216   2.567944   0.000000
     4  C    2.567944   1.204216   3.772160   0.000000
     5  H    2.265635   3.629363   1.061419   4.833579   0.000000
     6  H    3.629363   2.265635   4.833579   1.061419   5.894998
                    6
     6  H    0.000000
 Stoichiometry    C4H2
 Framework group  D*H[C*(HCC.CCH)]
 Deg. of freedom     3
 Full point group                 D*H     NOp   8
 Largest Abelian subgroup         D2H     NOp   8
 Largest concise Abelian subgroup C2      NOp   2
                         Standard orientation:                         
 ---------------------------------------------------------------------
 Center     Atomic      Atomic             Coordinates (Angstroms)
 Number     Number       Type             X           Y           Z
 ---------------------------------------------------------------------
      1          6           0        0.000000    0.000000    0.681864
      2          6           0        0.000000    0.000000   -0.681864
      3          6           0        0.000000    0.000000    1.886080
      4          6           0        0.000000    0.000000   -1.886080
      5          1           0        0.000000    0.000000    2.947499
      6          1           0        0.000000    0.000000   -2.947499
 ---------------------------------------------------------------------
 Rotational constants (GHZ):           0.0000000           4.4313951           4.4313951
 Basis read from rwf:  (5D, 7F)
 There are    40 symmetry adapted cartesian basis functions of AG  symmetry.
 There are     7 symmetry adapted cartesian basis functions of B1G symmetry.
 There are    19 symmetry adapted cartesian basis functions of B2G symmetry.
 There are    19 symmetry adapted cartesian basis functions of B3G symmetry.
 There are     7 symmetry adapted cartesian basis functions of AU  symmetry.
 There are    40 symmetry adapted cartesian basis functions of B1U symmetry.
 There are    19 symmetry adapted cartesian basis functions of B2U symmetry.
 There are    19 symmetry adapted cartesian basis functions of B3U symmetry.
 There are    33 symmetry adapted basis functions of AG  symmetry.
 There are     7 symmetry adapted basis functions of B1G symmetry.
 There are    17 symmetry adapted basis functions of B2G symmetry.
 There are    17 symmetry adapted basis functions of B3G symmetry.
 There are     7 symmetry adapted basis functions of AU  symmetry.
 There are    33 symmetry adapted basis functions of B1U symmetry.
 There are    17 symmetry adapted basis functions of B2U symmetry.
 There are    17 symmetry adapted basis functions of B3U symmetry.
   148 basis functions,   240 primitive gaussians,   170 cartesian basis functions
    13 alpha electrons       13 beta electrons
       nuclear repulsion energy        77.4347892458 Hartrees.
 NAtoms=    6 NActive=    6 NUniq=    3 SFac= 4.00D+00 NAtFMM=   60 NAOKFM=F Big=F
 Integral buffers will be    131072 words long.
 Raffenetti 2 integral format.
 Two-electron integral symmetry is turned on.
 One-electron integrals computed using PRISM.
 NBasis=   148 RedAO= T EigKep=  4.34D-05  NBF=    33     7    17    17     7    33    17    17
 NBsUse=   148 1.00D-06 EigRej= -1.00D+00 NBFU=    33     7    17    17     7    33    17    17
 Initial guess from the checkpoint file:  "/wrk/irikura/Gau-16986.chk"
 B after Tr=     0.000000    0.000000    0.000000
         Rot=    1.000000    0.000000    0.000000    0.000000 Ang=   0.00 deg.
 Initial guess orbital symmetries:
       Occupied  (SGG) (SGU) (SGG) (SGU) (SGG) (SGU) (SGG) (SGU)
                 (SGG) (PIU) (PIU) (PIG) (PIG)
       Virtual   (PIU) (PIU) (SGG) (SGU) (SGG) (PIG) (PIG) (SGU)
                 (PIU) (PIU) (SGU) (SGG) (PIG) (PIG) (SGU) (PIU)
                 (PIU) (SGG) (PIG) (PIG) (SGU) (SGG) (SGU) (SGG)
                 (SGU) (SGG) (DLTG) (DLTG) (PIU) (PIU) (DLTU) (DLTU)
                 (PIG) (PIG) (SGU) (SGG) (DLTG) (DLTG) (PIU) (PIU)
                 (PIU) (PIU) (SGU) (PIG) (PIG) (PIU) (PIU) (DLTU)
                 (DLTU) (SGG) (PIG) (PIG) (SGU) (SGG) (PIG) (PIG)
                 (SGU) (SGG) (SGU) (PIU) (PIU) (SGG) (PIG) (PIG)
                 (SGG) (SGU) (SGU) (DLTG) (DLTG) (PHIU) (PHIU)
                 (DLTU) (DLTU) (SGG) (PHIG) (PHIG) (SGU) (SGG)
                 (PHIU) (PHIU) (PIU) (PIU) (PHIG) (PHIG) (DLTG)
                 (DLTG) (PIU) (PIU) (PIG) (PIG) (SGU) (DLTU) (DLTU)
                 (DLTG) (DLTG) (PIU) (PIU) (PIG) (PIG) (DLTG) (DLTG)
                 (DLTU) (DLTU) (DLTU) (DLTU) (SGG) (SGG) (DLTG)
                 (DLTG) (SGU) (PIU) (PIU) (PIG) (PIG) (PIG) (PIG)
                 (SGU) (DLTU) (DLTU) (SGG) (PIU) (PIU) (SGU) (SGG)
                 (PIG) (PIG) (PIG) (PIG) (PIU) (PIU) (SGU) (SGU)
                 (SGG) (SGG) (SGU)
 Keep R1 ints in memory in symmetry-blocked form, NReq=68802035.
 Requested convergence on RMS density matrix=1.00D-08 within 128 cycles.
 Requested convergence on MAX density matrix=1.00D-06.
 Requested convergence on             energy=1.00D-06.
 No special actions if energy rises.
 SCF Done:  E(RB3LYP) =  -153.549733269     A.U. after    6 cycles
            NFock=  6  Conv=0.95D-08     -V/T= 2.0039
 Calling FoFJK, ICntrl=      2127 FMM=F ISym2X=1 I1Cent= 0 IOpClX= 0 NMat=1 NMatS=1 NMatT=0.
 ***** Axes restored to original set *****
 -------------------------------------------------------------------
 Center     Atomic                   Forces (Hartrees/Bohr)
 Number     Number              X              Y              Z
 -------------------------------------------------------------------
      1        6           0.000000000    0.000000000    0.000009304
      2        6           0.000000000    0.000000000   -0.000009304
      3        6          -0.000000000   -0.000000000   -0.000001126
      4        6          -0.000000000   -0.000000000    0.000001126
      5        1          -0.000000000   -0.000000000    0.000002940
      6        1          -0.000000000   -0.000000000   -0.000002940
 -------------------------------------------------------------------
 Cartesian Forces:  Max     0.000009304 RMS     0.000003274

 GradGradGradGradGradGradGradGradGradGradGradGradGradGradGradGradGradGrad
 Berny optimization.
 Using GEDIIS/GDIIS optimizer.
 FormGI is forming the generalized inverse of G from B-inverse, IUseBI=4.
 Internal  Forces:  Max     0.000011118 RMS     0.000003368
 Search for a local minimum.
 Step number   3 out of a maximum of   23
 All quantities printed in internal units (Hartrees-Bohrs-Radians)
 Mixed Optimization -- En-DIIS/RFO-DIIS
 Swapping is turned off.
 Update second derivatives using D2CorX and points    1    3
 DE= -3.01D-07 DEPred=-2.96D-07 R= 1.02D+00
 Trust test= 1.02D+00 RLast= 1.10D-03 DXMaxT set to 3.00D-01
 The second derivative matrix:
                          R1        R2        R3        R4        R5
           R1           0.49531
           R2           0.04724   1.02375
           R3           0.04724   0.00837   1.02375
           R4           0.00310   0.00174   0.00174   0.38297
           R5           0.00310   0.00174   0.00174   0.00021   0.38297
           A1           0.00000   0.00000   0.00000   0.00000   0.00000
           A2          -0.00000   0.00000   0.00000   0.00000   0.00000
           A3          -0.00000   0.00000   0.00000   0.00000   0.00000
           A4          -0.00000   0.00000   0.00000   0.00000   0.00000
           A5           0.00000  -0.00000  -0.00000  -0.00000  -0.00000
           A6           0.00000  -0.00000  -0.00000  -0.00000  -0.00000
           A7          -0.00000   0.00000   0.00000   0.00000   0.00000
           A8          -0.00000   0.00000   0.00000   0.00000   0.00000
                          A1        A2        A3        A4        A5
           A1           0.04646
           A2           0.00000   0.04646
           A3          -0.00000  -0.00000   0.00607
           A4          -0.00000  -0.00000  -0.00000   0.00607
           A5          -0.00000  -0.00000   0.00000   0.00000   0.04646
           A6          -0.00000  -0.00000   0.00000   0.00000   0.00000
           A7          -0.00000  -0.00000  -0.00000  -0.00000   0.00000
           A8          -0.00000  -0.00000  -0.00000  -0.00000   0.00000
                          A6        A7        A8
           A6           0.04646
           A7           0.00000   0.00607
           A8           0.00000  -0.00000   0.00607
 ITU=  0  1  0
     Eigenvalues ---    0.00607   0.00607   0.00607   0.00607   0.04646
     Eigenvalues ---    0.04646   0.04646   0.04646   0.38276   0.38300
     Eigenvalues ---    0.48727   1.01539   1.04033
 En-DIIS/RFO-DIIS/Sim-DIIS IScMMF=       -3 using points:     3    2
 RFO step:  Lambda=-2.69211945D-10.
 DidBck=F Rises=F RFO-DIIS coefs:    1.02001   -0.02001
 Iteration  1 RMS(Cart)=  0.00001009 RMS(Int)=  0.00000000
 Iteration  2 RMS(Cart)=  0.00000000 RMS(Int)=  0.00000000
 ClnCor:  largest displacement from symmetrization is 3.51D-11 for atom     4.
 Variable       Old X    -DE/DX   Delta X   Delta X   Delta X     New X
                                 (Linear)    (Quad)   (Total)
    R1        2.57707   0.00001   0.00002   0.00000   0.00002   2.57709
    R2        2.27564   0.00000  -0.00000   0.00000   0.00000   2.27564
    R3        2.27564   0.00000  -0.00000   0.00000   0.00000   2.27564
    R4        2.00579   0.00000   0.00000   0.00001   0.00001   2.00580
    R5        2.00579   0.00000   0.00000   0.00001   0.00001   2.00580
    A1        3.14159  -0.00000   0.00000  -0.00000   0.00000   3.14159
    A2        3.14159   0.00000   0.00000   0.00000   0.00000   3.14159
    A3        3.14159  -0.00000   0.00000  -0.00000   0.00000   3.14159
    A4        3.14159   0.00000   0.00000  -0.00000   0.00000   3.14159
    A5        3.14159   0.00000   0.00000   0.00000   0.00000   3.14159
    A6        3.14159  -0.00000   0.00000  -0.00000   0.00000   3.14159
    A7        3.14159   0.00000   0.00000  -0.00000   0.00000   3.14159
    A8        3.14159  -0.00000   0.00000  -0.00000   0.00000   3.14159
         Item               Value     Threshold  Converged?
 Maximum Force            0.000011     0.000450     YES
 RMS     Force            0.000003     0.000300     YES
 Maximum Displacement     0.000020     0.001800     YES
 RMS     Displacement     0.000010     0.001200     YES
 Predicted change in Energy=-1.467538D-10
 Optimization completed.
    -- Stationary point found.
                           ----------------------------
                           !   Optimized Parameters   !
                           ! (Angstroms and Degrees)  !
 --------------------------                            --------------------------
 ! Name  Definition              Value          Derivative Info.                !
 --------------------------------------------------------------------------------
 ! R1    R(1,2)                  1.3637         -DE/DX =    0.0                 !
 ! R2    R(1,3)                  1.2042         -DE/DX =    0.0                 !
 ! R3    R(2,4)                  1.2042         -DE/DX =    0.0                 !
 ! R4    R(3,5)                  1.0614         -DE/DX =    0.0                 !
 ! R5    R(4,6)                  1.0614         -DE/DX =    0.0                 !
 ! A1    L(2,1,3,-1,-1)        180.0            -DE/DX =    0.0                 !
 ! A2    L(1,2,4,-1,-1)        180.0            -DE/DX =    0.0                 !
 ! A3    L(1,3,5,-1,-1)        180.0            -DE/DX =    0.0                 !
 ! A4    L(2,4,6,-1,-1)        180.0            -DE/DX =    0.0                 !
 ! A5    L(2,1,3,-2,-2)        180.0            -DE/DX =    0.0                 !
 ! A6    L(1,2,4,-2,-2)        180.0            -DE/DX =    0.0                 !
 ! A7    L(1,3,5,-2,-2)        180.0            -DE/DX =    0.0                 !
 ! A8    L(2,4,6,-2,-2)        180.0            -DE/DX =    0.0                 !
 --------------------------------------------------------------------------------
 GradGradGradGradGradGradGradGradGradGradGradGradGradGradGradGradGradGrad

                          Input orientation:                          
 ---------------------------------------------------------------------
 Center     Atomic      Atomic             Coordinates (Angstroms)
 Number     Number       Type             X           Y           Z
 ---------------------------------------------------------------------
      1          6           0        0.000000    0.000000    0.681864
      2          6           0        0.000000    0.000000   -0.681864
      3          6           0        0.000000    0.000000    1.886080
      4          6           0        0.000000    0.000000   -1.886080
      5          1           0        0.000000    0.000000    2.947499
      6          1           0        0.000000    0.000000   -2.947499
 ---------------------------------------------------------------------
                    Distance matrix (angstroms):
                    1          2          3          4          5
     1  C    0.000000
     2  C    1.363728   0.000000
     3  C    1.204216   2.567944   0.000000
     4  C    2.567944   1.204216   3.772160   0.000000
     5  H    2.265635   3.629363   1.061419   4.833579   0.000000
     6  H    3.629363   2.265635   4.833579   1.061419   5.894998
                    6
     6  H    0.000000
 Stoichiometry    C4H2
 Framework group  D*H[C*(HCC.CCH)]
 Deg. of freedom     3
 Full point group                 D*H     NOp   8
 Largest Abelian subgroup         D2H     NOp   8
 Largest concise Abelian subgroup C2      NOp   2
                         Standard orientation:                         
 ---------------------------------------------------------------------
 Center     Atomic      Atomic             Coordinates (Angstroms)
 Number     Number       Type             X           Y           Z
 ---------------------------------------------------------------------
      1          6           0        0.000000    0.000000    0.681864
      2          6           0        0.000000    0.000000   -0.681864
      3          6           0        0.000000    0.000000    1.886080
      4          6           0        0.000000    0.000000   -1.886080
      5          1           0        0.000000    0.000000    2.947499
      6          1           0        0.000000    0.000000   -2.947499
 ---------------------------------------------------------------------
 Rotational constants (GHZ):           0.0000000           4.4313951           4.4313951

 **********************************************************************

            Population analysis using the SCF Density.

 **********************************************************************

 Orbital symmetries:
       Occupied  (SGG) (SGU) (SGG) (SGU) (SGG) (SGU) (SGG) (SGU)
                 (SGG) (PIU) (PIU) (PIG) (PIG)
       Virtual   (PIU) (PIU) (SGG) (SGU) (SGG) (PIG) (PIG) (SGU)
                 (PIU) (PIU) (SGU) (SGG) (PIG) (PIG) (SGU) (PIU)
                 (PIU) (SGG) (PIG) (PIG) (SGU) (SGG) (SGU) (SGG)
                 (SGU) (SGG) (DLTG) (DLTG) (PIU) (PIU) (DLTU) (DLTU)
                 (PIG) (PIG) (SGU) (SGG) (DLTG) (DLTG) (PIU) (PIU)
                 (PIU) (PIU) (SGU) (PIG) (PIG) (PIU) (PIU) (DLTU)
                 (DLTU) (SGG) (PIG) (PIG) (SGU) (SGG) (PIG) (PIG)
                 (SGU) (SGG) (SGU) (PIU) (PIU) (SGG) (PIG) (PIG)
                 (SGG) (SGU) (SGU) (DLTG) (DLTG) (PHIU) (PHIU)
                 (DLTU) (DLTU) (SGG) (PHIG) (PHIG) (SGU) (SGG)
                 (PHIU) (PHIU) (PIU) (PIU) (PHIG) (PHIG) (DLTG)
                 (DLTG) (PIU) (PIU) (PIG) (PIG) (SGU) (DLTU) (DLTU)
                 (DLTG) (DLTG) (PIU) (PIU) (PIG) (PIG) (DLTG) (DLTG)
                 (DLTU) (DLTU) (DLTU) (DLTU) (SGG) (SGG) (DLTG)
                 (DLTG) (SGU) (PIU) (PIU) (PIG) (PIG) (PIG) (PIG)
                 (SGU) (DLTU) (DLTU) (SGG) (PIU) (PIU) (SGU) (SGG)
                 (PIG) (PIG) (PIG) (PIG) (PIU) (PIU) (SGU) (SGU)
                 (SGG) (SGG) (SGU)
 The electronic state is 1-SGG.
 Alpha  occ. eigenvalues --  -10.20679 -10.20611 -10.19771 -10.19770  -0.81236
 Alpha  occ. eigenvalues --   -0.75582  -0.64114  -0.54746  -0.52600  -0.36775
 Alpha  occ. eigenvalues --   -0.36775  -0.27494  -0.27494
 Alpha virt. eigenvalues --   -0.04070  -0.04070   0.03345   0.03458   0.08320
 Alpha virt. eigenvalues --    0.10556   0.10556   0.10696   0.15592   0.15592
 Alpha virt. eigenvalues --    0.20472   0.21490   0.23267   0.23267   0.27581
 Alpha virt. eigenvalues --    0.27782   0.27782   0.30205   0.36692   0.36692
 Alpha virt. eigenvalues --    0.41162   0.48356   0.50921   0.58507   0.69288
 Alpha virt. eigenvalues --    0.74498   0.74968   0.74968   0.76639   0.76639
 Alpha virt. eigenvalues --    0.85693   0.85693   0.90647   0.90647   0.92835
 Alpha virt. eigenvalues --    1.06871   1.08229   1.08229   1.14375   1.14375
 Alpha virt. eigenvalues --    1.24478   1.24478   1.26950   1.27148   1.27148
 Alpha virt. eigenvalues --    1.30455   1.30455   1.34489   1.34489   1.34876
 Alpha virt. eigenvalues --    1.41394   1.41394   1.46813   1.57462   1.59529
 Alpha virt. eigenvalues --    1.59529   1.65636   1.73860   1.91020   1.92140
 Alpha virt. eigenvalues --    1.92140   1.98357   2.47253   2.47253   2.50612
 Alpha virt. eigenvalues --    2.59877   2.66576   2.83294   2.83294   3.10563
 Alpha virt. eigenvalues --    3.10563   3.15462   3.15462   3.20889   3.21317
 Alpha virt. eigenvalues --    3.21317   3.37053   3.47933   3.49252   3.49252
 Alpha virt. eigenvalues --    3.55984   3.55984   3.63107   3.63107   3.65405
 Alpha virt. eigenvalues --    3.65405   3.75222   3.75222   3.84257   3.84257
 Alpha virt. eigenvalues --    3.87714   3.89562   3.89562   3.89719   3.89719
 Alpha virt. eigenvalues --    3.90844   3.90844   4.00289   4.00289   4.03820
 Alpha virt. eigenvalues --    4.03820   4.03946   4.03946   4.17530   4.17530
 Alpha virt. eigenvalues --    4.28329   4.44351   4.48314   4.48314   4.49292
 Alpha virt. eigenvalues --    4.52808   4.52808   4.66462   4.66462   4.74278
 Alpha virt. eigenvalues --    4.74278   4.82549   4.89220   4.89220   5.13409
 Alpha virt. eigenvalues --    5.17755   5.17755   5.26958   5.68546   5.70017
 Alpha virt. eigenvalues --    5.70017   5.89985   5.89985   5.91362   5.91362
 Alpha virt. eigenvalues --    6.06281   6.66427   7.29484   8.10681  10.84858
          Condensed to atoms (all electrons):
               1          2          3          4          5          6
     1  C    4.891947   0.450343   0.829159  -0.134599  -0.071692  -0.001313
     2  C    0.450343   4.891947  -0.134599   0.829159  -0.001313  -0.071692
     3  C    0.829159  -0.134599   4.971432  -0.043033   0.481630  -0.001210
     4  C   -0.134599   0.829159  -0.043033   4.971432  -0.001210   0.481630
     5  H   -0.071692  -0.001313   0.481630  -0.001210   0.525382  -0.000024
     6  H   -0.001313  -0.071692  -0.001210   0.481630  -0.000024   0.525382
 Mulliken charges:
               1
     1  C    0.036155
     2  C    0.036155
     3  C   -0.103381
     4  C   -0.103381
     5  H    0.067226
     6  H    0.067226
 Sum of Mulliken charges =  -0.00000
 Mulliken charges with hydrogens summed into heavy atoms:
               1
     1  C    0.036155
     2  C    0.036155
     3  C   -0.036155
     4  C   -0.036155
 Electronic spatial extent (au):  <R**2>=            280.4392
 Charge=              0.0000 electrons
 Dipole moment (field-independent basis, Debye):
    X=              0.0000    Y=              0.0000    Z=             -0.0000  Tot=              0.0000
 Quadrupole moment (field-independent basis, Debye-Ang):
   XX=            -24.8054   YY=            -24.8054   ZZ=            -12.2960
   XY=             -0.0000   XZ=             -0.0000   YZ=              0.0000
 Traceless Quadrupole moment (field-independent basis, Debye-Ang):
   XX=             -4.1698   YY=             -4.1698   ZZ=              8.3396
   XY=             -0.0000   XZ=             -0.0000   YZ=              0.0000
 Octapole moment (field-independent basis, Debye-Ang**2):
  XXX=             -0.0000  YYY=             -0.0000  ZZZ=              0.0000  XYY=             -0.0000
  XXY=              0.0000  XXZ=              0.0000  XZZ=              0.0000  YZZ=             -0.0000
  YYZ=              0.0000  XYZ=              0.0000
 Hexadecapole moment (field-independent basis, Debye-Ang**3):
 XXXX=            -30.2935 YYYY=            -30.2935 ZZZZ=           -211.3570 XXXY=             -0.0000
 XXXZ=              0.0000 YYYX=             -0.0000 YYYZ=              0.0000 ZZZX=              0.0000
 ZZZY=              0.0000 XXYY=            -10.0978 XXZZ=            -69.6896 YYZZ=            -69.6896
 XXYZ=              0.0000 YYXZ=              0.0000 ZZXY=             -0.0000
 N-N= 7.743478924583D+01 E-N=-5.111570091368D+02  KE= 1.529504831040D+02
 Symmetry AG   KE= 7.361101045608D+01
 Symmetry B1G  KE= 4.140551506817D-33
 Symmetry B2G  KE= 2.398142372436D+00
 Symmetry B3G  KE= 2.398142372436D+00
 Symmetry AU   KE= 5.688019913927D-33
 Symmetry B1U  KE= 7.016689220598D+01
 Symmetry B2U  KE= 2.188147848535D+00
 Symmetry B3U  KE= 2.188147848535D+00
 1\1\GINC-GAMBA\FOpt\RB3LYP\Gen\C4H2\IRIKURA\15-Jun-2022\0\\# b3lyp/gen
  opt freq\\diacetylene, B3LYP/pcseg-2\\0,1\C,0.,0.,0.6818637675\C,0.,0
 .,-0.6818637675\C,0.,0.,1.8860799423\C,0.,0.,-1.8860799423\H,0.,0.,2.9
 474991777\H,0.,0.,-2.9474991777\\Version=ES64L-G16RevB.01\State=1-SGG\
 HF=-153.5497333\RMSD=9.547e-09\RMSF=3.274e-06\Dipole=0.,0.,0.\Quadrupo
 le=-3.1001507,-3.1001507,6.2003014,0.,0.,0.\PG=D*H [C*(H1C1C1.C1C1H1)]
 \\@


 TERRY FORSTER, PORTLY ATLANTA BRAVES RELIEVER,
 ANNOUNCING THAT HE WAS GOING TO A FAT FARM:
 "A WAIST IS A TERRIBLE THING TO MIND."
 Job cpu time:       0 days  0 hours  1 minutes 27.7 seconds.
 Elapsed time:       0 days  0 hours  0 minutes 11.1 seconds.
 File lengths (MBytes):  RWF=     15 Int=      0 D2E=      0 Chk=      3 Scr=      1
 Normal termination of Gaussian 16 at Wed Jun 15 11:45:19 2022.
 Link1:  Proceeding to internal job step number  2.
 ------------------------------------------------------------------
 #N Geom=AllCheck Guess=TCheck SCRF=Check GenChk RB3LYP/ChkBas Freq
 ------------------------------------------------------------------
 1/10=4,29=7,30=1,38=1,40=1/1,3;
 2/12=2,40=1/2;
 3/5=7,6=2,11=2,14=-4,25=1,30=1,67=1,70=2,71=2,74=-5,82=7,116=1,140=1/1,2,3;
 4/5=101/1;
 5/5=2,38=6,98=1/2;
 8/6=4,10=90,11=11/1;
 11/6=1,8=1,9=11,15=111,16=1/1,2,10;
 10/6=1/2;
 6/7=2,8=2,9=2,10=2,28=1/1;
 7/8=1,10=1,25=1/1,2,3,16;
 1/10=4,30=1/3;
 99//99;
 Structure from the checkpoint file:  "/wrk/irikura/Gau-16986.chk"
 --------------------------
 diacetylene, B3LYP/pcseg-2
 --------------------------
 Charge =  0 Multiplicity = 1
 Redundant internal coordinates found in file.  (old form).
 C,0,0.,0.,0.6818637675
 C,0,0.,0.,-0.6818637675
 C,0,0.,0.,1.8860799423
 C,0,0.,0.,-1.8860799423
 H,0,0.,0.,2.9474991777
 H,0,0.,0.,-2.9474991777
 Recover connectivity data from disk.

 GradGradGradGradGradGradGradGradGradGradGradGradGradGradGradGradGradGrad
 Berny optimization.
 Initialization pass.
                           ----------------------------
                           !    Initial Parameters    !
                           ! (Angstroms and Degrees)  !
 --------------------------                            --------------------------
 ! Name  Definition              Value          Derivative Info.                !
 --------------------------------------------------------------------------------
 ! R1    R(1,2)                  1.3637         calculate D2E/DX2 analytically  !
 ! R2    R(1,3)                  1.2042         calculate D2E/DX2 analytically  !
 ! R3    R(2,4)                  1.2042         calculate D2E/DX2 analytically  !
 ! R4    R(3,5)                  1.0614         calculate D2E/DX2 analytically  !
 ! R5    R(4,6)                  1.0614         calculate D2E/DX2 analytically  !
 ! A1    L(2,1,3,-1,-1)        180.0            calculate D2E/DX2 analytically  !
 ! A2    L(1,2,4,-1,-1)        180.0            calculate D2E/DX2 analytically  !
 ! A3    L(1,3,5,-1,-1)        180.0            calculate D2E/DX2 analytically  !
 ! A4    L(2,4,6,-1,-1)        180.0            calculate D2E/DX2 analytically  !
 ! A5    L(2,1,3,-2,-2)        180.0            calculate D2E/DX2 analytically  !
 ! A6    L(1,2,4,-2,-2)        180.0            calculate D2E/DX2 analytically  !
 ! A7    L(1,3,5,-2,-2)        180.0            calculate D2E/DX2 analytically  !
 ! A8    L(2,4,6,-2,-2)        180.0            calculate D2E/DX2 analytically  !
 --------------------------------------------------------------------------------
 Trust Radius=3.00D-01 FncErr=1.00D-07 GrdErr=1.00D-07 EigMax=2.50D+02 EigMin=1.00D-04
 Number of steps in this run=      2 maximum allowed number of steps=      2.
 GradGradGradGradGradGradGradGradGradGradGradGradGradGradGradGradGradGrad

                          Input orientation:                          
 ---------------------------------------------------------------------
 Center     Atomic      Atomic             Coordinates (Angstroms)
 Number     Number       Type             X           Y           Z
 ---------------------------------------------------------------------
      1          6           0        0.000000    0.000000    0.681864
      2          6           0        0.000000    0.000000   -0.681864
      3          6           0        0.000000    0.000000    1.886080
      4          6           0        0.000000    0.000000   -1.886080
      5          1           0        0.000000    0.000000    2.947499
      6          1           0        0.000000    0.000000   -2.947499
 ---------------------------------------------------------------------
                    Distance matrix (angstroms):
                    1          2          3          4          5
     1  C    0.000000
[...]
  YYZ=             -0.0000  XYZ=              0.0000
 Hexadecapole moment (field-independent basis, Debye-Ang**3):
 XXXX=            -30.2935 YYYY=            -30.2935 ZZZZ=           -211.3570 XXXY=             -0.0000
 XXXZ=              0.0000 YYYX=             -0.0000 YYYZ=              0.0000 ZZZX=              0.0000
 ZZZY=              0.0000 XXYY=            -10.0978 XXZZ=            -69.6896 YYZZ=            -69.6896
 XXYZ=              0.0000 YYXZ=              0.0000 ZZXY=             -0.0000
 N-N= 7.743478924583D+01 E-N=-5.111570080833D+02  KE= 1.529504827231D+02
 Symmetry AG   KE= 7.361101036011D+01
 Symmetry B1G  KE= 4.140551435340D-33
 Symmetry B2G  KE= 2.398142332942D+00
 Symmetry B3G  KE= 2.398142332942D+00
 Symmetry AU   KE= 5.688019810478D-33
 Symmetry B1U  KE= 7.016689210659D+01
 Symmetry B2U  KE= 2.188147795235D+00
 Symmetry B3U  KE= 2.188147795235D+00
  Exact polarizability:  23.032  -0.000  23.032  -0.000   0.000  87.820
 Approx polarizability:  29.908  -0.000  29.908  -0.000  -0.000 177.921
 Calling FoFJK, ICntrl=    100127 FMM=F ISym2X=1 I1Cent= 0 IOpClX= 0 NMat=1 NMatS=1 NMatT=0.
 Full mass-weighted force constant matrix:
 Low frequencies ---   -2.2443   -2.2443    0.0006    0.0007    0.0008  237.8180
 Low frequencies ---  237.8180  530.7474  530.7474
 Diagonal vibrational polarizability:
        9.8507271       9.8507271       0.4503438
 Harmonic frequencies (cm**-1), IR intensities (KM/Mole), Raman scattering
 activities (A**4/AMU), depolarization ratios for plane and unpolarized
 incident light, reduced masses (AMU), force constants (mDyne/A),
 and normal coordinates:
                      1                      2                      3
                     PIU                    PIU                    PIG
 Frequencies --    237.8180               237.8180               530.7474
 Red. masses --      3.7795                 3.7795                 7.7911
 Frc consts  --      0.1259                 0.1259                 1.2931
 IR Inten    --      8.6126                 8.6126                 0.0000
  Atom  AN      X      Y      Z        X      Y      Z        X      Y      Z
     1   6     0.00   0.28   0.00     0.28  -0.00  -0.00     0.00   0.54   0.00
     2   6     0.00   0.28  -0.00     0.28  -0.00  -0.00    -0.00  -0.54   0.00
     3   6    -0.00  -0.22   0.00    -0.22   0.00   0.00    -0.00  -0.14  -0.00
     4   6    -0.00  -0.22  -0.00    -0.22   0.00   0.00     0.00   0.14  -0.00
     5   1    -0.00  -0.61   0.00    -0.61   0.00  -0.00    -0.00  -0.44  -0.00
     6   1    -0.00  -0.61  -0.00    -0.61   0.00  -0.00     0.00   0.44  -0.00
                      4                      5                      6
                     PIG                    PIG                    PIG
 Frequencies --    530.7474               663.5045               663.5045
 Red. masses --      7.7911                 1.2382                 1.2382
 Frc consts  --      1.2931                 0.3212                 0.3212
 IR Inten    --      0.0000                 0.0000                 0.0000
  Atom  AN      X      Y      Z        X      Y      Z        X      Y      Z
     1   6     0.54  -0.00  -0.00    -0.00   0.02   0.00     0.02   0.00   0.00
     2   6    -0.54   0.00   0.00     0.00  -0.02   0.00    -0.02  -0.00  -0.00
     3   6    -0.14   0.00  -0.00     0.00  -0.10   0.00    -0.10  -0.00   0.00
     4   6     0.14  -0.00   0.00    -0.00   0.10   0.00     0.10   0.00  -0.00
     5   1    -0.44   0.00  -0.00    -0.00   0.70  -0.00     0.70   0.00   0.00
     6   1     0.44  -0.00   0.00     0.00  -0.70  -0.00    -0.70  -0.00  -0.00
                      7                      8                      9
                     PIU                    PIU                    SGG
 Frequencies --    668.6714               668.6714               916.4441
 Red. masses --      1.2914                 1.2914                 6.9993
 Frc consts  --      0.3402                 0.3402                 3.4635
 IR Inten    --     95.5789                95.5789                 0.0000
  Atom  AN      X      Y      Z        X      Y      Z        X      Y      Z
     1   6     0.05   0.00   0.00    -0.00   0.05  -0.00     0.00   0.00   0.29
     2   6     0.05   0.00   0.00    -0.00   0.05   0.00    -0.00   0.00  -0.29
     3   6    -0.10  -0.00  -0.00     0.00  -0.10  -0.00     0.00  -0.00   0.44
     4   6    -0.10  -0.00  -0.00     0.00  -0.10   0.00    -0.00  -0.00  -0.44
     5   1     0.70   0.00   0.00    -0.00   0.70  -0.00    -0.00   0.00   0.48
     6   1     0.70   0.00   0.00    -0.00   0.70   0.00     0.00   0.00  -0.48
                     10                     11                     12
                     SGU                    SGG                    SGG
 Frequencies --   2110.6115              2277.9899              3470.2284
 Red. masses --      5.7413                 6.7265                 1.1529
 Frc consts  --     15.0688                20.5657                 8.1802
 IR Inten    --      5.2274                 0.0000                 0.0000
  Atom  AN      X      Y      Z        X      Y      Z        X      Y      Z
     1   6    -0.00  -0.00   0.35    -0.00   0.00   0.45    -0.00   0.00   0.02
     2   6    -0.00   0.00   0.35     0.00   0.00  -0.45     0.00   0.00  -0.02
     3   6     0.00   0.00  -0.30    -0.00   0.00  -0.25     0.00  -0.00  -0.08
     4   6     0.00  -0.00  -0.30     0.00   0.00   0.25    -0.00  -0.00   0.08
     5   1    -0.00  -0.00  -0.53     0.00  -0.00  -0.49    -0.00  -0.00   0.70
     6   1    -0.00   0.00  -0.53    -0.00  -0.00   0.49     0.00  -0.00  -0.70
                     13
                     SGU
 Frequencies --   3472.3766
 Red. masses --      1.1564
 Frc consts  --      8.2150
 IR Inten    --    187.6248
  Atom  AN      X      Y      Z
     1   6     0.00   0.00   0.02
     2   6     0.00  -0.00   0.02
     3   6     0.00  -0.00  -0.08
     4   6     0.00   0.00  -0.08
     5   1    -0.00   0.00   0.70
     6   1    -0.00  -0.00   0.70

 -------------------
 - Thermochemistry -
 -------------------
 Temperature   298.150 Kelvin.  Pressure   1.00000 Atm.
 Atom     1 has atomic number  6 and mass  12.00000
 Atom     2 has atomic number  6 and mass  12.00000
 Atom     3 has atomic number  6 and mass  12.00000
 Atom     4 has atomic number  6 and mass  12.00000
 Atom     5 has atomic number  1 and mass   1.00783
 Atom     6 has atomic number  1 and mass   1.00783
 Molecular mass:    50.01565 amu.
 Principal axes and moments of inertia in atomic units:
                           1         2         3
     Eigenvalues --     0.00000 407.26253 407.26253
           X           -0.00000   1.00000  -0.00000
           Y            0.00000   0.00000   1.00000
           Z            1.00000   0.00000  -0.00000
 This molecule is a prolate symmetric top.
 Rotational symmetry number  2.
 Rotational temperature (Kelvin)      0.21267
 Rotational constant (GHZ):           4.431395
 Zero-point vibrational energy      98387.7 (Joules/Mol)
                                   23.51522 (Kcal/Mol)
 Warning -- explicit consideration of   4 degrees of freedom as
           vibrations may cause significant error
 Vibrational temperatures:    342.17   342.17   763.63   763.63   954.63
          (Kelvin)            954.63   962.07   962.07  1318.56  3036.70
                             3277.52  4992.88  4995.98
 
 Zero-point correction=                           0.037474 (Hartree/Particle)
 Thermal correction to Energy=                    0.041806
 Thermal correction to Enthalpy=                  0.042750
 Thermal correction to Gibbs Free Energy=         0.014718
 Sum of electronic and zero-point Energies=           -153.512259
 Sum of electronic and thermal Energies=              -153.507927
 Sum of electronic and thermal Enthalpies=            -153.506983
 Sum of electronic and thermal Free Energies=         -153.535015
 
                     E (Thermal)             CV                S
                      KCal/Mol        Cal/Mol-Kelvin    Cal/Mol-Kelvin
 Total                   26.234             14.969             58.998
 Electronic               0.000              0.000              0.000
 Translational            0.889              2.981             37.653
 Rotational               0.592              1.987             15.008
 Vibrational             24.753             10.001              6.337
 Vibration     1          0.656              1.783              1.819
 Vibration     2          0.656              1.783              1.819
 Vibration     3          0.886              1.182              0.586
 Vibration     4          0.886              1.182              0.586
                       Q            Log10(Q)             Ln(Q)
 Total Bot       0.169823D-06         -6.770004        -15.588511
 Total V=0       0.292934D+11         10.466770         24.100628
 Vib (Bot)       0.174257D-16        -16.758809        -38.588583
 Vib (Bot)    1  0.825315D+00         -0.083380         -0.191990
 Vib (Bot)    2  0.825315D+00         -0.083380         -0.191990
 Vib (Bot)    3  0.301118D+00         -0.521264         -1.200255
 Vib (Bot)    4  0.301118D+00         -0.521264         -1.200255
 Vib (V=0)       0.300584D+01          0.477965          1.100556
 Vib (V=0)    1  0.146496D+01          0.165825          0.381827
 Vib (V=0)    2  0.146496D+01          0.165825          0.381827
 Vib (V=0)    3  0.108367D+01          0.034897          0.080354
 Vib (V=0)    4  0.108367D+01          0.034897          0.080354
 Electronic      0.100000D+01          0.000000          0.000000
 Translational   0.139031D+08          7.143113         16.447625
 Rotational      0.700957D+03          2.845692          6.552447
 ***** Axes restored to original set *****
 -------------------------------------------------------------------
 Center     Atomic                   Forces (Hartrees/Bohr)
 Number     Number              X              Y              Z
 -------------------------------------------------------------------
      1        6           0.000000000   -0.000000000    0.000009321
      2        6           0.000000000    0.000000000   -0.000009321
      3        6           0.000000000    0.000000000   -0.000001146
      4        6          -0.000000000   -0.000000000    0.000001146
      5        1           0.000000000    0.000000000    0.000002933
      6        1          -0.000000000   -0.000000000   -0.000002933
 -------------------------------------------------------------------
 Cartesian Forces:  Max     0.000009321 RMS     0.000003280
 FormGI is forming the generalized inverse of G from B-inverse, IUseBI=4.

 GradGradGradGradGradGradGradGradGradGradGradGradGradGradGradGradGradGrad
 Berny optimization.
 Internal  Forces:  Max     0.000011108 RMS     0.000003363
 Search for a local minimum.
 Step number   1 out of a maximum of    2
 All quantities printed in internal units (Hartrees-Bohrs-Radians)
 Second derivative matrix not updated -- analytic derivatives used.
 The second derivative matrix:
                          R1        R2        R3        R4        R5
           R1           0.48542
           R2           0.04437   1.06080
           R3           0.04437  -0.02185   1.06080
           R4          -0.00079  -0.00555  -0.00001   0.41244
           R5          -0.00079  -0.00001  -0.00555   0.00008   0.41244
           A1           0.00000   0.00000   0.00000  -0.00000  -0.00000
           A2          -0.00000  -0.00000  -0.00000   0.00000   0.00000
           A3           0.00000   0.00000   0.00000   0.00000  -0.00000
           A4          -0.00000  -0.00000  -0.00000   0.00000  -0.00000
           A5           0.00000   0.00000   0.00000   0.00000  -0.00000
           A6           0.00000   0.00000   0.00000  -0.00000   0.00000
           A7           0.00000   0.00000   0.00000   0.00000  -0.00000
           A8           0.00000   0.00000   0.00000  -0.00000   0.00000
                          A1        A2        A3        A4        A5
           A1           0.08839
           A2           0.00076   0.08839
           A3           0.02163   0.00310   0.05494
           A4           0.00310   0.02163   0.00104   0.05494
           A5          -0.00000   0.00000  -0.00000   0.00000   0.08839
           A6          -0.00000   0.00000  -0.00000   0.00000   0.00076
           A7           0.00000   0.00000   0.00000   0.00000   0.02163
           A8          -0.00000  -0.00000  -0.00000   0.00000   0.00310
                          A6        A7        A8
           A6           0.08839
           A7           0.00310   0.05494
           A8           0.02163   0.00104   0.05494
 ITU=  0
     Eigenvalues ---    0.04280   0.04280   0.04571   0.04571   0.09582
     Eigenvalues ---    0.09582   0.10233   0.10233   0.41231   0.41247
     Eigenvalues ---    0.47840   1.04603   1.08269
 Angle between quadratic step and forces=  10.10 degrees.
 Linear search not attempted -- first point.
 Iteration  1 RMS(Cart)=  0.00001001 RMS(Int)=  0.00000000
 Iteration  2 RMS(Cart)=  0.00000000 RMS(Int)=  0.00000000
 ClnCor:  largest displacement from symmetrization is 1.78D-13 for atom     1.
 Variable       Old X    -DE/DX   Delta X   Delta X   Delta X     New X
                                 (Linear)    (Quad)   (Total)
    R1        2.57707   0.00001   0.00000   0.00002   0.00002   2.57709
    R2        2.27564   0.00000   0.00000   0.00000   0.00000   2.27564
    R3        2.27564   0.00000   0.00000   0.00000   0.00000   2.27564
    R4        2.00579   0.00000   0.00000   0.00001   0.00001   2.00580
    R5        2.00579   0.00000   0.00000   0.00001   0.00001   2.00580
    A1        3.14159   0.00000   0.00000   0.00000   0.00000   3.14159
    A2        3.14159   0.00000   0.00000   0.00000   0.00000   3.14159
    A3        3.14159  -0.00000   0.00000  -0.00000   0.00000   3.14159
    A4        3.14159  -0.00000   0.00000  -0.00000   0.00000   3.14159
    A5        3.14159   0.00000   0.00000   0.00000   0.00000   3.14159
    A6        3.14159  -0.00000   0.00000  -0.00000   0.00000   3.14159
    A7        3.14159   0.00000   0.00000   0.00000   0.00000   3.14159
    A8        3.14159  -0.00000   0.00000   0.00000   0.00000   3.14159
         Item               Value     Threshold  Converged?
 Maximum Force            0.000011     0.000450     YES
 RMS     Force            0.000003     0.000300     YES
 Maximum Displacement     0.000019     0.001800     YES
 RMS     Displacement     0.000010     0.001200     YES
 Predicted change in Energy=-1.488555D-10
 Optimization completed.
    -- Stationary point found.
                           ----------------------------
                           !   Optimized Parameters   !
                           ! (Angstroms and Degrees)  !
 --------------------------                            --------------------------
 ! Name  Definition              Value          Derivative Info.                !
 --------------------------------------------------------------------------------
 ! R1    R(1,2)                  1.3637         -DE/DX =    0.0                 !
 ! R2    R(1,3)                  1.2042         -DE/DX =    0.0                 !
 ! R3    R(2,4)                  1.2042         -DE/DX =    0.0                 !
 ! R4    R(3,5)                  1.0614         -DE/DX =    0.0                 !
 ! R5    R(4,6)                  1.0614         -DE/DX =    0.0                 !
 ! A1    L(2,1,3,-1,-1)        180.0            -DE/DX =    0.0                 !
 ! A2    L(1,2,4,-1,-1)        180.0            -DE/DX =    0.0                 !
 ! A3    L(1,3,5,-1,-1)        180.0            -DE/DX =    0.0                 !
 ! A4    L(2,4,6,-1,-1)        180.0            -DE/DX =    0.0                 !
 ! A5    L(2,1,3,-2,-2)        180.0            -DE/DX =    0.0                 !
 ! A6    L(1,2,4,-2,-2)        180.0            -DE/DX =    0.0                 !
 ! A7    L(1,3,5,-2,-2)        180.0            -DE/DX =    0.0                 !
 ! A8    L(2,4,6,-2,-2)        180.0            -DE/DX =    0.0                 !
 --------------------------------------------------------------------------------
 GradGradGradGradGradGradGradGradGradGradGradGradGradGradGradGradGradGrad

 Dipole is zero, so no output in dipole orientation.

 ----------------------------------------------------------------------

 Electric dipole moment (input orientation):
 (Debye = 10**-18 statcoulomb cm , SI units = C m)
                  (au)            (Debye)         (10**-30 SI)
   Tot        0.000000D+00      0.000000D+00      0.000000D+00
   x          0.000000D+00      0.000000D+00      0.000000D+00
   y          0.000000D+00      0.000000D+00      0.000000D+00
   z          0.000000D+00      0.000000D+00      0.000000D+00

 Dipole polarizability, Alpha (input orientation).
 (esu units = cm**3 , SI units = C**2 m**2 J**-1)
 Alpha(0;0):
               (au)            (10**-24 esu)      (10**-40 SI)
   iso        0.446279D+02      0.661318D+01      0.735815D+01
   aniso      0.647881D+02      0.960061D+01      0.106821D+02
   xx         0.230319D+02      0.341297D+01      0.379745D+01
   yx         0.000000D+00      0.000000D+00      0.000000D+00
   yy         0.230319D+02      0.341297D+01      0.379745D+01
   zx         0.000000D+00      0.000000D+00      0.000000D+00
   zy         0.000000D+00      0.000000D+00      0.000000D+00
   zz         0.878200D+02      0.130136D+02      0.144796D+02

 ----------------------------------------------------------------------
 1\1\GINC-GAMBA\Freq\RB3LYP\Gen\C4H2\IRIKURA\15-Jun-2022\0\\#N Geom=All
 Check Guess=TCheck SCRF=Check GenChk RB3LYP/ChkBas Freq\\diacetylene, 
 B3LYP/pcseg-2\\0,1\C,0.,0.,0.6818637675\C,0.,0.,-0.6818637675\C,0.,0.,
 1.8860799423\C,0.,0.,-1.8860799423\H,0.,0.,2.9474991777\H,0.,0.,-2.947
 4991777\\Version=ES64L-G16RevB.01\State=1-SGG\HF=-153.5497333\RMSD=8.2
 68e-10\RMSF=3.280e-06\ZeroPoint=0.0374739\Thermal=0.0418062\Dipole=0.,
 0.,0.\DipoleDeriv=-0.0094839,0.,0.,0.,-0.0094839,0.,0.,0.,0.2290999,-0
 .0094839,0.,0.,0.,-0.0094839,0.,0.,0.,0.2290999,-0.2141189,0.,0.,0.,-0
 .2141189,0.,0.,0.,-0.5014241,-0.2141189,0.,0.,0.,-0.2141189,0.,0.,0.,-
 0.5014241,0.2236028,0.,0.,0.,0.2236028,0.,0.,0.,0.2723242,0.2236028,0.
 ,0.,0.,0.2236028,0.,0.,0.,0.2723242\Polar=23.0318886,0.,23.0318886,0.,
 0.,87.8200191\Quadrupole=-3.1001502,-3.1001502,6.2003004,0.,0.,0.\PG=D
 *H [C*(H1C1C1.C1C1H1)]\NImag=0\\0.06813702,0.,0.06813702,0.,0.,1.45748
 003,-0.04796498,0.,0.,0.06813702,0.,-0.04796498,0.,0.,0.06813702,0.,0.
 ,-0.37483091,0.,0.,1.45748003,-0.03282544,0.,0.,0.00490483,0.,0.,0.047
 57506,0.,-0.03282544,0.,0.,0.00490483,0.,0.,0.04757506,0.,0.,-1.021188
 65,0.,0.,-0.06699131,0.,0.,1.48432977,0.00490483,0.,0.,-0.03282544,0.,
 0.,0.00148941,0.,0.,0.04757506,0.,0.00490483,0.,0.,-0.03282544,0.,0.,0
 .00148941,0.,0.,0.04757506,0.,0.,-0.06699131,0.,0.,-1.02118865,0.,0.,0
 .02173187,0.,0.,1.48432977,0.00251697,0.,0.,0.00523161,0.,0.,-0.020953
 02,0.,0.,-0.00019084,0.,0.,0.01365394,0.,0.00251697,0.,0.,0.00523161,0
 .,0.,-0.02095302,0.,0.,-0.00019084,0.,0.,0.01365394,0.,0.,0.00475650,0
 .,0.,0.00077434,0.,0.,-0.41798055,0.,0.,0.00009887,0.,0.,0.41243529,0.
 00523161,0.,0.,0.00251697,0.,0.,-0.00019084,0.,0.,-0.02095302,0.,0.,-0
 .00025866,0.,0.,0.01365394,0.,0.00523161,0.,0.,0.00251697,0.,0.,-0.000
 19084,0.,0.,-0.02095302,0.,0.,-0.00025866,0.,0.,0.01365394,0.,0.,0.000
 77434,0.,0.,0.00475650,0.,0.,0.00009887,0.,0.,-0.41798055,0.,0.,-0.000
 08445,0.,0.,0.41243529\\0.,0.,-0.00000932,0.,0.,0.00000932,0.,0.,0.000
 00115,0.,0.,-0.00000115,0.,0.,-0.00000293,0.,0.,0.00000293\\\@


 IN THE WOODS WE RETURN TO REASON AND FAITH.

                                 -- EMERSON
 Job cpu time:       0 days  0 hours  2 minutes  7.3 seconds.
 Elapsed time:       0 days  0 hours  0 minutes 15.9 seconds.
 File lengths (MBytes):  RWF=     15 Int=      0 D2E=      0 Chk=      3 Scr=      1
 Normal termination of Gaussian 16 at Wed Jun 15 11:45:36 2022.
