 Entering Gaussian System, Link 0=g16
 AtFile(1): pcseg2.gbs
            -H     0
            S   4   1.00
                  0.754732D+02           0.427821D-02
                  0.113575D+02           0.328672D-01
                  0.260081D+01           0.159578D+00
                  0.735503D+00           0.500000D+00
            S   1   1.00
                  0.231761D+00           1.0000000
            S   1   1.00
                  0.741675D-01           1.0000000
            P   1   1.00
                  0.160000D+01           1.0000000
            P   1   1.00
                  0.450000D+00           1.0000000
            D   1   1.00
                  0.125000D+01           1.0000000
            ****
            -C     0
            S   7   1.00
                  0.731999D+04           0.695369D-03
                  0.109818D+04           0.537138D-02
                  0.250014D+03           0.274734D-01
                  0.707586D+02           0.105078D+00
                  0.228595D+02           0.291262D+00
                  0.803936D+01           0.500000D+00
                  0.289309D+01           0.362224D+00
            S   2   1.00
                  0.521640D+01          -0.957844D-01
                  0.556124D+00           0.500000D+00
            S   1   1.00
                  0.228813D+00           1.0000000
            S   1   1.00
                  0.936338D-01           1.0000000
            P   4   1.00
                  0.339855D+02           0.818395D-02
                  0.772957D+01           0.586921D-01
                  0.224954D+01           0.222514D+00
                  0.767681D+00           0.500000D+00
            P   1   1.00
                  0.263283D+00           1.0000000
            P   1   1.00
                  0.848744D-01           1.0000000
            D   1   1.00
                  0.140000D+01           1.0000000
            D   1   1.00
                  0.450000D+00           1.0000000
            F   1   1.00
                  0.950000D+00           1.0000000
            ****
            -O     0
            S   7   1.00
                  0.135887D+05           0.665492D-03
                  0.203847D+04           0.514222D-02
                  0.464041D+03           0.263472D-01
                  0.131339D+03           0.101500D+00
                  0.425340D+02           0.285877D+00
                  0.150429D+02           0.500000D+00
                  0.546616D+01           0.368211D+00
            S   2   1.00
                  0.100915D+02          -0.100084D+00
                  0.110429D+01           0.500000D+00
            S   1   1.00
                  0.448082D+00           1.0000000
            S   1   1.00
                  0.175325D+00           1.0000000
            P   4   1.00
                  0.608220D+02           0.908253D-02
                  0.140332D+02           0.645878D-01
                  0.418244D+01           0.241502D+00
                  0.142490D+01           0.500000D+00
            P   1   1.00
                  0.478741D+00           1.0000000
            P   1   1.00
                  0.146257D+00           1.0000000
            D   1   1.00
                  0.220000D+01           1.0000000
            D   1   1.00
                  0.650000D+00           1.0000000
            F   1   1.00
                  0.110000D+01           1.0000000
            ****
            -N     0
            S   7   1.00
                  0.101643D+05           0.682757D-03
                  0.152481D+04           0.527488D-02
                  0.347119D+03           0.270037D-01
                  0.982389D+02           0.103673D+00
                  0.317799D+02           0.289575D+00
                  0.112240D+02           0.500000D+00
                  0.406611D+01           0.364621D+00
            S   2   1.00
                  0.747898D+01          -0.975681D-01
                  0.805040D+00           0.500000D+00
            S   1   1.00
                  0.324626D+00           1.0000000
            S   1   1.00
                  0.128132D+00           1.0000000
            P   4   1.00
                  0.482704D+02           0.829547D-02
                  0.110815D+02           0.596223D-01
                  0.326643D+01           0.227889D+00
                  0.111680D+01           0.500000D+00
            P   1   1.00
                  0.382049D+00           1.0000000
            P   1   1.00
                  0.121222D+00           1.0000000
            D   1   1.00
                  0.180000D+01           1.0000000
            D   1   1.00
                  0.550000D+00           1.0000000
            F   1   1.00
                  0.102000D+01           1.0000000
            ****
            -F     0
            S   7   1.00
                  0.174507D+05           0.655972D-03
                  0.261768D+04           0.506944D-02
                  0.595857D+03           0.259899D-01
                  0.168651D+03           0.100353D+00
                  0.546654D+02           0.284095D+00
                  0.193717D+02           0.500000D+00
                  0.706202D+01           0.370721D+00
            S   2   1.00
                  0.131197D+02          -0.101997D+00
                  0.145046D+01           0.500000D+00
            S   1   1.00
                  0.588255D+00           1.0000000
            S   1   1.00
                  0.227960D+00           1.0000000
            P   4   1.00
                  0.779407D+02           0.931135D-02
                  0.180425D+02           0.663964D-01
                  0.542342D+01           0.246386D+00
                  0.184876D+01           0.500000D+00
            P   1   1.00
                  0.617455D+00           1.0000000
            P   1   1.00
                  0.185496D+00           1.0000000
            D   1   1.00
                  0.280000D+01           1.0000000
            D   1   1.00
                  0.800000D+00           1.0000000
            F   1   1.00
                  0.120000D+01           1.0000000
            ****
            -Cl     0
            S   8   1.00
                  0.154272D+06           0.222473D-03
                  0.231232D+05           0.172590D-02
                  0.526257D+04           0.899286D-02
                  0.148995D+04           0.367724D-01
                  0.485417D+03           0.121446D+00
                  0.174634D+03           0.304148D+00
                  0.672393D+02           0.500000D+00
                  0.265780D+02           0.360252D+00
            S   3   1.00
                  0.131826D+03          -0.531330D-01
                  0.400703D+02          -0.233346D+00
                  0.789448D+01           0.500000D+00
            S   2   1.00
                  0.427711D+01           0.500000D+00
                  0.196233D+01           0.370517D+00
            S   1   1.00
                  0.520793D+00           1.0000000
            S   1   1.00
                  0.181633D+00           1.0000000
            P   7   1.00
                  0.124440D+04           0.988206D-03
                  0.295109D+03           0.829674D-02
                  0.947224D+02           0.430906D-01
                  0.352588D+02           0.148443D+00
                  0.144211D+02           0.344744D+00
                  0.610371D+01           0.500000D+00
                  0.258886D+01           0.348278D+00
            P   2   1.00
                  0.109447D+02          -0.196768D-01
                  0.104413D+01           0.500000D+00
            P   1   1.00
                  0.376184D+00           1.0000000
            P   1   1.00
                  0.120613D+00           1.0000000
            D   1   1.00
                  0.231000D+01           1.0000000
            D   1   1.00
                  0.520000D+00           1.0000000
            F   1   1.00
                  0.720000D+00           1.0000000
            ****
            -S     0
            S   8   1.00
                  0.134700D+06           0.226231D-03
                  0.201904D+05           0.175488D-02
                  0.459528D+04           0.914190D-02
                  0.130109D+04           0.373551D-01
                  0.423902D+03           0.123121D+00
                  0.152485D+03           0.306801D+00
                  0.586925D+02           0.500000D+00
                  0.231461D+02           0.354358D+00
            S   3   1.00
                  0.116327D+03          -0.491772D-01
                  0.352841D+02          -0.215962D+00
                  0.677831D+01           0.500000D+00
            S   2   1.00
                  0.360404D+01           0.500000D+00
                  0.164871D+01           0.366278D+00
            S   1   1.00
                  0.421821D+00           1.0000000
            S   1   1.00
                  0.147554D+00           1.0000000
            P   7   1.00
                  0.104863D+04           0.105273D-02
                  0.248717D+03           0.879338D-02
                  0.797887D+02           0.453358D-01
                  0.296023D+02           0.154476D+00
                  0.120627D+02           0.352366D+00
                  0.507628D+01           0.500000D+00
                  0.213375D+01           0.346429D+00
            P   2   1.00
                  0.928958D+01          -0.185932D-01
                  0.837819D+00           0.500000D+00
            P   1   1.00
                  0.301495D+00           1.0000000
            P   1   1.00
                  0.974740D-01           1.0000000
            D   1   1.00
                  0.210000D+01           1.0000000
            D   1   1.00
                  0.480000D+00           1.0000000
            F   1   1.00
                  0.660000D+00           1.0000000
            ****
            -Br     0
            S    10   1.00
                  0.233625D+07           0.532336D-04
                  0.349961D+06           0.413715D-03
                  0.796444D+05           0.217123D-02
                  0.225555D+05           0.910109D-02
                  0.735546D+04           0.323789D-01
                  0.265352D+04           0.988755D-01
                  0.103517D+04           0.248138D+00
                  0.422205D+03           0.474328D+00
                  0.180035D+03           0.500000D+00
                  0.793308D+02           0.187769D+00
            S    4   1.00
                  0.620834D+03          -0.226511D-01
                  0.190829D+03          -0.109497D+00
                  0.312505D+02           0.500000D+00
                  0.135270D+02           0.492812D+00
            S    2   1.00
                  0.216097D+02          -0.165418D+00
                  0.372566D+01           0.500000D+00
            S    1   1.00
                  0.169770D+01           1.0000000
            S    1   1.00
                  0.489332D+00           1.0000000
            S    1   1.00
                  0.175712D+00           1.0000000
            P    8   1.00
                  0.960829D+04           0.478974D-03
                  0.227618D+04           0.417853D-02
                  0.736723D+03           0.229315D-01
                  0.281579D+03           0.892653D-01
                  0.118395D+03           0.255288D+00
                  0.527481D+02           0.479074D+00
                  0.245098D+02           0.500000D+00
                  0.112009D+02           0.200944D+00
            P    4   1.00
                  0.587849D+02          -0.189674D-01
                  0.918962D+01           0.264104D+00
                  0.413895D+01           0.500000D+00
                  0.184225D+01           0.319316D+00
            P    1   1.00
                  0.713862D+00           1.0000000
            P    1   1.00
                  0.274232D+00           1.0000000
            P    1   1.00
                  0.944411D-01           1.0000000
            D    7   1.00
                  0.398470D+03           0.204066D-02
                  0.118967D+03           0.175171D-01
                  0.450197D+02           0.829708D-01
                  0.190320D+02           0.236284D+00
                  0.855686D+01           0.428468D+00
                  0.382950D+01           0.500000D+00
                  0.166291D+01           0.349360D+00
            D    1   1.00
                  0.672953D+00           1.0000000
            D    1   1.00
                  0.252000D+00           1.0000000
            F    1   1.00
                  0.530000D+00           1.0000000
            ****
            -Si     0
            S    8   1.00
                  0.996133D+05           0.235546D-03
                  0.149311D+05           0.182707D-02
                  0.339820D+04           0.951425D-02
                  0.962140D+03           0.388172D-01
                  0.313430D+03           0.127328D+00
                  0.112683D+03           0.313522D+00
                  0.433372D+02           0.500000D+00
                  0.170029D+02           0.340347D+00
            S    3   1.00
                  0.884208D+02          -0.404451D-01
                  0.266756D+02          -0.178059D+00
                  0.479640D+01           0.500000D+00
            S    2   1.00
                  0.239385D+01           0.500000D+00
                  0.108333D+01           0.338016D+00
            S    1   1.00
                  0.252420D+00           1.0000000
            S    1   1.00
                  0.891210D-01           1.0000000
            P    7   1.00
                  0.709901D+03           0.123028D-02
                  0.168426D+03           0.101366D-01
                  0.539946D+02           0.511840D-01
                  0.198646D+02           0.169967D+00
                  0.801369D+01           0.370717D+00
                  0.331870D+01           0.500000D+00
                  0.136112D+01           0.344128D+00
            P    2   1.00
                  0.622158D+01          -0.166609D-01
                  0.503049D+00           0.500000D+00
            P    1   1.00
                  0.179848D+00           1.0000000
            P    1   1.00
                  0.591912D-01           1.0000000
            D    1   1.00
                  0.168000D+01           1.0000000
            D    1   1.00
                  0.380000D+00           1.0000000
            F    1   1.00
                  0.540000D+00           1.0000000
            ****
            -P     0
            S    8   1.00
                  0.116416D+06           0.230715D-03
                  0.174500D+05           0.178960D-02
                  0.397149D+04           0.932116D-02
                  0.112447D+04           0.380591D-01
                  0.366347D+03           0.125148D+00
                  0.131757D+03           0.310022D+00
                  0.506988D+02           0.500000D+00
                  0.199436D+02           0.347528D+00
            S    3   1.00
                  0.101878D+03          -0.446755D-01
                  0.308249D+02          -0.196376D+00
                  0.573688D+01           0.500000D+00
            S    2   1.00
                  0.296868D+01           0.500000D+00
                  0.135315D+01           0.355098D+00
            S    1   1.00
                  0.332196D+00           1.0000000
            S    1   1.00
                  0.116229D+00           1.0000000
            P    7   1.00
                  0.873928D+03           0.112375D-02
                  0.207298D+03           0.933330D-02
                  0.664628D+02           0.477213D-01
                  0.245665D+02           0.160733D+00
                  0.996820D+01           0.359760D+00
                  0.416536D+01           0.500000D+00
                  0.173022D+01           0.346593D+00
            P    2   1.00
                  0.772530D+01          -0.175718D-01
                  0.657252D+00           0.500000D+00
            P    1   1.00
                  0.239903D+00           1.0000000
            P    1   1.00
                  0.800988D-01           1.0000000
            D    1   1.00
                  0.189000D+01           1.0000000
            D    1   1.00
                  0.430000D+00           1.0000000
            F    1   1.00
                  0.600000D+00           1.0000000
            ****
            
 Initial command:
 /usr/local/apps/g16_b01_avx/g16/l1.exe "/wrk/irikura/Gau-396102.inp" -scrdir="/wrk/irikura/"
 Entering Link 1 = /usr/local/apps/g16_b01_avx/g16/l1.exe PID=    396104.
  
 Copyright (c) 1988-2017, Gaussian, Inc.  All Rights Reserved.
  
 This is part of the Gaussian(R) 16 program.  It is based on
 the Gaussian(R) 09 system (copyright 2009, Gaussian, Inc.),
 the Gaussian(R) 03 system (copyright 2003, Gaussian, Inc.),
 the Gaussian(R) 98 system (copyright 1998, Gaussian, Inc.),
 the Gaussian(R) 94 system (copyright 1995, Gaussian, Inc.),
 the Gaussian 92(TM) system (copyright 1992, Gaussian, Inc.),
 the Gaussian 90(TM) system (copyright 1990, Gaussian, Inc.),
 the Gaussian 88(TM) system (copyright 1988, Gaussian, Inc.),
 the Gaussian 86(TM) system (copyright 1986, Carnegie Mellon
 University), and the Gaussian 82(TM) system (copyright 1983,
 Carnegie Mellon University). Gaussian is a federally registered
 trademark of Gaussian, Inc.
  
 This software contains proprietary and confidential information,
 including trade secrets, belonging to Gaussian, Inc.
  
 This software is provided under written license and may be
 used, copied, transmitted, or stored only in accord with that
 written license.
  
 The following legend is applicable only to US Government
 contracts under FAR:
  
                    RESTRICTED RIGHTS LEGEND
  
 Use, reproduction and disclosure by the US Government is
 subject to restrictions as set forth in subparagraphs (a)
 and (c) of the Commercial Computer Software - Restricted
 Rights clause in FAR 52.227-19.
  
 Gaussian, Inc.
 340 Quinnipiac St., Bldg. 40, Wallingford CT 06492
  
  
 ---------------------------------------------------------------
 Warning -- This program may not be used in any manner that
 competes with the business of Gaussian, Inc. or will provide
 assistance to any competitor of Gaussian, Inc.  The licensee
 of this program is prohibited from giving any competitor of
 Gaussian, Inc. access to this program.  By using this program,
 the user acknowledges that Gaussian, Inc. is engaged in the
 business of creating and licensing software in the field of
 computational chemistry and represents and warrants to the
 licensee that it is not a competitor of Gaussian, Inc. and that
 it will not use this program in any manner prohibited above.
 ---------------------------------------------------------------
  

 Cite this work as:
 Gaussian 16, Revision B.01,
 M. J. Frisch, G. W. Trucks, H. B. Schlegel, G. E. Scuseria, 
 M. A. Robb, J. R. Cheeseman, G. Scalmani, V. Barone, 
 G. A. Petersson, H. Nakatsuji, X. Li, M. Caricato, A. V. Marenich, 
 J. Bloino, B. G. Janesko, R. Gomperts, B. Mennucci, H. P. Hratchian, 
 J. V. Ortiz, A. F. Izmaylov, J. L. Sonnenberg, D. Williams-Young, 
 F. Ding, F. Lipparini, F. Egidi, J. Goings, B. Peng, A. Petrone, 
 T. Henderson, D. Ranasinghe, V. G. Zakrzewski, J. Gao, N. Rega, 
 G. Zheng, W. Liang, M. Hada, M. Ehara, K. Toyota, R. Fukuda, 
 J. Hasegawa, M. Ishida, T. Nakajima, Y. Honda, O. Kitao, H. Nakai, 
 T. Vreven, K. Throssell, J. A. Montgomery, Jr., J. E. Peralta, 
 F. Ogliaro, M. J. Bearpark, J. J. Heyd, E. N. Brothers, K. N. Kudin, 
 V. N. Staroverov, T. A. Keith, R. Kobayashi, J. Normand, 
 K. Raghavachari, A. P. Rendell, J. C. Burant, S. S. Iyengar, 
 J. Tomasi, M. Cossi, J. M. Millam, M. Klene, C. Adamo, R. Cammi, 
 J. W. Ochterski, R. L. Martin, K. Morokuma, O. Farkas, 
 J. B. Foresman, and D. J. Fox, Gaussian, Inc., Wallingford CT, 2016.
 
 ******************************************
 Gaussian 16:  ES64L-G16RevB.01 20-Dec-2017
                29-Sep-2023 
 ******************************************
 %chk=hccch2cl.chk
 %mem=500mw
 %nprocs=4
 Will use up to    4 processors via shared memory.
 ---------------------------------------
 # b3lyp/gen opt freq CPHF(Grid=OneStep)
 ---------------------------------------
 1/18=20,19=15,26=3,38=1/1,3;
 2/9=110,12=2,17=6,18=5,40=1/2;
 3/5=7,11=2,25=1,30=1,71=1,74=-5/1,2,3;
 4//1;
 5/5=2,38=5/2;
 6/7=2,8=2,9=2,10=2,28=1/1;
 7//1,2,3,16;
 1/18=20,19=15,26=3/3(2);
 2/9=110/2;
 99//99;
 2/9=110/2;
 3/5=7,6=1,11=2,25=1,30=1,71=1,74=-5,82=7/1,2,3;
 4/5=5,16=3,69=1/1;
 5/5=2,38=5/2;
 7//1,2,3,16;
 1/18=20,19=15,26=3/3(-5);
 2/9=110/2;
 6/7=2,8=2,9=2,10=2,19=2,28=1/1;
 99/9=1/99;
 ---------------------------------
 propargyl chloride, B3LYP/pcseg-2
 ---------------------------------
 Symbolic Z-matrix:
 Charge =  0 Multiplicity = 1
 C                     2.3045   -0.45997   0. 
 C                     1.25502   0.118     0. 
 C                     0.        0.83279   0. 
 H                     3.23351  -0.97363   0. 
 Cl                   -1.43443  -0.28698   0. 
 H                    -0.10266   1.45369   0.88578 
 H                    -0.10266   1.45369  -0.88578 
 

 GradGradGradGradGradGradGradGradGradGradGradGradGradGradGradGradGradGrad
 Berny optimization.
 Initialization pass.
                           ----------------------------
                           !    Initial Parameters    !
                           ! (Angstroms and Degrees)  !
 --------------------------                            --------------------------
 ! Name  Definition              Value          Derivative Info.                !
 --------------------------------------------------------------------------------
 ! R1    R(1,2)                  1.1981         estimate D2E/DX2                !
 ! R2    R(1,4)                  1.0616         estimate D2E/DX2                !
 ! R3    R(2,3)                  1.4443         estimate D2E/DX2                !
 ! R4    R(3,5)                  1.8197         estimate D2E/DX2                !
 ! R5    R(3,6)                  1.0866         estimate D2E/DX2                !
 ! R6    R(3,7)                  1.0866         estimate D2E/DX2                !
 ! A1    A(2,3,5)              112.3594         estimate D2E/DX2                !
 ! A2    A(2,3,6)              111.4014         estimate D2E/DX2                !
 ! A3    A(2,3,7)              111.4014         estimate D2E/DX2                !
 ! A4    A(5,3,6)              106.0899         estimate D2E/DX2                !
 ! A5    A(5,3,7)              106.0899         estimate D2E/DX2                !
 ! A6    A(6,3,7)              109.2143         estimate D2E/DX2                !
 ! A7    L(2,1,4,5,-1)         179.9035         estimate D2E/DX2                !
 ! A8    L(1,2,3,5,-1)         180.8213         estimate D2E/DX2                !
 ! A9    L(2,1,4,5,-2)         180.0            estimate D2E/DX2                !
 ! A10   L(1,2,3,5,-2)         180.0            estimate D2E/DX2                !
 ! D1    D(5,3,7,6)            113.9531         estimate D2E/DX2                !
 --------------------------------------------------------------------------------
 Trust Radius=3.00D-01 FncErr=1.00D-07 GrdErr=1.00D-06 EigMax=2.50D+02 EigMin=1.00D-04
 Number of steps in this run=     27 maximum allowed number of steps=    100.
 GradGradGradGradGradGradGradGradGradGradGradGradGradGradGradGradGradGrad

                          Input orientation:                          
 ---------------------------------------------------------------------
 Center     Atomic      Atomic             Coordinates (Angstroms)
 Number     Number       Type             X           Y           Z
 ---------------------------------------------------------------------
      1          6           0        2.304501   -0.459970    0.000000
      2          6           0        1.255018    0.117998    0.000000
      3          6           0        0.000000    0.832792    0.000000
      4          1           0        3.233510   -0.973631    0.000000
      5         17           0       -1.434430   -0.286980    0.000000
      6          1           0       -0.102661    1.453685    0.885777
      7          1           0       -0.102661    1.453685   -0.885777
 ---------------------------------------------------------------------
                    Distance matrix (angstroms):
                    1          2          3          4          5
     1  C    0.000000
     2  C    1.198107   0.000000
     3  C    2.642340   1.444299   0.000000
     4  H    1.061558   2.259665   3.703883   0.000000
     5  Cl   3.742931   2.719768   1.819747   4.718173   0.000000
     6  H    3.200173   2.100465   1.086576   4.219775   2.363921
     7  H    3.200173   2.100465   1.086576   4.219775   2.363921
                    6          7
     6  H    0.000000
     7  H    1.771554   0.000000
 Stoichiometry    C3H3Cl
 Framework group  CS[SG(C3HCl),X(H2)]
 Deg. of freedom    10
 Full point group                 CS      NOp   2
 Largest Abelian subgroup         CS      NOp   2
 Largest concise Abelian subgroup CS      NOp   2
                         Standard orientation:                         
 ---------------------------------------------------------------------
 Center     Atomic      Atomic             Coordinates (Angstroms)
 Number     Number       Type             X           Y           Z
 ---------------------------------------------------------------------
      1          6           0        2.304501   -0.459969    0.000000
      2          6           0        1.255018    0.117998    0.000000
      3          6           0        0.000000    0.832792    0.000000
      4          1           0        3.233510   -0.973630    0.000000
      5         17           0       -1.434430   -0.286980    0.000000
      6          1           0       -0.102661    1.453685    0.885777
      7          1           0       -0.102661    1.453685   -0.885777
 ---------------------------------------------------------------------
 Rotational constants (GHZ):          24.4861699           3.0360314           2.7475687
 General basis read from cards:  (5D, 7F)
 There are   125 symmetry adapted cartesian basis functions of A'  symmetry.
 There are    64 symmetry adapted cartesian basis functions of A"  symmetry.
 There are   107 symmetry adapted basis functions of A'  symmetry.
 There are    59 symmetry adapted basis functions of A"  symmetry.
   166 basis functions,   277 primitive gaussians,   189 cartesian basis functions
    19 alpha electrons       19 beta electrons
       nuclear repulsion energy       126.4002846016 Hartrees.
 NAtoms=    7 NActive=    7 NUniq=    6 SFac= 1.36D+00 NAtFMM=   60 NAOKFM=F Big=F
 Integral buffers will be    131072 words long.
 Raffenetti 2 integral format.
 Two-electron integral symmetry is turned on.
 One-electron integrals computed using PRISM.
 NBasis=   166 RedAO= T EigKep=  3.77D-05  NBF=   107    59
 NBsUse=   166 1.00D-06 EigRej= -1.00D+00 NBFU=   107    59
 ExpMin= 7.42D-02 ExpMax= 1.54D+05 ExpMxC= 1.49D+03 IAcc=3 IRadAn=         5 AccDes= 0.00D+00
 Harris functional with IExCor=  402 and IRadAn=       5 diagonalized for initial guess.
 HarFok:  IExCor=  402 AccDes= 0.00D+00 IRadAn=         5 IDoV= 1 UseB2=F ITyADJ=14
 ICtDFT=  3500011 ScaDFX=  1.000000  1.000000  1.000000  1.000000
 FoFCou: FMM=F IPFlag=           0 FMFlag=      100000 FMFlg1=           0
         NFxFlg=           0 DoJE=T BraDBF=F KetDBF=T FulRan=T
         wScrn=  0.000000 ICntrl=       500 IOpCl=  0 I1Cent=   200000004 NGrid=           0
         NMat0=    1 NMatS0=      1 NMatT0=    0 NMatD0=    1 NMtDS0=    0 NMtDT0=    0
 Petite list used in FoFCou.
 Initial guess orbital symmetries:
       Occupied  (A') (A') (A') (A') (A') (A') (A') (A") (A') (A')
                 (A') (A') (A') (A") (A') (A") (A') (A') (A")
       Virtual   (A') (A") (A') (A') (A') (A") (A') (A') (A') (A")
                 (A') (A') (A') (A") (A') (A") (A') (A") (A') (A')
                 (A") (A') (A') (A') (A') (A") (A") (A') (A') (A')
                 (A') (A") (A') (A") (A') (A") (A') (A") (A') (A")
                 (A') (A') (A") (A') (A') (A') (A") (A') (A") (A')
                 (A") (A') (A") (A') (A') (A') (A") (A') (A') (A")
                 (A') (A') (A') (A') (A") (A') (A") (A') (A") (A')
                 (A") (A') (A") (A') (A') (A') (A") (A') (A') (A')
                 (A") (A") (A') (A') (A') (A") (A") (A') (A') (A")
                 (A") (A') (A') (A") (A') (A") (A') (A") (A') (A")
                 (A") (A') (A') (A") (A") (A') (A') (A") (A') (A")
                 (A') (A') (A") (A') (A") (A') (A') (A') (A') (A")
                 (A") (A') (A") (A") (A') (A') (A') (A") (A') (A')
                 (A") (A') (A') (A') (A") (A') (A') (A") (A") (A')
                 (A") (A') (A") (A') (A') (A') (A')
 The electronic state of the initial guess is 1-A'.
 Keep R1 ints in memory in symmetry-blocked form, NReq=144521857.
 Requested convergence on RMS density matrix=1.00D-08 within 128 cycles.
 Requested convergence on MAX density matrix=1.00D-06.
 Requested convergence on             energy=1.00D-06.
 No special actions if energy rises.
 Integral accuracy reduced to 1.0D-05 until final iterations.
 Initial convergence to 1.0D-05 achieved.  Increase integral accuracy.
 SCF Done:  E(RB3LYP) =  -576.334163316     A.U. after   13 cycles
            NFock= 13  Conv=0.52D-08     -V/T= 2.0015

 **********************************************************************

            Population analysis using the SCF Density.

 **********************************************************************

 Orbital symmetries:
       Occupied  (A') (A') (A') (A') (A') (A') (A') (A") (A') (A')
                 (A') (A') (A') (A") (A') (A') (A") (A') (A")
       Virtual   (A') (A') (A") (A') (A") (A') (A') (A') (A') (A")
                 (A') (A') (A') (A") (A') (A") (A') (A') (A") (A')
                 (A") (A') (A') (A') (A') (A") (A") (A') (A') (A')
                 (A") (A') (A') (A") (A') (A") (A') (A") (A') (A")
                 (A') (A') (A") (A') (A') (A') (A") (A") (A') (A')
                 (A") (A') (A") (A') (A') (A') (A") (A') (A') (A")
                 (A') (A') (A') (A') (A") (A") (A') (A') (A") (A')
                 (A') (A") (A") (A') (A') (A") (A') (A') (A') (A')
                 (A") (A") (A') (A') (A') (A") (A") (A') (A") (A')
                 (A") (A') (A') (A") (A') (A") (A') (A") (A') (A")
                 (A") (A') (A") (A') (A") (A') (A') (A") (A') (A")
                 (A') (A') (A") (A') (A") (A') (A') (A') (A') (A")
                 (A") (A') (A") (A") (A') (A') (A') (A") (A') (A')
                 (A") (A') (A') (A') (A") (A') (A') (A") (A") (A')
                 (A") (A') (A") (A') (A') (A') (A')
 The electronic state is 1-A'.
 Alpha  occ. eigenvalues -- -101.50931 -10.26542 -10.19442 -10.18622  -9.45432
 Alpha  occ. eigenvalues --   -7.21631  -7.20690  -7.20679  -0.87180  -0.77876
 Alpha  occ. eigenvalues --   -0.70571  -0.55478  -0.49915  -0.48673  -0.44069
 Alpha  occ. eigenvalues --   -0.31953  -0.31680  -0.29759  -0.29372
 Alpha virt. eigenvalues --   -0.03049   0.00896   0.01368   0.03904   0.06921
 Alpha virt. eigenvalues --    0.07623   0.10274   0.13305   0.16026   0.17208
 Alpha virt. eigenvalues --    0.20398   0.21338   0.23153   0.26529   0.27437
 Alpha virt. eigenvalues --    0.28271   0.30771   0.32026   0.32324   0.34042
 Alpha virt. eigenvalues --    0.34456   0.39840   0.46918   0.48861   0.54862
 Alpha virt. eigenvalues --    0.56402   0.59236   0.59902   0.61423   0.70795
 Alpha virt. eigenvalues --    0.74503   0.77475   0.80674   0.82132   0.83198
 Alpha virt. eigenvalues --    0.89624   0.91111   0.97556   1.00286   1.02129
 Alpha virt. eigenvalues --    1.04103   1.08234   1.09126   1.13168   1.15060
 Alpha virt. eigenvalues --    1.18851   1.22014   1.26349   1.26884   1.30765
 Alpha virt. eigenvalues --    1.34221   1.36669   1.40916   1.46064   1.54026
 Alpha virt. eigenvalues --    1.55493   1.57029   1.62493   1.65841   1.74140
 Alpha virt. eigenvalues --    1.75799   1.94171   1.98476   2.04678   2.07569
 Alpha virt. eigenvalues --    2.12473   2.12693   2.15523   2.18389   2.19231
 Alpha virt. eigenvalues --    2.25228   2.25237   2.29395   2.32139   2.46265
 Alpha virt. eigenvalues --    2.56244   2.59046   2.62107   2.94663   2.99706
 Alpha virt. eigenvalues --    3.03293   3.16265   3.17683   3.23311   3.30516
 Alpha virt. eigenvalues --    3.32381   3.33442   3.37438   3.39315   3.39980
 Alpha virt. eigenvalues --    3.53015   3.53528   3.56080   3.56330   3.62027
 Alpha virt. eigenvalues --    3.68013   3.71978   3.76411   3.78165   3.79456
 Alpha virt. eigenvalues --    3.82793   3.84321   3.89590   3.91102   3.94577
 Alpha virt. eigenvalues --    3.97452   4.00548   4.04515   4.10577   4.11242
 Alpha virt. eigenvalues --    4.12261   4.20285   4.23568   4.28320   4.35824
 Alpha virt. eigenvalues --    4.41219   4.41663   4.50325   4.52144   4.57031
 Alpha virt. eigenvalues --    4.59656   4.60627   4.64724   4.68363   4.72116
 Alpha virt. eigenvalues --    4.74772   4.81333   4.83785   4.90646   5.09419
 Alpha virt. eigenvalues --    5.24689   5.33145   5.43251   5.53160   5.53764
 Alpha virt. eigenvalues --    5.63006   5.69553   5.75902   5.78743   5.89292
 Alpha virt. eigenvalues --    5.90883   5.95173   6.01878   6.07724   7.06871
 Alpha virt. eigenvalues --    8.03392  32.69649
          Condensed to atoms (all electrons):
               1          2          3          4          5          6
     1  C    5.091970   0.712529  -0.092920   0.511865  -0.010568  -0.000570
     2  C    0.712529   5.142988   0.295488  -0.102406  -0.051498  -0.062173
     3  C   -0.092920   0.295488   4.638853  -0.002428   0.267285   0.448385
     4  H    0.511865  -0.102406  -0.002428   0.536551  -0.000201   0.000036
     5  Cl  -0.010568  -0.051498   0.267285  -0.000201  17.029447  -0.044799
     6  H   -0.000570  -0.062173   0.448385   0.000036  -0.044799   0.607108
     7  H   -0.000570  -0.062173   0.448385   0.000036  -0.044799  -0.035918
               7
     1  C   -0.000570
     2  C   -0.062173
     3  C    0.448385
     4  H    0.000036
     5  Cl  -0.044799
     6  H   -0.035918
     7  H    0.607108
 Mulliken charges:
               1
     1  C   -0.211737
     2  C    0.127245
     3  C   -0.003048
     4  H    0.056548
     5  Cl  -0.144868
     6  H    0.087931
     7  H    0.087931
 Sum of Mulliken charges =  -0.00000
 Mulliken charges with hydrogens summed into heavy atoms:
               1
     1  C   -0.155190
     2  C    0.127245
     3  C    0.172813
     5  Cl  -0.144868
 Electronic spatial extent (au):  <R**2>=            424.7265
 Charge=             -0.0000 electrons
 Dipole moment (field-independent basis, Debye):
    X=              1.3476    Y=              1.2203    Z=              0.0000  Tot=              1.8180
 Quadrupole moment (field-independent basis, Debye-Ang):
   XX=            -28.7993   YY=            -28.7846   ZZ=            -31.3101
   XY=             -2.4995   XZ=             -0.0000   YZ=              0.0000
 Traceless Quadrupole moment (field-independent basis, Debye-Ang):
   XX=              0.8320   YY=              0.8467   ZZ=             -1.6788
   XY=             -2.4995   XZ=             -0.0000   YZ=              0.0000
 Octapole moment (field-independent basis, Debye-Ang**2):
  XXX=             11.0328  YYY=              2.3059  ZZZ=             -0.0000  XYY=             -2.2214
  XXY=            -12.1406  XXZ=             -0.0000  XZZ=             -4.8271  YZZ=              2.2813
  YYZ=              0.0000  XYZ=              0.0000
 Hexadecapole moment (field-independent basis, Debye-Ang**3):
 XXXX=           -380.0728 YYYY=            -88.1389 ZZZZ=            -42.9246 XXXY=            -24.9981
 XXXZ=              0.0000 YYYX=              3.8721 YYYZ=              0.0000 ZZZX=             -0.0000
 ZZZY=             -0.0000 XXYY=            -82.6715 XXZZ=            -90.3866 YYZZ=            -20.2471
 XXYZ=              0.0000 YYXZ=              0.0000 ZZXY=              2.1061
 N-N= 1.264002846016D+02 E-N=-1.617042233564D+03  KE= 5.754546264822D+02
 Symmetry A'   KE= 5.249841535461D+02
 Symmetry A"   KE= 5.047047293614D+01
 Calling FoFJK, ICntrl=      2127 FMM=F ISym2X=1 I1Cent= 0 IOpClX= 0 NMat=1 NMatS=1 NMatT=0.
 ***** Axes restored to original set *****
 -------------------------------------------------------------------
 Center     Atomic                   Forces (Hartrees/Bohr)
 Number     Number              X              Y              Z
 -------------------------------------------------------------------
      1        6           0.000278619   -0.000026177    0.000000000
      2        6          -0.000220177    0.000052104   -0.000000000
      3        6          -0.000028891   -0.000277824   -0.000000000
      4        1          -0.000008920   -0.000059542    0.000000000
      5       17           0.000002149   -0.000010095    0.000000000
      6        1          -0.000011390    0.000160767    0.000146662
      7        1          -0.000011390    0.000160767   -0.000146662
 -------------------------------------------------------------------
 Cartesian Forces:  Max     0.000278619 RMS     0.000120757

 GradGradGradGradGradGradGradGradGradGradGradGradGradGradGradGradGradGrad
 Berny optimization.
 FormGI is forming the generalized inverse of G from B-inverse, IUseBI=4.
 Internal  Forces:  Max     0.000277572 RMS     0.000106448
 Search for a local minimum.
 Step number   1 out of a maximum of   27
 All quantities printed in internal units (Hartrees-Bohrs-Radians)
 Mixed Optimization -- En-DIIS/RFO-DIIS
 Second derivative matrix not updated -- first step.
 The second derivative matrix:
                          R1        R2        R3        R4        R5
           R1           1.05780
           R2           0.00000   0.38318
           R3           0.00000   0.00000   0.39002
           R4           0.00000   0.00000   0.00000   0.24621
           R5           0.00000   0.00000   0.00000   0.00000   0.35211
           R6           0.00000   0.00000   0.00000   0.00000   0.00000
           A1           0.00000   0.00000   0.00000   0.00000   0.00000
           A2           0.00000   0.00000   0.00000   0.00000   0.00000
           A3           0.00000   0.00000   0.00000   0.00000   0.00000
           A4           0.00000   0.00000   0.00000   0.00000   0.00000
           A5           0.00000   0.00000   0.00000   0.00000   0.00000
           A6           0.00000   0.00000   0.00000   0.00000   0.00000
           A7           0.00000   0.00000   0.00000   0.00000   0.00000
           A8           0.00000   0.00000   0.00000   0.00000   0.00000
           A9           0.00000   0.00000   0.00000   0.00000   0.00000
           A10          0.00000   0.00000   0.00000   0.00000   0.00000
           D1           0.00000   0.00000   0.00000   0.00000   0.00000
                          R6        A1        A2        A3        A4
           R6           0.35211
           A1           0.00000   0.25000
           A2           0.00000   0.00000   0.16000
           A3           0.00000   0.00000   0.00000   0.16000
           A4           0.00000   0.00000   0.00000   0.00000   0.16000
           A5           0.00000   0.00000   0.00000   0.00000   0.00000
           A6           0.00000   0.00000   0.00000   0.00000   0.00000
           A7           0.00000   0.00000   0.00000   0.00000   0.00000
           A8           0.00000   0.00000   0.00000   0.00000   0.00000
           A9           0.00000   0.00000   0.00000   0.00000   0.00000
           A10          0.00000   0.00000   0.00000   0.00000   0.00000
           D1           0.00000   0.00000   0.00000   0.00000   0.00000
                          A5        A6        A7        A8        A9
           A5           0.16000
           A6           0.00000   0.16000
           A7           0.00000   0.00000   0.00611
           A8           0.00000   0.00000   0.00000   0.01503
           A9           0.00000   0.00000   0.00000   0.00000   0.00611
           A10          0.00000   0.00000   0.00000   0.00000   0.00000
           D1           0.00000   0.00000   0.00000   0.00000   0.00000
                          A10       D1
           A10          0.01503
           D1           0.00000   0.00280
 ITU=  0
     Eigenvalues ---    0.00611   0.00611   0.01503   0.01503   0.07942
     Eigenvalues ---    0.16000   0.16000   0.16000   0.22696   0.24621
     Eigenvalues ---    0.35211   0.35211   0.38318   0.39002   1.05780
 RFO step:  Lambda=-2.47539377D-06 EMin= 6.11063520D-03
 Linear search not attempted -- first point.
 Iteration  1 RMS(Cart)=  0.00585557 RMS(Int)=  0.00005648
 Iteration  2 RMS(Cart)=  0.00005572 RMS(Int)=  0.00000002
 Iteration  3 RMS(Cart)=  0.00000000 RMS(Int)=  0.00000002
 ClnCor:  largest displacement from symmetrization is 1.74D-06 for atom     7.
 Variable       Old X    -DE/DX   Delta X   Delta X   Delta X     New X
                                 (Linear)    (Quad)   (Total)
    R1        2.26410   0.00028   0.00000   0.00026   0.00026   2.26436
    R2        2.00605   0.00002   0.00000   0.00005   0.00005   2.00611
    R3        2.72933   0.00006   0.00000   0.00015   0.00015   2.72948
    R4        3.43882   0.00000   0.00000   0.00002   0.00002   3.43884
    R5        2.05333   0.00021   0.00000   0.00060   0.00060   2.05393
    R6        2.05333   0.00021   0.00000   0.00060   0.00060   2.05393
    A1        1.96104   0.00001   0.00000   0.00002   0.00002   1.96106
    A2        1.94432   0.00001   0.00000   0.00002   0.00002   1.94434
    A3        1.94432   0.00001   0.00000   0.00002   0.00002   1.94434
    A4        1.85162   0.00003   0.00000   0.00022   0.00022   1.85184
    A5        1.85162   0.00003   0.00000   0.00022   0.00022   1.85184
    A6        1.90615  -0.00008   0.00000  -0.00049  -0.00049   1.90566
    A7        3.13991  -0.00011   0.00000  -0.01840  -0.01840   3.12151
    A8        3.15593   0.00001   0.00000   0.00089   0.00089   3.15682
    A9        3.14159  -0.00000   0.00000  -0.00000   0.00000   3.14159
   A10        3.14159   0.00000   0.00000   0.00000   0.00000   3.14159
    D1        1.98886   0.00001   0.00000   0.00014   0.00014   1.98899
         Item               Value     Threshold  Converged?
 Maximum Force            0.000278     0.000450     YES
 RMS     Force            0.000106     0.000300     YES
 Maximum Displacement     0.014591     0.001800     NO 
 RMS     Displacement     0.005856     0.001200     NO 
 Predicted change in Energy=-1.237695D-06
 GradGradGradGradGradGradGradGradGradGradGradGradGradGradGradGradGradGrad

                          Input orientation:                          
 ---------------------------------------------------------------------
 Center     Atomic      Atomic             Coordinates (Angstroms)
 Number     Number       Type             X           Y           Z
 ---------------------------------------------------------------------
      1          6           0        2.308012   -0.453597    0.000000
      2          6           0        1.256577    0.121102    0.000000
      3          6           0       -0.000138    0.833072    0.000000
      4          1           0        3.229121   -0.981352    0.000000
      5         17           0       -1.432040   -0.289948    0.000000
      6          1           0       -0.104128    1.454151    0.885883
      7          1           0       -0.104128    1.454151   -0.885883
 ---------------------------------------------------------------------
                    Distance matrix (angstroms):
                    1          2          3          4          5
     1  C    0.000000
     2  C    1.198246   0.000000
     3  C    2.642551   1.444380   0.000000
     4  H    1.061587   2.259720   3.704085   0.000000
     5  Cl   3.743631   2.719857   1.819757   4.712161   0.000000
     6  H    3.200424   2.100792   1.086895   4.222205   2.364322
     7  H    3.200424   2.100792   1.086895   4.222205   2.364322
                    6          7
     6  H    0.000000
     7  H    1.771766   0.000000
 Stoichiometry    C3H3Cl
 Framework group  CS[SG(C3HCl),X(H2)]
 Deg. of freedom    10
 Full point group                 CS      NOp   2
 Largest Abelian subgroup         CS      NOp   2
 Largest concise Abelian subgroup CS      NOp   2
                         Standard orientation:                         
 ---------------------------------------------------------------------
 Center     Atomic      Atomic             Coordinates (Angstroms)
 Number     Number       Type             X           Y           Z
 ---------------------------------------------------------------------
      1          6           0        2.305375   -0.458595    0.000000
      2          6           0        1.255180    0.118366    0.000000
      3          6           0        0.000000    0.833039    0.000000
      4          1           0        3.225345   -0.988332    0.000000
      5         17           0       -1.434316   -0.286895    0.000000
      6          1           0       -0.102653    1.454341    0.885883
      7          1           0       -0.102653    1.454341   -0.885883
 ---------------------------------------------------------------------
 Rotational constants (GHZ):          24.4586778           3.0362138           2.7473829
 Basis read from rwf:  (5D, 7F)
 There are   125 symmetry adapted cartesian basis functions of A'  symmetry.
 There are    64 symmetry adapted cartesian basis functions of A"  symmetry.
 There are   107 symmetry adapted basis functions of A'  symmetry.
 There are    59 symmetry adapted basis functions of A"  symmetry.
   166 basis functions,   277 primitive gaussians,   189 cartesian basis functions
    19 alpha electrons       19 beta electrons
       nuclear repulsion energy       126.3920755963 Hartrees.
 NAtoms=    7 NActive=    7 NUniq=    6 SFac= 1.36D+00 NAtFMM=   60 NAOKFM=F Big=F
 Integral buffers will be    131072 words long.
 Raffenetti 2 integral format.
 Two-electron integral symmetry is turned on.
 One-electron integrals computed using PRISM.
 NBasis=   166 RedAO= T EigKep=  3.77D-05  NBF=   107    59
 NBsUse=   166 1.00D-06 EigRej= -1.00D+00 NBFU=   107    59
 Initial guess from the checkpoint file:  "hccch2cl.chk"
 B after Tr=     0.000000    0.000000    0.000000
         Rot=    1.000000    0.000000    0.000000    0.000167 Ang=   0.02 deg.
 Initial guess orbital symmetries:
       Occupied  (A') (A') (A') (A') (A') (A') (A') (A") (A') (A')
                 (A') (A') (A') (A") (A') (A') (A") (A') (A")
       Virtual   (A') (A') (A") (A') (A") (A') (A') (A') (A') (A")
                 (A') (A') (A') (A") (A') (A") (A') (A') (A") (A')
                 (A") (A') (A') (A') (A') (A") (A") (A') (A') (A')
                 (A") (A') (A') (A") (A') (A") (A') (A") (A') (A")
                 (A') (A') (A") (A') (A') (A') (A") (A") (A') (A')
                 (A") (A') (A") (A') (A') (A') (A") (A') (A') (A")
                 (A') (A') (A') (A') (A") (A") (A') (A') (A") (A')
                 (A') (A") (A") (A') (A') (A") (A') (A') (A') (A')
                 (A") (A") (A') (A') (A') (A") (A") (A') (A") (A')
                 (A") (A') (A') (A") (A') (A") (A') (A") (A') (A")
                 (A") (A') (A") (A') (A") (A') (A') (A") (A') (A")
                 (A') (A') (A") (A') (A") (A') (A') (A') (A') (A")
                 (A") (A') (A") (A") (A') (A') (A') (A") (A') (A')
                 (A") (A') (A') (A') (A") (A') (A') (A") (A") (A')
                 (A") (A') (A") (A') (A') (A') (A')
 Keep R1 ints in memory in symmetry-blocked form, NReq=144521857.
 Requested convergence on RMS density matrix=1.00D-08 within 128 cycles.
 Requested convergence on MAX density matrix=1.00D-06.
 Requested convergence on             energy=1.00D-06.
 No special actions if energy rises.
 SCF Done:  E(RB3LYP) =  -576.334155504     A.U. after    8 cycles
            NFock=  8  Conv=0.55D-08     -V/T= 2.0015
 Calling FoFJK, ICntrl=      2127 FMM=F ISym2X=1 I1Cent= 0 IOpClX= 0 NMat=1 NMatS=1 NMatT=0.
 ***** Axes restored to original set *****
 -------------------------------------------------------------------
 Center     Atomic                   Forces (Hartrees/Bohr)
 Number     Number              X              Y              Z
 -------------------------------------------------------------------
      1        6          -0.000395490   -0.000691687   -0.000000000
      2        6           0.000054393    0.000110889   -0.000000000
      3        6           0.000044017    0.000093682    0.000000000
      4        1           0.000254053    0.000429877    0.000000000
      5       17           0.000071499    0.000012417    0.000000000
      6        1          -0.000014236    0.000022411   -0.000002936
      7        1          -0.000014236    0.000022411    0.000002936
 -------------------------------------------------------------------
 Cartesian Forces:  Max     0.000691687 RMS     0.000208948

 GradGradGradGradGradGradGradGradGradGradGradGradGradGradGradGradGradGrad
 Berny optimization.
 Using GEDIIS/GDIIS optimizer.
 FormGI is forming the generalized inverse of G from B-inverse, IUseBI=4.
 Internal  Forces:  Max     0.001002329 RMS     0.000258110
 Search for a local minimum.
 Step number   2 out of a maximum of   27
 All quantities printed in internal units (Hartrees-Bohrs-Radians)
 Mixed Optimization -- En-DIIS/RFO-DIIS
 Swapping is turned off.
 Update second derivatives using D2CorX and points    1    2
 DE=  7.81D-06 DEPred=-1.24D-06 R=-6.31D+00
 Trust test=-6.31D+00 RLast= 1.84D-02 DXMaxT set to 1.50D-01
 The second derivative matrix:
                          R1        R2        R3        R4        R5
           R1           1.03035
           R2          -0.00216   0.38301
           R3          -0.00587  -0.00046   0.38876
           R4           0.00040   0.00001   0.00009   0.24643
           R5          -0.02114  -0.00166  -0.00452   0.00027   0.33585
           R6          -0.02114  -0.00166  -0.00452   0.00027  -0.01627
           A1           0.00090   0.00003   0.00020   0.00035   0.00064
           A2          -0.00082  -0.00005  -0.00018  -0.00014  -0.00061
           A3          -0.00082  -0.00005  -0.00018  -0.00014  -0.00061
           A4          -0.00370  -0.00029  -0.00079  -0.00000  -0.00284
           A5          -0.00369  -0.00029  -0.00079  -0.00000  -0.00283
           A6           0.00793   0.00062   0.00170  -0.00007   0.00610
           A7          -0.00233   0.00018  -0.00059  -0.00350  -0.00122
           A8          -0.00575  -0.00033  -0.00126  -0.00108  -0.00424
           A9          -0.00000  -0.00000  -0.00000  -0.00000  -0.00000
           A10          0.00000   0.00000   0.00000   0.00000   0.00000
           D1          -0.00002  -0.00000  -0.00000   0.00000  -0.00002
                          R6        A1        A2        A3        A4
           R6           0.33585
           A1           0.00064   0.25055
           A2          -0.00061  -0.00021   0.16008
           A3          -0.00061  -0.00021   0.00008   0.16008
           A4          -0.00284   0.00003  -0.00007  -0.00007   0.15952
           A5          -0.00283   0.00003  -0.00007  -0.00007  -0.00048
           A6           0.00610  -0.00018   0.00020   0.00020   0.00106
           A7          -0.00122  -0.00562   0.00228   0.00228   0.00059
           A8          -0.00424  -0.00168   0.00060   0.00060  -0.00048
           A9          -0.00000  -0.00000   0.00000   0.00000  -0.00000
           A10          0.00000   0.00000  -0.00000  -0.00000   0.00000
           D1          -0.00002   0.00001  -0.00000  -0.00000  -0.00000
                          A5        A6        A7        A8        A9
           A5           0.15952
           A6           0.00105   0.15772
           A7           0.00054  -0.00009   0.06135
           A8          -0.00049   0.00141   0.01774   0.01981
           A9          -0.00000   0.00000   0.00000   0.00000   0.00611
           A10          0.00000  -0.00000  -0.00000  -0.00000  -0.00000
           D1          -0.00000   0.00001  -0.00006  -0.00002  -0.00000
                          A10       D1
           A10          0.01503
           D1           0.00000   0.00280
 ITU= -1  0
     Eigenvalues ---    0.00611   0.01313   0.01503   0.06745   0.07935
     Eigenvalues ---    0.15611   0.16000   0.16003   0.22792   0.24651
     Eigenvalues ---    0.31848   0.35211   0.38309   0.38935   1.03179
 En-DIIS/RFO-DIIS/Sim-DIIS IScMMF=       -3 using points:     2    1
 RFO step:  Lambda=-1.65012305D-05.
 DidBck=T Rises=T En-DIIS coefs:    0.31030    0.68970
 Iteration  1 RMS(Cart)=  0.00653285 RMS(Int)=  0.00005534
 Iteration  2 RMS(Cart)=  0.00005426 RMS(Int)=  0.00000001
 Iteration  3 RMS(Cart)=  0.00000000 RMS(Int)=  0.00000001
 ClnCor:  largest displacement from symmetrization is 1.63D-06 for atom     7.
 Variable       Old X    -DE/DX   Delta X   Delta X   Delta X     New X
                                 (Linear)    (Quad)   (Total)
    R1        2.26436   0.00000  -0.00018   0.00024   0.00006   2.26442
    R2        2.00611   0.00001  -0.00004   0.00005   0.00001   2.00612
    R3        2.72948  -0.00000  -0.00011   0.00014   0.00003   2.72952
    R4        3.43884  -0.00006  -0.00001  -0.00001  -0.00003   3.43882
    R5        2.05393   0.00001  -0.00042   0.00056   0.00014   2.05408
    R6        2.05393   0.00001  -0.00042   0.00056   0.00014   2.05408
    A1        1.96106  -0.00010  -0.00001  -0.00004  -0.00005   1.96101
    A2        1.94434   0.00005  -0.00001   0.00004   0.00003   1.94437
    A3        1.94434   0.00005  -0.00001   0.00004   0.00003   1.94437
    A4        1.85184   0.00001  -0.00015   0.00021   0.00006   1.85190
    A5        1.85184   0.00001  -0.00015   0.00021   0.00006   1.85190
    A6        1.90566  -0.00002   0.00034  -0.00047  -0.00013   1.90553
    A7        3.12151   0.00100   0.01269   0.00283   0.01551   3.13703
    A8        3.15682   0.00033  -0.00062   0.00345   0.00284   3.15966
    A9        3.14159   0.00000   0.00000  -0.00000   0.00000   3.14159
   A10        3.14159   0.00000   0.00000   0.00000   0.00000   3.14159
    D1        1.98899   0.00001  -0.00009   0.00013   0.00003   1.98903
         Item               Value     Threshold  Converged?
 Maximum Force            0.001002     0.000450     NO 
 RMS     Force            0.000258     0.000300     YES
 Maximum Displacement     0.015822     0.001800     NO 
 RMS     Displacement     0.006532     0.001200     NO 
 Predicted change in Energy=-8.251859D-06
 GradGradGradGradGradGradGradGradGradGradGradGradGradGradGradGradGradGrad

                          Input orientation:                          
 ---------------------------------------------------------------------
 Center     Atomic      Atomic             Coordinates (Angstroms)
 Number     Number       Type             X           Y           Z
 ---------------------------------------------------------------------
      1          6           0        2.305309   -0.459131    0.000000
      2          6           0        1.254120    0.116084    0.000000
      3          6           0       -0.000244    0.832223    0.000000
      4          1           0        3.234257   -0.972980    0.000000
      5         17           0       -1.435795   -0.286105    0.000000
      6          1           0       -0.102185    1.453743    0.885904
      7          1           0       -0.102185    1.453743   -0.885904
 ---------------------------------------------------------------------
                    Distance matrix (angstroms):
                    1          2          3          4          5
     1  C    0.000000
     2  C    1.198278   0.000000
     3  C    2.642570   1.444398   0.000000
     4  H    1.061595   2.259867   3.704154   0.000000
     5  Cl   3.745103   2.719816   1.819743   4.720294   0.000000
     6  H    3.199991   2.100886   1.086970   4.219675   2.364405
     7  H    3.199991   2.100886   1.086970   4.219675   2.364405
                    6          7
     6  H    0.000000
     7  H    1.771808   0.000000
 Stoichiometry    C3H3Cl
 Framework group  CS[SG(C3HCl),X(H2)]
 Deg. of freedom    10
 Full point group                 CS      NOp   2
 Largest Abelian subgroup         CS      NOp   2
 Largest concise Abelian subgroup CS      NOp   2
                         Standard orientation:                         
 ---------------------------------------------------------------------
 Center     Atomic      Atomic             Coordinates (Angstroms)
 Number     Number       Type             X           Y           Z
 ---------------------------------------------------------------------
      1          6           0        2.306135   -0.458246    0.000000
      2          6           0        1.254687    0.116496    0.000000
      3          6           0        0.000000    0.832071    0.000000
      4          1           0        3.235313   -0.971676    0.000000
      5         17           0       -1.435047   -0.286903    0.000000
      6          1           0       -0.102221    1.453545    0.885904
      7          1           0       -0.102221    1.453545   -0.885904
 ---------------------------------------------------------------------
 Rotational constants (GHZ):          24.5377935           3.0332267           2.7459326
 Basis read from rwf:  (5D, 7F)
 There are   125 symmetry adapted cartesian basis functions of A'  symmetry.
 There are    64 symmetry adapted cartesian basis functions of A"  symmetry.
 There are   107 symmetry adapted basis functions of A'  symmetry.
 There are    59 symmetry adapted basis functions of A"  symmetry.
   166 basis functions,   277 primitive gaussians,   189 cartesian basis functions
    19 alpha electrons       19 beta electrons
       nuclear repulsion energy       126.3824884673 Hartrees.
 NAtoms=    7 NActive=    7 NUniq=    6 SFac= 1.36D+00 NAtFMM=   60 NAOKFM=F Big=F
 Integral buffers will be    131072 words long.
 Raffenetti 2 integral format.
 Two-electron integral symmetry is turned on.
 One-electron integrals computed using PRISM.
 NBasis=   166 RedAO= T EigKep=  3.76D-05  NBF=   107    59
 NBsUse=   166 1.00D-06 EigRej= -1.00D+00 NBFU=   107    59
 Initial guess from the checkpoint file:  "hccch2cl.chk"
 B after Tr=     0.000000    0.000000    0.000000
         Rot=    1.000000   -0.000000    0.000000   -0.000264 Ang=  -0.03 deg.
 Initial guess orbital symmetries:
       Occupied  (A') (A') (A') (A') (A') (A') (A') (A") (A') (A')
                 (A') (A') (A') (A") (A') (A') (A") (A') (A")
       Virtual   (A') (A') (A") (A') (A") (A') (A') (A') (A') (A")
                 (A') (A') (A') (A") (A') (A") (A') (A') (A") (A')
                 (A") (A') (A') (A') (A') (A") (A") (A') (A') (A')
                 (A") (A') (A') (A") (A') (A") (A') (A") (A') (A")
                 (A') (A') (A") (A') (A') (A') (A") (A") (A') (A')
                 (A") (A') (A") (A') (A') (A') (A") (A') (A') (A")
                 (A') (A') (A') (A') (A") (A") (A') (A') (A") (A')
                 (A") (A') (A") (A') (A') (A") (A') (A') (A') (A')
                 (A") (A") (A') (A') (A') (A") (A") (A') (A") (A')
                 (A") (A') (A') (A") (A') (A") (A') (A") (A') (A")
                 (A") (A') (A") (A') (A") (A') (A') (A") (A') (A")
                 (A') (A') (A") (A') (A") (A') (A') (A') (A') (A")
                 (A") (A') (A") (A") (A') (A') (A') (A") (A') (A')
                 (A") (A') (A') (A') (A") (A') (A') (A") (A") (A')
                 (A") (A') (A") (A') (A') (A') (A')
 Keep R1 ints in memory in symmetry-blocked form, NReq=144521857.
 Requested convergence on RMS density matrix=1.00D-08 within 128 cycles.
 Requested convergence on MAX density matrix=1.00D-06.
 Requested convergence on             energy=1.00D-06.
 No special actions if energy rises.
 SCF Done:  E(RB3LYP) =  -576.334163316     A.U. after    8 cycles
            NFock=  8  Conv=0.62D-08     -V/T= 2.0015
 Calling FoFJK, ICntrl=      2127 FMM=F ISym2X=1 I1Cent= 0 IOpClX= 0 NMat=1 NMatS=1 NMatT=0.
 ***** Axes restored to original set *****
 -------------------------------------------------------------------
 Center     Atomic                   Forces (Hartrees/Bohr)
 Number     Number              X              Y              Z
 -------------------------------------------------------------------
      1        6          -0.000103184   -0.000037065   -0.000000000
      2        6           0.000129118    0.000142817   -0.000000000
      3        6          -0.000060564   -0.000072433    0.000000000
      4        1          -0.000007991   -0.000004079    0.000000000
      5       17           0.000013295    0.000020748   -0.000000000
      6        1           0.000014664   -0.000024995   -0.000028656
      7        1           0.000014664   -0.000024995    0.000028656
 -------------------------------------------------------------------
 Cartesian Forces:  Max     0.000142817 RMS     0.000054342

 GradGradGradGradGradGradGradGradGradGradGradGradGradGradGradGradGradGrad
 Berny optimization.
 Using GEDIIS/GDIIS optimizer.
 FormGI is forming the generalized inverse of G from B-inverse, IUseBI=4.
 Internal  Forces:  Max     0.000215422 RMS     0.000059088
 Search for a local minimum.
 Step number   3 out of a maximum of   27
 All quantities printed in internal units (Hartrees-Bohrs-Radians)
 Mixed Optimization -- En-DIIS/RFO-DIIS
 Swapping is turned off.
 Update second derivatives using D2CorX and points    1    2    3
 DE= -7.81D-06 DEPred=-8.25D-06 R= 9.47D-01
 TightC=F SS=  1.41D+00  RLast= 1.58D-02 DXNew= 2.5227D-01 4.7322D-02
 Trust test= 9.47D-01 RLast= 1.58D-02 DXMaxT set to 1.50D-01
 The second derivative matrix:
                          R1        R2        R3        R4        R5
           R1           1.00516
           R2          -0.00440   0.38281
           R3          -0.00719  -0.00063   0.38956
           R4           0.00625   0.00046   0.00156   0.24662
           R5          -0.04517  -0.00374  -0.00676   0.00453   0.31403
           R6          -0.04517  -0.00374  -0.00676   0.00453  -0.03808
           A1          -0.00402  -0.00033  -0.00131  -0.00019  -0.00264
           A2           0.00316   0.00024   0.00102   0.00027   0.00206
           A3           0.00316   0.00024   0.00102   0.00027   0.00206
           A4          -0.01125  -0.00090  -0.00209   0.00054  -0.00902
           A5          -0.01035  -0.00083  -0.00185   0.00059  -0.00838
           A6           0.01990   0.00163   0.00330  -0.00154   0.01641
           A7          -0.00377   0.00004  -0.00039  -0.00278  -0.00291
           A8           0.03316   0.00255   0.01022   0.00251   0.02215
           A9           0.00000   0.00000   0.00000   0.00000   0.00000
           A10         -0.00000  -0.00000  -0.00000  -0.00000  -0.00000
           D1           0.00121   0.00009   0.00033   0.00008   0.00085
                          R6        A1        A2        A3        A4
           R6           0.31403
           A1          -0.00264   0.25141
           A2           0.00206  -0.00088   0.16059
           A3           0.00206  -0.00088   0.00059   0.16059
           A4          -0.00902  -0.00014   0.00008   0.00008   0.15819
           A5          -0.00838  -0.00023   0.00016   0.00016  -0.00174
           A6           0.01641   0.00074  -0.00056  -0.00056   0.00363
           A7          -0.00291  -0.00630   0.00283   0.00283  -0.00014
           A8           0.02215  -0.00776   0.00528   0.00528   0.00135
           A9           0.00000  -0.00000   0.00000   0.00000   0.00000
           A10         -0.00000   0.00000  -0.00000  -0.00000  -0.00000
           D1           0.00085  -0.00014   0.00011   0.00011   0.00008
                          A5        A6        A7        A8        A9
           A5           0.15834
           A6           0.00342   0.15313
           A7          -0.00008   0.00092   0.06135
           A8           0.00202  -0.00642   0.02302   0.06264
           A9           0.00000  -0.00000   0.00000   0.00000   0.00611
           A10         -0.00000   0.00000  -0.00000  -0.00000  -0.00000
           D1           0.00010  -0.00027   0.00010   0.00101   0.00000
                          A10       D1
           A10          0.01503
           D1          -0.00000   0.00282
 ITU=  1 -1  0
     Eigenvalues ---    0.00611   0.01503   0.03389   0.07861   0.08039
     Eigenvalues ---    0.14655   0.16000   0.16030   0.22831   0.24556
     Eigenvalues ---    0.28354   0.35211   0.38308   0.39058   1.01238
 En-DIIS/RFO-DIIS/Sim-DIIS IScMMF=       -3 using points:     3    2    1
 RFO step:  Lambda=-8.62016018D-07.
 DidBck=T Rises=F RFO-DIIS coefs:    0.03636    0.08584    0.87780
 Iteration  1 RMS(Cart)=  0.00186949 RMS(Int)=  0.00000208
 Iteration  2 RMS(Cart)=  0.00000325 RMS(Int)=  0.00000002
 Iteration  3 RMS(Cart)=  0.00000000 RMS(Int)=  0.00000002
 ClnCor:  largest displacement from symmetrization is 1.41D-06 for atom     7.
 Variable       Old X    -DE/DX   Delta X   Delta X   Delta X     New X
                                 (Linear)    (Quad)   (Total)
    R1        2.26442  -0.00008  -0.00029   0.00035   0.00006   2.26448
    R2        2.00612  -0.00001  -0.00006   0.00008   0.00002   2.00614
    R3        2.72952  -0.00003  -0.00017   0.00019   0.00002   2.72954
    R4        3.43882  -0.00002   0.00001  -0.00005  -0.00004   3.43877
    R5        2.05408  -0.00004  -0.00067   0.00084   0.00017   2.05425
    R6        2.05408  -0.00004  -0.00067   0.00084   0.00017   2.05425
    A1        1.96101   0.00003   0.00003   0.00001   0.00004   1.96105
    A2        1.94437  -0.00002  -0.00004   0.00002  -0.00003   1.94434
    A3        1.94437  -0.00002  -0.00004   0.00002  -0.00003   1.94434
    A4        1.85190   0.00000  -0.00025   0.00034   0.00009   1.85199
    A5        1.85190   0.00000  -0.00025   0.00034   0.00009   1.85199
    A6        1.90553   0.00000   0.00055  -0.00072  -0.00017   1.90536
    A7        3.13703  -0.00001   0.00120   0.00005   0.00125   3.13827
    A8        3.15966  -0.00022  -0.00352  -0.00041  -0.00393   3.15573
    A9        3.14159  -0.00000   0.00000  -0.00000   0.00000   3.14159
   A10        3.14159   0.00000   0.00000   0.00000   0.00000   3.14159
    D1        1.98903   0.00000  -0.00015   0.00023   0.00008   1.98911
         Item               Value     Threshold  Converged?
 Maximum Force            0.000215     0.000450     YES
 RMS     Force            0.000059     0.000300     YES
 Maximum Displacement     0.004200     0.001800     NO 
 RMS     Displacement     0.001870     0.001200     NO 
 Predicted change in Energy=-4.280983D-07
 GradGradGradGradGradGradGradGradGradGradGradGradGradGradGradGradGradGrad

                          Input orientation:                          
 ---------------------------------------------------------------------
 Center     Atomic      Atomic             Coordinates (Angstroms)
 Number     Number       Type             X           Y           Z
 ---------------------------------------------------------------------
      1          6           0        2.304979   -0.459564    0.000000
      2          6           0        1.255210    0.118306    0.000000
      3          6           0       -0.000177    0.832674    0.000000
      4          1           0        3.233282   -0.974592    0.000000
      5         17           0       -1.434164   -0.287623    0.000000
      6          1           0       -0.102927    1.454188    0.885924
      7          1           0       -0.102927    1.454188   -0.885924
 ---------------------------------------------------------------------
                    Distance matrix (angstroms):
                    1          2          3          4          5
     1  C    0.000000
     2  C    1.198312   0.000000
     3  C    2.642655   1.444409   0.000000
     4  H    1.061603   2.259911   3.704250   0.000000
     5  Cl   3.743095   2.719836   1.819720   4.717731   0.000000
     6  H    3.200832   2.100947   1.087060   4.220679   2.364521
     7  H    3.200832   2.100947   1.087060   4.220679   2.364521
                    6          7
     6  H    0.000000
     7  H    1.771848   0.000000
 Stoichiometry    C3H3Cl
 Framework group  CS[SG(C3HCl),X(H2)]
 Deg. of freedom    10
 Full point group                 CS      NOp   2
 Largest Abelian subgroup         CS      NOp   2
 Largest concise Abelian subgroup CS      NOp   2
                         Standard orientation:                         
 ---------------------------------------------------------------------
 Center     Atomic      Atomic             Coordinates (Angstroms)
 Number     Number       Type             X           Y           Z
 ---------------------------------------------------------------------
      1          6           0        2.304607   -0.460351    0.000000
      2          6           0        1.255083    0.117966    0.000000
      3          6           0       -0.000000    0.832866    0.000000
      4          1           0        3.232691   -0.975773    0.000000
      5         17           0       -1.434463   -0.286821    0.000000
      6          1           0       -0.102486    1.454424    0.885924
      7          1           0       -0.102486    1.454424   -0.885924
 ---------------------------------------------------------------------
 Rotational constants (GHZ):          24.4725735           3.0359157           2.7473184
 Basis read from rwf:  (5D, 7F)
 There are   125 symmetry adapted cartesian basis functions of A'  symmetry.
 There are    64 symmetry adapted cartesian basis functions of A"  symmetry.
 There are   107 symmetry adapted basis functions of A'  symmetry.
 There are    59 symmetry adapted basis functions of A"  symmetry.
   166 basis functions,   277 primitive gaussians,   189 cartesian basis functions
    19 alpha electrons       19 beta electrons
       nuclear repulsion energy       126.3891000516 Hartrees.
 NAtoms=    7 NActive=    7 NUniq=    6 SFac= 1.36D+00 NAtFMM=   60 NAOKFM=F Big=F
 Integral buffers will be    131072 words long.
 Raffenetti 2 integral format.
 Two-electron integral symmetry is turned on.
 One-electron integrals computed using PRISM.
 NBasis=   166 RedAO= T EigKep=  3.77D-05  NBF=   107    59
 NBsUse=   166 1.00D-06 EigRej= -1.00D+00 NBFU=   107    59
 Initial guess from the checkpoint file:  "hccch2cl.chk"
 B after Tr=    -0.000000   -0.000000    0.000000
         Rot=    1.000000    0.000000   -0.000000    0.000187 Ang=   0.02 deg.
 Initial guess orbital symmetries:
       Occupied  (A') (A') (A') (A') (A') (A') (A') (A") (A') (A')
                 (A') (A') (A') (A") (A') (A') (A") (A') (A")
       Virtual   (A') (A') (A") (A') (A") (A') (A') (A') (A') (A")
                 (A') (A') (A') (A") (A') (A") (A') (A') (A") (A')
                 (A") (A') (A') (A') (A') (A") (A") (A') (A') (A')
                 (A") (A') (A') (A") (A') (A") (A') (A") (A') (A")
                 (A') (A') (A") (A') (A') (A') (A") (A") (A') (A')
                 (A") (A') (A") (A') (A') (A') (A") (A') (A') (A")
                 (A') (A') (A') (A') (A") (A") (A') (A') (A") (A')
                 (A") (A') (A") (A') (A') (A") (A') (A') (A') (A')
                 (A") (A") (A') (A') (A') (A") (A") (A') (A") (A')
                 (A") (A') (A') (A") (A') (A") (A') (A") (A') (A")
                 (A") (A') (A") (A') (A") (A') (A') (A") (A') (A")
                 (A') (A') (A") (A') (A") (A') (A') (A') (A') (A")
                 (A") (A') (A") (A") (A') (A') (A') (A") (A') (A')
                 (A") (A') (A') (A') (A") (A') (A') (A") (A") (A')
                 (A") (A') (A") (A') (A') (A') (A')
 Keep R1 ints in memory in symmetry-blocked form, NReq=144521857.
 Requested convergence on RMS density matrix=1.00D-08 within 128 cycles.
 Requested convergence on MAX density matrix=1.00D-06.
 Requested convergence on             energy=1.00D-06.
 No special actions if energy rises.
 SCF Done:  E(RB3LYP) =  -576.334163585     A.U. after    7 cycles
            NFock=  7  Conv=0.95D-08     -V/T= 2.0015
 Calling FoFJK, ICntrl=      2127 FMM=F ISym2X=1 I1Cent= 0 IOpClX= 0 NMat=1 NMatS=1 NMatT=0.
 ***** Axes restored to original set *****
 -------------------------------------------------------------------
 Center     Atomic                   Forces (Hartrees/Bohr)
 Number     Number              X              Y              Z
 -------------------------------------------------------------------
      1        6          -0.000101974    0.000094184   -0.000000000
      2        6           0.000070179   -0.000099676   -0.000000000
      3        6          -0.000002347    0.000092852   -0.000000000
      4        1          -0.000012082    0.000001681    0.000000000
      5       17           0.000034426    0.000027850    0.000000000
      6        1           0.000005899   -0.000058445   -0.000072042
      7        1           0.000005899   -0.000058445    0.000072042
 -------------------------------------------------------------------
 Cartesian Forces:  Max     0.000101974 RMS     0.000054400

 GradGradGradGradGradGradGradGradGradGradGradGradGradGradGradGradGradGrad
 Berny optimization.
 Using GEDIIS/GDIIS optimizer.
 FormGI is forming the generalized inverse of G from B-inverse, IUseBI=4.
 Internal  Forces:  Max     0.000146169 RMS     0.000051866
 Search for a local minimum.
 Step number   4 out of a maximum of   27
 All quantities printed in internal units (Hartrees-Bohrs-Radians)
 Mixed Optimization -- En-DIIS/RFO-DIIS
 Swapping is turned off.
 Update second derivatives using D2CorX and points    1    2    3    4
 DE= -2.69D-07 DEPred=-4.28D-07 R= 6.28D-01
 Trust test= 6.28D-01 RLast= 4.14D-03 DXMaxT set to 1.50D-01
 The second derivative matrix:
                          R1        R2        R3        R4        R5
           R1           1.08589
           R2           0.00194   0.38331
           R3           0.01188   0.00087   0.39387
           R4           0.02649   0.00209   0.00549   0.24804
           R5           0.00823   0.00043   0.00628   0.01977   0.34842
           R6           0.00823   0.00043   0.00628   0.01977  -0.00370
           A1           0.00039   0.00002  -0.00026   0.00097   0.00026
           A2           0.00304   0.00024   0.00095   0.00001   0.00209
           A3           0.00304   0.00024   0.00095   0.00001   0.00209
           A4          -0.01047  -0.00086  -0.00148   0.00258  -0.00943
           A5          -0.00641  -0.00054  -0.00059   0.00301  -0.00650
           A6           0.00979   0.00086   0.00036  -0.00648   0.01094
           A7           0.00139   0.00043   0.00094  -0.00107   0.00028
           A8           0.00038  -0.00003   0.00250  -0.00575   0.00047
           A9          -0.00000  -0.00000  -0.00000  -0.00000  -0.00000
           A10          0.00000   0.00000   0.00000   0.00000   0.00000
           D1           0.00594   0.00047   0.00131   0.00067   0.00428
                          R6        A1        A2        A3        A4
           R6           0.34842
           A1           0.00026   0.25165
           A2           0.00209  -0.00089   0.16059
           A3           0.00209  -0.00089   0.00059   0.16059
           A4          -0.00943  -0.00012   0.00019   0.00019   0.15727
           A5          -0.00650  -0.00004   0.00024   0.00024  -0.00242
           A6           0.01094   0.00022  -0.00069  -0.00069   0.00474
           A7           0.00028  -0.00605   0.00284   0.00284  -0.00029
           A8           0.00047  -0.00959   0.00544   0.00544   0.00100
           A9          -0.00000  -0.00000   0.00000   0.00000  -0.00000
           A10          0.00000   0.00000  -0.00000  -0.00000   0.00000
           D1           0.00428   0.00011   0.00007   0.00007   0.00043
                          A5        A6        A7        A8        A9
           A5           0.15797
           A6           0.00387   0.15281
           A7           0.00000   0.00054   0.06155
           A8           0.00044  -0.00231   0.02103   0.07656
           A9          -0.00000   0.00000  -0.00000   0.00000   0.00611
           A10          0.00000  -0.00000   0.00000  -0.00000  -0.00000
           D1           0.00056  -0.00126   0.00044  -0.00085  -0.00000
                          A10       D1
           A10          0.01503
           D1           0.00000   0.00300
 ITU=  0  1 -1  0
     Eigenvalues ---    0.00611   0.01503   0.04663   0.07859   0.08978
     Eigenvalues ---    0.14724   0.16000   0.16034   0.22984   0.24223
     Eigenvalues ---    0.35096   0.35211   0.38326   0.39601   1.08735
 En-DIIS/RFO-DIIS/Sim-DIIS IScMMF=       -3 using points:     4    3    2    1
 RFO step:  Lambda=-1.34384850D-07.
 DidBck=T Rises=F RFO-DIIS coefs:    0.55671    0.20808    0.03032    0.20489
 Iteration  1 RMS(Cart)=  0.00041813 RMS(Int)=  0.00000011
 Iteration  2 RMS(Cart)=  0.00000016 RMS(Int)=  0.00000001
 ClnCor:  largest displacement from symmetrization is 4.34D-07 for atom     7.
 Variable       Old X    -DE/DX   Delta X   Delta X   Delta X     New X
                                 (Linear)    (Quad)   (Total)
    R1        2.26448  -0.00015  -0.00010  -0.00003  -0.00013   2.26435
    R2        2.00614  -0.00001  -0.00002  -0.00001  -0.00003   2.00611
    R3        2.72954  -0.00004  -0.00005  -0.00003  -0.00008   2.72945
    R4        3.43877  -0.00004   0.00002  -0.00012  -0.00009   3.43868
    R5        2.05425  -0.00009  -0.00023  -0.00003  -0.00027   2.05398
    R6        2.05425  -0.00009  -0.00023  -0.00003  -0.00027   2.05398
    A1        1.96105  -0.00001  -0.00001   0.00001  -0.00000   1.96105
    A2        1.94434   0.00000   0.00000  -0.00001  -0.00000   1.94434
    A3        1.94434   0.00000   0.00000  -0.00001  -0.00000   1.94434
    A4        1.85199  -0.00000  -0.00010   0.00003  -0.00007   1.85192
    A5        1.85199  -0.00001  -0.00010   0.00003  -0.00007   1.85192
    A6        1.90536   0.00001   0.00020  -0.00006   0.00014   1.90551
    A7        3.13827  -0.00001  -0.00043  -0.00000  -0.00043   3.13784
    A8        3.15573   0.00006   0.00089   0.00000   0.00089   3.15662
    A9        3.14159   0.00000   0.00000   0.00000   0.00000   3.14159
   A10        3.14159  -0.00000   0.00000  -0.00000   0.00000   3.14159
    D1        1.98911  -0.00000  -0.00007   0.00003  -0.00004   1.98906
         Item               Value     Threshold  Converged?
 Maximum Force            0.000146     0.000450     YES
 RMS     Force            0.000052     0.000300     YES
 Maximum Displacement     0.000847     0.001800     YES
 RMS     Displacement     0.000418     0.001200     YES
 Predicted change in Energy=-6.719181D-08
 Optimization completed.
    -- Stationary point found.
                           ----------------------------
                           !   Optimized Parameters   !
                           ! (Angstroms and Degrees)  !
 --------------------------                            --------------------------
 ! Name  Definition              Value          Derivative Info.                !
 --------------------------------------------------------------------------------
 ! R1    R(1,2)                  1.1983         -DE/DX =   -0.0001              !
 ! R2    R(1,4)                  1.0616         -DE/DX =    0.0                 !
 ! R3    R(2,3)                  1.4444         -DE/DX =    0.0                 !
 ! R4    R(3,5)                  1.8197         -DE/DX =    0.0                 !
 ! R5    R(3,6)                  1.0871         -DE/DX =   -0.0001              !
 ! R6    R(3,7)                  1.0871         -DE/DX =   -0.0001              !
 ! A1    A(2,3,5)              112.3597         -DE/DX =    0.0                 !
[...]
      3          6           0       -0.000000    0.832866    0.000000
      4          1           0        3.232691   -0.975773    0.000000
      5         17           0       -1.434463   -0.286821    0.000000
      6          1           0       -0.102486    1.454424    0.885924
      7          1           0       -0.102486    1.454424   -0.885924
 ---------------------------------------------------------------------
 Rotational constants (GHZ):          24.4725735           3.0359157           2.7473184
 General basis read from cards:  (5D, 7F)
 There are   208 symmetry adapted cartesian basis functions of A'  symmetry.
 There are   107 symmetry adapted cartesian basis functions of A"  symmetry.
 There are   177 symmetry adapted basis functions of A'  symmetry.
 There are    98 symmetry adapted basis functions of A"  symmetry.
   275 basis functions,   426 primitive gaussians,   315 cartesian basis functions
    19 alpha electrons       19 beta electrons
       nuclear repulsion energy       126.3891000516 Hartrees.
 NAtoms=    7 NActive=    7 NUniq=    6 SFac= 1.36D+00 NAtFMM=   60 NAOKFM=F Big=F
 Integral buffers will be    131072 words long.
 Raffenetti 2 integral format.
 Two-electron integral symmetry is turned on.
 One-electron integrals computed using PRISM.
 NBasis=   275 RedAO= T EigKep=  6.59D-06  NBF=   177    98
 NBsUse=   275 1.00D-06 EigRej= -1.00D+00 NBFU=   177    98
 Initial guess from the checkpoint file:  "hccch2cl.chk"
 B after Tr=     0.000000    0.000000   -0.000000
         Rot=    1.000000    0.000000   -0.000000    0.000000 Ang=   0.00 deg.
 Initial guess orbital symmetries:
       Occupied  (A') (A') (A') (A') (A') (A') (A') (A") (A') (A')
                 (A') (A') (A') (A") (A') (A') (A") (A') (A")
       Virtual   (A') (A') (A") (A') (A") (A') (A') (A') (A') (A")
                 (A') (A') (A') (A") (A') (A") (A') (A') (A") (A')
                 (A") (A') (A') (A') (A') (A") (A") (A') (A') (A')
                 (A") (A') (A') (A") (A') (A") (A') (A") (A') (A")
                 (A') (A') (A") (A') (A') (A') (A") (A") (A') (A')
                 (A") (A') (A") (A') (A') (A') (A") (A') (A') (A")
                 (A') (A') (A') (A') (A") (A") (A') (A') (A") (A')
                 (A") (A') (A") (A') (A') (A") (A') (A') (A') (A')
                 (A") (A") (A') (A') (A') (A") (A") (A') (A") (A')
                 (A") (A') (A') (A") (A') (A") (A') (A") (A') (A")
                 (A") (A') (A") (A') (A") (A') (A') (A") (A') (A")
                 (A') (A') (A") (A') (A") (A') (A') (A') (A') (A")
                 (A") (A') (A") (A") (A') (A') (A') (A") (A') (A')
                 (A") (A') (A') (A') (A") (A') (A') (A") (A") (A')
                 (A") (A') (A") (A') (A') (A') (A') (A') (A') (A')
                 (A') (A') (A') (A') (A') (A') (A') (A') (A') (A')
                 (A') (A') (A') (A') (A') (A') (A') (A') (A') (A')
                 (A') (A') (A') (A') (A') (A') (A') (A') (A') (A')
                 (A') (A') (A') (A') (A') (A') (A') (A') (A') (A')
                 (A') (A') (A') (A') (A') (A') (A') (A') (A') (A')
                 (A') (A') (A') (A') (A') (A') (A') (A') (A') (A')
                 (A') (A') (A') (A') (A') (A') (A') (A") (A") (A")
                 (A") (A") (A") (A") (A") (A") (A") (A") (A") (A")
                 (A") (A") (A") (A") (A") (A") (A") (A") (A") (A")
                 (A") (A") (A") (A") (A") (A") (A") (A") (A") (A")
                 (A") (A") (A") (A") (A") (A")
 Requested convergence on RMS density matrix=1.00D-08 within 128 cycles.
 Requested convergence on MAX density matrix=1.00D-06.
 Requested convergence on             energy=1.00D-06.
 No special actions if energy rises.
 SCF Done:  E(ROHF) =  -574.849387161     A.U. after   12 cycles
            NFock= 12  Conv=0.44D-08     -V/T= 2.0003
 <Sx>= 0.0000 <Sy>= 0.0000 <Sz>= 0.0000 <S**2>=-0.0000 S=-0.0000
 <L.S>=  0.00000000000    
 Annihilation of the first spin contaminant:
 S**2 before annihilation    -0.0000,   after     0.0000

 **********************************************************************

            Population analysis using the SCF Density.

 **********************************************************************

 Orbital symmetries:
       Occupied  (A') (A') (A') (A') (A') (A') (A') (A") (A') (A')
                 (A') (A') (A') (A") (A') (A') (A") (A') (A")
       Virtual   (A') (A') (A') (A") (A') (A') (A") (A') (A") (A')
                 (A") (A') (A') (A') (A') (A") (A') (A') (A') (A")
                 (A') (A') (A') (A') (A") (A") (A') (A') (A') (A")
                 (A') (A') (A") (A') (A") (A') (A") (A") (A') (A')
                 (A') (A') (A') (A") (A') (A") (A") (A') (A') (A')
                 (A") (A') (A') (A") (A') (A') (A') (A") (A') (A")
                 (A') (A') (A') (A") (A') (A") (A') (A') (A") (A')
                 (A") (A') (A") (A') (A") (A') (A') (A') (A") (A')
                 (A') (A") (A") (A") (A') (A') (A") (A") (A') (A')
                 (A') (A') (A") (A') (A') (A") (A') (A') (A") (A")
                 (A') (A') (A") (A") (A') (A') (A') (A") (A") (A')
                 (A') (A') (A') (A") (A") (A') (A') (A") (A') (A")
                 (A') (A') (A") (A") (A') (A') (A") (A') (A') (A")
                 (A') (A') (A") (A') (A") (A') (A') (A") (A") (A")
                 (A') (A') (A') (A') (A") (A') (A') (A") (A') (A")
                 (A') (A') (A") (A') (A") (A') (A') (A') (A") (A')
                 (A') (A') (A") (A') (A') (A") (A') (A") (A') (A')
                 (A") (A") (A') (A') (A') (A") (A") (A') (A') (A")
                 (A') (A") (A") (A') (A") (A') (A') (A") (A') (A')
                 (A") (A') (A') (A") (A') (A') (A") (A') (A") (A')
                 (A") (A") (A') (A') (A') (A") (A') (A") (A') (A')
                 (A') (A") (A') (A") (A') (A') (A") (A') (A") (A')
                 (A") (A') (A') (A") (A') (A') (A") (A') (A") (A')
                 (A') (A') (A") (A') (A') (A') (A") (A') (A") (A')
                 (A") (A') (A') (A") (A') (A") (A') (A') (A') (A')
                 (A') (A') (A') (A") (A') (A')
 The electronic state is 1-A'.
 Alpha  occ. eigenvalues -- -104.83430 -11.32808 -11.25164 -11.24316 -10.55912
 Alpha  occ. eigenvalues --   -8.02603  -8.02445  -8.02441  -1.14915  -1.04833
 Alpha  occ. eigenvalues --   -0.94512  -0.74219  -0.66980  -0.65252  -0.57232
 Alpha  occ. eigenvalues --   -0.45424  -0.45100  -0.40672  -0.40615
 Alpha virt. eigenvalues --    0.04645   0.05271   0.06481   0.06879   0.08028
 Alpha virt. eigenvalues --    0.08099   0.09432   0.11449   0.12338   0.12346
 Alpha virt. eigenvalues --    0.13194   0.13646   0.15263   0.16947   0.18214
 Alpha virt. eigenvalues --    0.18745   0.20596   0.23563   0.24382   0.25097
 Alpha virt. eigenvalues --    0.26152   0.28119   0.31970   0.36281   0.37885
 Alpha virt. eigenvalues --    0.40993   0.41903   0.43039   0.46028   0.46567
 Alpha virt. eigenvalues --    0.46991   0.48310   0.48986   0.50472   0.50768
 Alpha virt. eigenvalues --    0.52010   0.53249   0.54043   0.54231   0.55240
 Alpha virt. eigenvalues --    0.57217   0.60751   0.64720   0.66047   0.67504
 Alpha virt. eigenvalues --    0.67898   0.70947   0.72068   0.75654   0.77102
 Alpha virt. eigenvalues --    0.81542   0.81793   0.84759   0.86295   0.86403
 Alpha virt. eigenvalues --    0.90238   0.93841   1.00110   1.01119   1.01156
 Alpha virt. eigenvalues --    1.02538   1.04962   1.07887   1.08919   1.10881
 Alpha virt. eigenvalues --    1.16432   1.19497   1.19981   1.24895   1.27027
 Alpha virt. eigenvalues --    1.28686   1.29144   1.32149   1.33765   1.35404
 Alpha virt. eigenvalues --    1.35980   1.36830   1.39908   1.42153   1.43942
 Alpha virt. eigenvalues --    1.48115   1.48654   1.50111   1.54700   1.55687
 Alpha virt. eigenvalues --    1.57097   1.57346   1.59556   1.59745   1.61039
 Alpha virt. eigenvalues --    1.63397   1.67545   1.69831   1.70528   1.71107
 Alpha virt. eigenvalues --    1.75675   1.75784   1.76649   1.79160   1.84219
 Alpha virt. eigenvalues --    1.86566   1.88196   1.91036   1.92349   1.95192
 Alpha virt. eigenvalues --    1.96607   1.99528   2.00092   2.04998   2.06049
 Alpha virt. eigenvalues --    2.08372   2.12131   2.15795   2.16041   2.20560
 Alpha virt. eigenvalues --    2.21713   2.25099   2.30043   2.30299   2.31182
 Alpha virt. eigenvalues --    2.35104   2.42388   2.43054   2.46003   2.48157
 Alpha virt. eigenvalues --    2.50097   2.50227   2.51873   2.57200   2.58518
 Alpha virt. eigenvalues --    2.58952   2.64123   2.67838   2.68217   2.73694
 Alpha virt. eigenvalues --    2.77177   2.82607   2.84476   2.86137   2.94113
 Alpha virt. eigenvalues --    2.95066   3.01210   3.05197   3.08850   3.10046
 Alpha virt. eigenvalues --    3.17860   3.21495   3.21995   3.30813   3.32938
 Alpha virt. eigenvalues --    3.35606   3.38848   3.45739   3.46958   3.52212
 Alpha virt. eigenvalues --    3.52862   3.53804   3.57493   3.57789   3.64842
 Alpha virt. eigenvalues --    3.66269   3.68855   3.70775   3.74933   3.78167
 Alpha virt. eigenvalues --    3.81049   3.89109   3.89639   4.24440   4.48235
 Alpha virt. eigenvalues --    4.48285   4.51010   4.52793   4.65426   4.71857
 Alpha virt. eigenvalues --    4.79444   4.79770   4.82292   4.90405   4.91061
 Alpha virt. eigenvalues --    4.94619   4.95137   5.04561   5.08945   5.20609
 Alpha virt. eigenvalues --    5.26061   5.36575   5.37329   5.41527   5.58622
 Alpha virt. eigenvalues --    5.61433   5.61509   5.65172   5.75826   5.78302
 Alpha virt. eigenvalues --    5.88223   5.94420   5.98667   5.98852   6.06395
 Alpha virt. eigenvalues --    6.10912   6.11372   6.13045   6.22687   6.25233
 Alpha virt. eigenvalues --    6.27277   6.32216   6.35257   6.60265   6.75128
 Alpha virt. eigenvalues --    7.02205   7.05131   7.05859   7.15860   7.17443
 Alpha virt. eigenvalues --    7.46458   7.82967   7.84608   7.97066   8.00117
 Alpha virt. eigenvalues --    8.27861   8.32292   8.48230   8.51084   8.70056
 Alpha virt. eigenvalues --    8.80254   8.84053   8.97102   9.06520   9.16995
 Alpha virt. eigenvalues --    9.40044   9.50934   9.55514   9.76895  10.02955
 Alpha virt. eigenvalues --   21.17952  21.22477  21.29224  21.33451  21.37432
 Alpha virt. eigenvalues --   21.56422  21.59256  22.03432  22.19832  22.21549
 Alpha virt. eigenvalues --   22.30621  22.33231  22.36871  22.51352  22.72397
 Alpha virt. eigenvalues --   23.39491  24.48348  26.67453  28.43016  28.45686
 Alpha virt. eigenvalues --   28.83692
          Condensed to atoms (all electrons):
               1          2          3          4          5          6
     1  C    4.807903   1.014193  -0.010648   0.416618   0.001090  -0.003074
     2  C    1.014193   4.916372   0.282953   0.004178  -0.063753  -0.051854
     3  C   -0.010648   0.282953   4.791684   0.000172   0.246072   0.425149
     4  H    0.416618   0.004178   0.000172   0.341793  -0.000247   0.000007
     5  Cl   0.001090  -0.063753   0.246072  -0.000247  16.979373  -0.043734
     6  H   -0.003074  -0.051854   0.425149   0.000007  -0.043734   0.570225
     7  H   -0.003074  -0.051854   0.425149   0.000007  -0.043734  -0.032404
               7
     1  C   -0.003074
     2  C   -0.051854
     3  C    0.425149
     4  H    0.000007
     5  Cl  -0.043734
     6  H   -0.032404
     7  H    0.570225
          Atomic-Atomic Spin Densities.
               1          2          3          4          5          6
     1  C    0.000000  -0.000000   0.000000   0.000000  -0.000000   0.000000
     2  C   -0.000000   0.000000  -0.000000   0.000000   0.000000   0.000000
     3  C    0.000000  -0.000000  -0.000000  -0.000000  -0.000000  -0.000000
     4  H    0.000000   0.000000  -0.000000  -0.000000   0.000000   0.000000
     5  Cl  -0.000000   0.000000  -0.000000   0.000000  -0.000000   0.000000
     6  H    0.000000   0.000000  -0.000000   0.000000   0.000000  -0.000000
     7  H    0.000000   0.000000  -0.000000   0.000000   0.000000   0.000000
               7
     1  C    0.000000
     2  C    0.000000
     3  C   -0.000000
     4  H    0.000000
     5  Cl   0.000000
     6  H    0.000000
     7  H   -0.000000
 Mulliken charges and spin densities:
               1          2
     1  C   -0.223008  -0.000000
     2  C   -0.050235  -0.000000
     3  C   -0.160532  -0.000000
     4  H    0.237473  -0.000000
     5  Cl  -0.075067  -0.000000
     6  H    0.135685  -0.000000
     7  H    0.135685  -0.000000
 Sum of Mulliken charges =  -0.00000  -0.00000
 Mulliken charges and spin densities with hydrogens summed into heavy atoms:
               1          2
     1  C    0.014465  -0.000000
     2  C   -0.050235  -0.000000
     3  C    0.110837  -0.000000
     5  Cl  -0.075067  -0.000000
 Electronic spatial extent (au):  <R**2>=            424.9018
 Charge=             -0.0000 electrons
 Dipole moment (field-independent basis, Debye):
    X=              1.4475    Y=              1.2834    Z=             -0.0000  Tot=              1.9345
 Quadrupole moment (field-independent basis, Debye-Ang):
   XX=            -28.7464   YY=            -28.7925   ZZ=            -31.5409
   XY=             -2.8095   XZ=             -0.0000   YZ=              0.0000
 Traceless Quadrupole moment (field-independent basis, Debye-Ang):
   XX=              0.9469   YY=              0.9007   ZZ=             -1.8476
   XY=             -2.8095   XZ=             -0.0000   YZ=              0.0000
 Octapole moment (field-independent basis, Debye-Ang**2):
  XXX=             12.7840  YYY=              2.6021  ZZZ=             -0.0000  XYY=             -2.2479
  XXY=            -13.3231  XXZ=              0.0000  XZZ=             -5.0770  YZZ=              2.4909
  YYZ=              0.0000  XYZ=             -0.0000
 Hexadecapole moment (field-independent basis, Debye-Ang**3):
 XXXX=           -374.0316 YYYY=            -87.0123 ZZZZ=            -42.5688 XXXY=            -28.4157
 XXXZ=              0.0000 YYYX=              3.1968 YYYZ=              0.0000 ZZZX=             -0.0000
 ZZZY=              0.0000 XXYY=            -81.8984 XXZZ=            -91.1392 YYZZ=            -19.9573
 XXYZ=              0.0000 YYXZ=             -0.0000 ZZXY=              1.8857
 N-N= 1.263891000516D+02 E-N=-1.615582248352D+03  KE= 5.746827453817D+02
 Symmetry A'   KE= 5.246542978322D+02
 Symmetry A"   KE= 5.002844754955D+01
 Symmetry A'   SP=-2.726080376165D-15
 Symmetry A"   SP=-7.752398299310D-16
                          Isotropic Fermi Contact Couplings
        Atom                 a.u.       MegaHertz       Gauss      10(-4) cm-1
     1  C(13)             -0.00000      -0.00000      -0.00000      -0.00000
     2  C(13)              0.00000       0.00000       0.00000       0.00000
     3  C(13)             -0.00000      -0.00000      -0.00000      -0.00000
     4  H(1)              -0.00000      -0.00000      -0.00000      -0.00000
     5  Cl(35)            -0.00000      -0.00000      -0.00000      -0.00000
     6  H(1)              -0.00000      -0.00000      -0.00000      -0.00000
     7  H(1)              -0.00000      -0.00000      -0.00000      -0.00000
 --------------------------------------------------------
       Center         ----  Spin Dipole Couplings  ----
                      3XX-RR        3YY-RR        3ZZ-RR
 --------------------------------------------------------
     1   Atom        0.000000      0.000000      0.000000
     2   Atom        0.000000      0.000000      0.000000
     3   Atom        0.000000      0.000000      0.000000
     4   Atom        0.000000      0.000000      0.000000
     5   Atom        0.000000      0.000000      0.000000
     6   Atom        0.000000      0.000000      0.000000
     7   Atom        0.000000      0.000000      0.000000
 --------------------------------------------------------
                        XY            XZ            YZ
 --------------------------------------------------------
     1   Atom        0.000000      0.000000      0.000000
     2   Atom        0.000000      0.000000      0.000000
     3   Atom        0.000000      0.000000      0.000000
     4   Atom        0.000000      0.000000      0.000000
     5   Atom        0.000000      0.000000      0.000000
     6   Atom        0.000000      0.000000      0.000000
     7   Atom        0.000000      0.000000      0.000000
 --------------------------------------------------------


 ---------------------------------------------------------------------------------
              Anisotropic Spin Dipole Couplings in Principal Axis System
 ---------------------------------------------------------------------------------

       Atom             a.u.   MegaHertz   Gauss  10(-4) cm-1        Axes

              Baa     0.0000     0.000     0.000     0.000  1.0000  0.0000  0.0000
     1 C(13)  Bbb     0.0000     0.000     0.000     0.000 -0.0000  1.0000  0.0000
              Bcc     0.0000     0.000     0.000     0.000  0.0000  0.0000  1.0000
 
              Baa     0.0000     0.000     0.000     0.000  1.0000  0.0000  0.0000
     2 C(13)  Bbb     0.0000     0.000     0.000     0.000 -0.0000  1.0000  0.0000
              Bcc     0.0000     0.000     0.000     0.000  0.0000  0.0000  1.0000
 
              Baa     0.0000     0.000     0.000     0.000  1.0000  0.0000  0.0000
     3 C(13)  Bbb     0.0000     0.000     0.000     0.000 -0.0000  1.0000  0.0000
              Bcc     0.0000     0.000     0.000     0.000  0.0000  0.0000  1.0000
 
              Baa     0.0000     0.000     0.000     0.000  1.0000  0.0000  0.0000
     4 H(1)   Bbb     0.0000     0.000     0.000     0.000 -0.0000  1.0000  0.0000
              Bcc     0.0000     0.000     0.000     0.000  0.0000  0.0000  1.0000
 
              Baa     0.0000     0.000     0.000     0.000  1.0000  0.0000  0.0000
     5 Cl(35) Bbb     0.0000     0.000     0.000     0.000 -0.0000  1.0000  0.0000
              Bcc     0.0000     0.000     0.000     0.000  0.0000  0.0000  1.0000
 
              Baa     0.0000     0.000     0.000     0.000  1.0000  0.0000  0.0000
     6 H(1)   Bbb     0.0000     0.000     0.000     0.000 -0.0000  1.0000  0.0000
              Bcc     0.0000     0.000     0.000     0.000  0.0000  0.0000  1.0000
 
              Baa     0.0000     0.000     0.000     0.000  1.0000  0.0000  0.0000
     7 H(1)   Bbb     0.0000     0.000     0.000     0.000 -0.0000  1.0000  0.0000
              Bcc     0.0000     0.000     0.000     0.000  0.0000  0.0000  1.0000
 

 ---------------------------------------------------------------------------------

 1\1\GINC-GAMBA\SP\ROHF\Gen\C3H3Cl1\IRIKURA\29-Sep-2023\0\\# rohf/gen g
 eom=check guess=check\\propargyl chloride, ROHF/cc-pVTZ-F12\\0,1\C,0,2
 .3049791551,-0.4595644301,0.\C,0,1.2552095452,0.1183064851,0.\C,0,-0.0
 001772908,0.8326736278,0.\H,0,3.2332820446,-0.9745924846,0.\Cl,0,-1.43
 41641372,-0.2876226509,0.\H,0,-0.1029269764,1.4541882743,0.8859239876\
 H,0,-0.1029269764,1.4541882743,-0.8859239876\\Version=ES64L-G16RevB.01
 \State=1-A'\HF=-574.8493872\RMSD=4.417e-09\Dipole=0.5692614,0.505155,0
 .\Quadrupole=0.7057777,0.6678871,-1.3736648,-2.0887812,0.,0.\PG=CS [SG
 (C3H1Cl1),X(H2)]\\@


 FROM WHENCE IT HAPPENS, THAT THEY WHICH TRUST TO BOOKS, DO AS THEY THAT CAST UP MANY LITTLE SUMMS INTO GREATER,
 WITHOUT CONSIDERING WETHER THOSE LITTLE SUMMES WERE RIGHTLY CAST UP OR NOT...
 AND AT LAST FINDING THE ERROUR VISIBLE, AND NOT MISTRUSTING THEIR FIRST GROUNDS,
 KNOW NOT WHICH WAY TO CLEERE THEMSELVES...
 BUT SPEND TIME IN FLUTTERING OVER THEIR BOOKES....
 AS BIRDS THAT ENTERING BY THE CHIMNEY, AND FINDING THEMSELVES INCLOSED IN A CHAMBER,
 FLUTTER AT THE FALSE LIGHT OF A GLASSE WINDOW,
 FOR WANT OF WIT TO CONSIDER WHICH WAY THEY CAME IN....
           LEVIATHAN
 Job cpu time:       0 days  0 hours  4 minutes 10.6 seconds.
 Elapsed time:       0 days  0 hours  1 minutes  2.7 seconds.
 File lengths (MBytes):  RWF=     58 Int=      0 D2E=      0 Chk=      7 Scr=      1
 Normal termination of Gaussian 16 at Fri Sep 29 14:56:14 2023.
