 Entering Gaussian System, Link 0=g16
 AtFile(1): pcseg2.gbs
            -H     0
            S   4   1.00
                  0.754732D+02           0.427821D-02
                  0.113575D+02           0.328672D-01
                  0.260081D+01           0.159578D+00
                  0.735503D+00           0.500000D+00
            S   1   1.00
                  0.231761D+00           1.0000000
            S   1   1.00
                  0.741675D-01           1.0000000
            P   1   1.00
                  0.160000D+01           1.0000000
            P   1   1.00
                  0.450000D+00           1.0000000
            D   1   1.00
                  0.125000D+01           1.0000000
            ****
            -C     0
            S   7   1.00
                  0.731999D+04           0.695369D-03
                  0.109818D+04           0.537138D-02
                  0.250014D+03           0.274734D-01
                  0.707586D+02           0.105078D+00
                  0.228595D+02           0.291262D+00
                  0.803936D+01           0.500000D+00
                  0.289309D+01           0.362224D+00
            S   2   1.00
                  0.521640D+01          -0.957844D-01
                  0.556124D+00           0.500000D+00
            S   1   1.00
                  0.228813D+00           1.0000000
            S   1   1.00
                  0.936338D-01           1.0000000
            P   4   1.00
                  0.339855D+02           0.818395D-02
                  0.772957D+01           0.586921D-01
                  0.224954D+01           0.222514D+00
                  0.767681D+00           0.500000D+00
            P   1   1.00
                  0.263283D+00           1.0000000
            P   1   1.00
                  0.848744D-01           1.0000000
            D   1   1.00
                  0.140000D+01           1.0000000
            D   1   1.00
                  0.450000D+00           1.0000000
            F   1   1.00
                  0.950000D+00           1.0000000
            ****
            -O     0
            S   7   1.00
                  0.135887D+05           0.665492D-03
                  0.203847D+04           0.514222D-02
                  0.464041D+03           0.263472D-01
                  0.131339D+03           0.101500D+00
                  0.425340D+02           0.285877D+00
                  0.150429D+02           0.500000D+00
                  0.546616D+01           0.368211D+00
            S   2   1.00
                  0.100915D+02          -0.100084D+00
                  0.110429D+01           0.500000D+00
            S   1   1.00
                  0.448082D+00           1.0000000
            S   1   1.00
                  0.175325D+00           1.0000000
            P   4   1.00
                  0.608220D+02           0.908253D-02
                  0.140332D+02           0.645878D-01
                  0.418244D+01           0.241502D+00
                  0.142490D+01           0.500000D+00
            P   1   1.00
                  0.478741D+00           1.0000000
            P   1   1.00
                  0.146257D+00           1.0000000
            D   1   1.00
                  0.220000D+01           1.0000000
            D   1   1.00
                  0.650000D+00           1.0000000
            F   1   1.00
                  0.110000D+01           1.0000000
            ****
            -N     0
            S   7   1.00
                  0.101643D+05           0.682757D-03
                  0.152481D+04           0.527488D-02
                  0.347119D+03           0.270037D-01
                  0.982389D+02           0.103673D+00
                  0.317799D+02           0.289575D+00
                  0.112240D+02           0.500000D+00
                  0.406611D+01           0.364621D+00
            S   2   1.00
                  0.747898D+01          -0.975681D-01
                  0.805040D+00           0.500000D+00
            S   1   1.00
                  0.324626D+00           1.0000000
            S   1   1.00
                  0.128132D+00           1.0000000
            P   4   1.00
                  0.482704D+02           0.829547D-02
                  0.110815D+02           0.596223D-01
                  0.326643D+01           0.227889D+00
                  0.111680D+01           0.500000D+00
            P   1   1.00
                  0.382049D+00           1.0000000
            P   1   1.00
                  0.121222D+00           1.0000000
            D   1   1.00
                  0.180000D+01           1.0000000
            D   1   1.00
                  0.550000D+00           1.0000000
            F   1   1.00
                  0.102000D+01           1.0000000
            ****
            -F     0
            S   7   1.00
                  0.174507D+05           0.655972D-03
                  0.261768D+04           0.506944D-02
                  0.595857D+03           0.259899D-01
                  0.168651D+03           0.100353D+00
                  0.546654D+02           0.284095D+00
                  0.193717D+02           0.500000D+00
                  0.706202D+01           0.370721D+00
            S   2   1.00
                  0.131197D+02          -0.101997D+00
                  0.145046D+01           0.500000D+00
            S   1   1.00
                  0.588255D+00           1.0000000
            S   1   1.00
                  0.227960D+00           1.0000000
            P   4   1.00
                  0.779407D+02           0.931135D-02
                  0.180425D+02           0.663964D-01
                  0.542342D+01           0.246386D+00
                  0.184876D+01           0.500000D+00
            P   1   1.00
                  0.617455D+00           1.0000000
            P   1   1.00
                  0.185496D+00           1.0000000
            D   1   1.00
                  0.280000D+01           1.0000000
            D   1   1.00
                  0.800000D+00           1.0000000
            F   1   1.00
                  0.120000D+01           1.0000000
            ****
            -Cl     0
            S   8   1.00
                  0.154272D+06           0.222473D-03
                  0.231232D+05           0.172590D-02
                  0.526257D+04           0.899286D-02
                  0.148995D+04           0.367724D-01
                  0.485417D+03           0.121446D+00
                  0.174634D+03           0.304148D+00
                  0.672393D+02           0.500000D+00
                  0.265780D+02           0.360252D+00
            S   3   1.00
                  0.131826D+03          -0.531330D-01
                  0.400703D+02          -0.233346D+00
                  0.789448D+01           0.500000D+00
            S   2   1.00
                  0.427711D+01           0.500000D+00
                  0.196233D+01           0.370517D+00
            S   1   1.00
                  0.520793D+00           1.0000000
            S   1   1.00
                  0.181633D+00           1.0000000
            P   7   1.00
                  0.124440D+04           0.988206D-03
                  0.295109D+03           0.829674D-02
                  0.947224D+02           0.430906D-01
                  0.352588D+02           0.148443D+00
                  0.144211D+02           0.344744D+00
                  0.610371D+01           0.500000D+00
                  0.258886D+01           0.348278D+00
            P   2   1.00
                  0.109447D+02          -0.196768D-01
                  0.104413D+01           0.500000D+00
            P   1   1.00
                  0.376184D+00           1.0000000
            P   1   1.00
                  0.120613D+00           1.0000000
            D   1   1.00
                  0.231000D+01           1.0000000
            D   1   1.00
                  0.520000D+00           1.0000000
            F   1   1.00
                  0.720000D+00           1.0000000
            ****
            -S     0
            S   8   1.00
                  0.134700D+06           0.226231D-03
                  0.201904D+05           0.175488D-02
                  0.459528D+04           0.914190D-02
                  0.130109D+04           0.373551D-01
                  0.423902D+03           0.123121D+00
                  0.152485D+03           0.306801D+00
                  0.586925D+02           0.500000D+00
                  0.231461D+02           0.354358D+00
            S   3   1.00
                  0.116327D+03          -0.491772D-01
                  0.352841D+02          -0.215962D+00
                  0.677831D+01           0.500000D+00
            S   2   1.00
                  0.360404D+01           0.500000D+00
                  0.164871D+01           0.366278D+00
            S   1   1.00
                  0.421821D+00           1.0000000
            S   1   1.00
                  0.147554D+00           1.0000000
            P   7   1.00
                  0.104863D+04           0.105273D-02
                  0.248717D+03           0.879338D-02
                  0.797887D+02           0.453358D-01
                  0.296023D+02           0.154476D+00
                  0.120627D+02           0.352366D+00
                  0.507628D+01           0.500000D+00
                  0.213375D+01           0.346429D+00
            P   2   1.00
                  0.928958D+01          -0.185932D-01
                  0.837819D+00           0.500000D+00
            P   1   1.00
                  0.301495D+00           1.0000000
            P   1   1.00
                  0.974740D-01           1.0000000
            D   1   1.00
                  0.210000D+01           1.0000000
            D   1   1.00
                  0.480000D+00           1.0000000
            F   1   1.00
                  0.660000D+00           1.0000000
            ****
            -Br     0
            S    10   1.00
                  0.233625D+07           0.532336D-04
                  0.349961D+06           0.413715D-03
                  0.796444D+05           0.217123D-02
                  0.225555D+05           0.910109D-02
                  0.735546D+04           0.323789D-01
                  0.265352D+04           0.988755D-01
                  0.103517D+04           0.248138D+00
                  0.422205D+03           0.474328D+00
                  0.180035D+03           0.500000D+00
                  0.793308D+02           0.187769D+00
            S    4   1.00
                  0.620834D+03          -0.226511D-01
                  0.190829D+03          -0.109497D+00
                  0.312505D+02           0.500000D+00
                  0.135270D+02           0.492812D+00
            S    2   1.00
                  0.216097D+02          -0.165418D+00
                  0.372566D+01           0.500000D+00
            S    1   1.00
                  0.169770D+01           1.0000000
            S    1   1.00
                  0.489332D+00           1.0000000
            S    1   1.00
                  0.175712D+00           1.0000000
            P    8   1.00
                  0.960829D+04           0.478974D-03
                  0.227618D+04           0.417853D-02
                  0.736723D+03           0.229315D-01
                  0.281579D+03           0.892653D-01
                  0.118395D+03           0.255288D+00
                  0.527481D+02           0.479074D+00
                  0.245098D+02           0.500000D+00
                  0.112009D+02           0.200944D+00
            P    4   1.00
                  0.587849D+02          -0.189674D-01
                  0.918962D+01           0.264104D+00
                  0.413895D+01           0.500000D+00
                  0.184225D+01           0.319316D+00
            P    1   1.00
                  0.713862D+00           1.0000000
            P    1   1.00
                  0.274232D+00           1.0000000
            P    1   1.00
                  0.944411D-01           1.0000000
            D    7   1.00
                  0.398470D+03           0.204066D-02
                  0.118967D+03           0.175171D-01
                  0.450197D+02           0.829708D-01
                  0.190320D+02           0.236284D+00
                  0.855686D+01           0.428468D+00
                  0.382950D+01           0.500000D+00
                  0.166291D+01           0.349360D+00
            D    1   1.00
                  0.672953D+00           1.0000000
            D    1   1.00
                  0.252000D+00           1.0000000
            F    1   1.00
                  0.530000D+00           1.0000000
            ****
            -Si     0
            S    8   1.00
                  0.996133D+05           0.235546D-03
                  0.149311D+05           0.182707D-02
                  0.339820D+04           0.951425D-02
                  0.962140D+03           0.388172D-01
                  0.313430D+03           0.127328D+00
                  0.112683D+03           0.313522D+00
                  0.433372D+02           0.500000D+00
                  0.170029D+02           0.340347D+00
            S    3   1.00
                  0.884208D+02          -0.404451D-01
                  0.266756D+02          -0.178059D+00
                  0.479640D+01           0.500000D+00
            S    2   1.00
                  0.239385D+01           0.500000D+00
                  0.108333D+01           0.338016D+00
            S    1   1.00
                  0.252420D+00           1.0000000
            S    1   1.00
                  0.891210D-01           1.0000000
            P    7   1.00
                  0.709901D+03           0.123028D-02
                  0.168426D+03           0.101366D-01
                  0.539946D+02           0.511840D-01
                  0.198646D+02           0.169967D+00
                  0.801369D+01           0.370717D+00
                  0.331870D+01           0.500000D+00
                  0.136112D+01           0.344128D+00
            P    2   1.00
                  0.622158D+01          -0.166609D-01
                  0.503049D+00           0.500000D+00
            P    1   1.00
                  0.179848D+00           1.0000000
            P    1   1.00
                  0.591912D-01           1.0000000
            D    1   1.00
                  0.168000D+01           1.0000000
            D    1   1.00
                  0.380000D+00           1.0000000
            F    1   1.00
                  0.540000D+00           1.0000000
            ****
            -P     0
            S    8   1.00
                  0.116416D+06           0.230715D-03
                  0.174500D+05           0.178960D-02
                  0.397149D+04           0.932116D-02
                  0.112447D+04           0.380591D-01
                  0.366347D+03           0.125148D+00
                  0.131757D+03           0.310022D+00
                  0.506988D+02           0.500000D+00
                  0.199436D+02           0.347528D+00
            S    3   1.00
                  0.101878D+03          -0.446755D-01
                  0.308249D+02          -0.196376D+00
                  0.573688D+01           0.500000D+00
            S    2   1.00
                  0.296868D+01           0.500000D+00
                  0.135315D+01           0.355098D+00
            S    1   1.00
                  0.332196D+00           1.0000000
            S    1   1.00
                  0.116229D+00           1.0000000
            P    7   1.00
                  0.873928D+03           0.112375D-02
                  0.207298D+03           0.933330D-02
                  0.664628D+02           0.477213D-01
                  0.245665D+02           0.160733D+00
                  0.996820D+01           0.359760D+00
                  0.416536D+01           0.500000D+00
                  0.173022D+01           0.346593D+00
            P    2   1.00
                  0.772530D+01          -0.175718D-01
                  0.657252D+00           0.500000D+00
            P    1   1.00
                  0.239903D+00           1.0000000
            P    1   1.00
                  0.800988D-01           1.0000000
            D    1   1.00
                  0.189000D+01           1.0000000
            D    1   1.00
                  0.430000D+00           1.0000000
            F    1   1.00
                  0.600000D+00           1.0000000
            ****
            
 Initial command:
 /usr/local/apps/g16_b01_avx/g16/l1.exe "/wrk/irikura/Gau-428115.inp" -scrdir="/wrk/irikura/"
 Entering Link 1 = /usr/local/apps/g16_b01_avx/g16/l1.exe PID=    428117.
  
 Copyright (c) 1988-2017, Gaussian, Inc.  All Rights Reserved.
  
 This is part of the Gaussian(R) 16 program.  It is based on
 the Gaussian(R) 09 system (copyright 2009, Gaussian, Inc.),
 the Gaussian(R) 03 system (copyright 2003, Gaussian, Inc.),
 the Gaussian(R) 98 system (copyright 1998, Gaussian, Inc.),
 the Gaussian(R) 94 system (copyright 1995, Gaussian, Inc.),
 the Gaussian 92(TM) system (copyright 1992, Gaussian, Inc.),
 the Gaussian 90(TM) system (copyright 1990, Gaussian, Inc.),
 the Gaussian 88(TM) system (copyright 1988, Gaussian, Inc.),
 the Gaussian 86(TM) system (copyright 1986, Carnegie Mellon
 University), and the Gaussian 82(TM) system (copyright 1983,
 Carnegie Mellon University). Gaussian is a federally registered
 trademark of Gaussian, Inc.
  
 This software contains proprietary and confidential information,
 including trade secrets, belonging to Gaussian, Inc.
  
 This software is provided under written license and may be
 used, copied, transmitted, or stored only in accord with that
 written license.
  
 The following legend is applicable only to US Government
 contracts under FAR:
  
                    RESTRICTED RIGHTS LEGEND
  
 Use, reproduction and disclosure by the US Government is
 subject to restrictions as set forth in subparagraphs (a)
 and (c) of the Commercial Computer Software - Restricted
 Rights clause in FAR 52.227-19.
  
 Gaussian, Inc.
 340 Quinnipiac St., Bldg. 40, Wallingford CT 06492
  
  
 ---------------------------------------------------------------
 Warning -- This program may not be used in any manner that
 competes with the business of Gaussian, Inc. or will provide
 assistance to any competitor of Gaussian, Inc.  The licensee
 of this program is prohibited from giving any competitor of
 Gaussian, Inc. access to this program.  By using this program,
 the user acknowledges that Gaussian, Inc. is engaged in the
 business of creating and licensing software in the field of
 computational chemistry and represents and warrants to the
 licensee that it is not a competitor of Gaussian, Inc. and that
 it will not use this program in any manner prohibited above.
 ---------------------------------------------------------------
  

 Cite this work as:
 Gaussian 16, Revision B.01,
 M. J. Frisch, G. W. Trucks, H. B. Schlegel, G. E. Scuseria, 
 M. A. Robb, J. R. Cheeseman, G. Scalmani, V. Barone, 
 G. A. Petersson, H. Nakatsuji, X. Li, M. Caricato, A. V. Marenich, 
 J. Bloino, B. G. Janesko, R. Gomperts, B. Mennucci, H. P. Hratchian, 
 J. V. Ortiz, A. F. Izmaylov, J. L. Sonnenberg, D. Williams-Young, 
 F. Ding, F. Lipparini, F. Egidi, J. Goings, B. Peng, A. Petrone, 
 T. Henderson, D. Ranasinghe, V. G. Zakrzewski, J. Gao, N. Rega, 
 G. Zheng, W. Liang, M. Hada, M. Ehara, K. Toyota, R. Fukuda, 
 J. Hasegawa, M. Ishida, T. Nakajima, Y. Honda, O. Kitao, H. Nakai, 
 T. Vreven, K. Throssell, J. A. Montgomery, Jr., J. E. Peralta, 
 F. Ogliaro, M. J. Bearpark, J. J. Heyd, E. N. Brothers, K. N. Kudin, 
 V. N. Staroverov, T. A. Keith, R. Kobayashi, J. Normand, 
 K. Raghavachari, A. P. Rendell, J. C. Burant, S. S. Iyengar, 
 J. Tomasi, M. Cossi, J. M. Millam, M. Klene, C. Adamo, R. Cammi, 
 J. W. Ochterski, R. L. Martin, K. Morokuma, O. Farkas, 
 J. B. Foresman, and D. J. Fox, Gaussian, Inc., Wallingford CT, 2016.
 
 ******************************************
 Gaussian 16:  ES64L-G16RevB.01 20-Dec-2017
                30-Sep-2023 
 ******************************************
 %chk=hcccl.chk
 %mem=500mw
 %nprocs=4
 Will use up to    4 processors via shared memory.
 ---------------------------------------
 # b3lyp/gen opt freq CPHF(Grid=OneStep)
 ---------------------------------------
 1/18=20,19=15,26=3,38=1/1,3;
 2/9=110,12=2,17=6,18=5,40=1/2;
 3/5=7,11=2,25=1,30=1,71=1,74=-5/1,2,3;
 4//1;
 5/5=2,38=5/2;
 6/7=2,8=2,9=2,10=2,28=1/1;
 7//1,2,3,16;
 1/18=20,19=15,26=3/3(2);
 2/9=110/2;
 99//99;
 2/9=110/2;
 3/5=7,6=1,11=2,25=1,30=1,71=1,74=-5,82=7/1,2,3;
 4/5=5,16=3,69=1/1;
 5/5=2,38=5/2;
 7//1,2,3,16;
 1/18=20,19=15,26=3/3(-5);
 2/9=110/2;
 6/7=2,8=2,9=2,10=2,19=2,28=1/1;
 99/9=1/99;
 ------------------------------
 chloroacetylene, B3LYP/pcseg-2
 ------------------------------
 Symbolic Z-matrix:
 Charge =  0 Multiplicity = 1
 C                     0.        0.       -1.81153 
 C                     0.        0.       -0.61397 
 Cl                    0.        0.        1.02503 
 H                     0.        0.       -2.87256 
 

 GradGradGradGradGradGradGradGradGradGradGradGradGradGradGradGradGradGrad
 Berny optimization.
 Initialization pass.
                           ----------------------------
                           !    Initial Parameters    !
                           ! (Angstroms and Degrees)  !
 --------------------------                            --------------------------
 ! Name  Definition              Value          Derivative Info.                !
 --------------------------------------------------------------------------------
 ! R1    R(1,2)                  1.1976         estimate D2E/DX2                !
 ! R2    R(1,4)                  1.061          estimate D2E/DX2                !
 ! R3    R(2,3)                  1.639          estimate D2E/DX2                !
 ! A1    L(2,1,4,-1,-1)        180.0            estimate D2E/DX2                !
 ! A2    L(1,2,3,-1,-1)        180.0            estimate D2E/DX2                !
 ! A3    L(2,1,4,-2,-2)        180.0            estimate D2E/DX2                !
 ! A4    L(1,2,3,-2,-2)        180.0            estimate D2E/DX2                !
 --------------------------------------------------------------------------------
 Trust Radius=3.00D-01 FncErr=1.00D-07 GrdErr=1.00D-06 EigMax=2.50D+02 EigMin=1.00D-04
 Number of steps in this run=     20 maximum allowed number of steps=    100.
 GradGradGradGradGradGradGradGradGradGradGradGradGradGradGradGradGradGrad

                          Input orientation:                          
 ---------------------------------------------------------------------
 Center     Atomic      Atomic             Coordinates (Angstroms)
 Number     Number       Type             X           Y           Z
 ---------------------------------------------------------------------
      1          6           0        0.000000    0.000000   -1.811530
      2          6           0        0.000000    0.000000   -0.613966
      3         17           0        0.000000    0.000000    1.025032
      4          1           0        0.000000    0.000000   -2.872564
 ---------------------------------------------------------------------
                    Distance matrix (angstroms):
                    1          2          3          4
     1  C    0.000000
     2  C    1.197564   0.000000
     3  Cl   2.836562   1.638998   0.000000
     4  H    1.061034   2.258598   3.897596   0.000000
 Stoichiometry    C2HCl
 Framework group  C*V[C*(HCCCl)]
 Deg. of freedom     3
 Full point group                 C*V     NOp   4
 Largest Abelian subgroup         C2V     NOp   4
 Largest concise Abelian subgroup C1      NOp   1
                         Standard orientation:                         
 ---------------------------------------------------------------------
 Center     Atomic      Atomic             Coordinates (Angstroms)
 Number     Number       Type             X           Y           Z
 ---------------------------------------------------------------------
      1          6           0        0.000000    0.000000   -1.811530
      2          6           0        0.000000    0.000000   -0.613966
      3         17           0        0.000000    0.000000    1.025032
      4          1           0        0.000000    0.000000   -2.872564
 ---------------------------------------------------------------------
 Rotational constants (GHZ):           0.0000000           5.6966891           5.6966891
 General basis read from cards:  (5D, 7F)
 There are    58 symmetry adapted cartesian basis functions of A1  symmetry.
 There are    10 symmetry adapted cartesian basis functions of A2  symmetry.
 There are    28 symmetry adapted cartesian basis functions of B1  symmetry.
 There are    28 symmetry adapted cartesian basis functions of B2  symmetry.
 There are    48 symmetry adapted basis functions of A1  symmetry.
 There are    10 symmetry adapted basis functions of A2  symmetry.
 There are    25 symmetry adapted basis functions of B1  symmetry.
 There are    25 symmetry adapted basis functions of B2  symmetry.
   108 basis functions,   190 primitive gaussians,   124 cartesian basis functions
    15 alpha electrons       15 beta electrons
       nuclear repulsion energy        74.5749502729 Hartrees.
 NAtoms=    4 NActive=    4 NUniq=    4 SFac= 1.00D+00 NAtFMM=   60 NAOKFM=F Big=F
 Integral buffers will be    131072 words long.
 Raffenetti 2 integral format.
 Two-electron integral symmetry is turned on.
 One-electron integrals computed using PRISM.
 NBasis=   108 RedAO= T EigKep=  1.22D-04  NBF=    48    10    25    25
 NBsUse=   108 1.00D-06 EigRej= -1.00D+00 NBFU=    48    10    25    25
 ExpMin= 7.42D-02 ExpMax= 1.54D+05 ExpMxC= 1.49D+03 IAcc=3 IRadAn=         5 AccDes= 0.00D+00
 Harris functional with IExCor=  402 and IRadAn=       5 diagonalized for initial guess.
 HarFok:  IExCor=  402 AccDes= 0.00D+00 IRadAn=         5 IDoV= 1 UseB2=F ITyADJ=14
 ICtDFT=  3500011 ScaDFX=  1.000000  1.000000  1.000000  1.000000
 FoFCou: FMM=F IPFlag=           0 FMFlag=      100000 FMFlg1=           0
         NFxFlg=           0 DoJE=T BraDBF=F KetDBF=T FulRan=T
         wScrn=  0.000000 ICntrl=       500 IOpCl=  0 I1Cent=   200000004 NGrid=           0
         NMat0=    1 NMatS0=      1 NMatT0=    0 NMatD0=    1 NMtDS0=    0 NMtDT0=    0
 Petite list used in FoFCou.
 Initial guess orbital symmetries:
       Occupied  (SG) (SG) (SG) (SG) (SG) (PI) (PI) (SG) (SG) (SG)
                 (SG) (PI) (PI) (PI) (PI)
       Virtual   (PI) (PI) (SG) (SG) (SG) (SG) (PI) (PI) (SG) (PI)
                 (PI) (SG) (PI) (PI) (SG) (SG) (DLTA) (DLTA) (PI)
                 (PI) (SG) (DLTA) (DLTA) (SG) (PI) (PI) (SG) (DLTA)
                 (DLTA) (PI) (PI) (SG) (PI) (PI) (PI) (PI) (SG)
                 (SG) (SG) (PI) (PI) (SG) (DLTA) (DLTA) (PHI) (PHI)
                 (PI) (PI) (SG) (SG) (PI) (PI) (SG) (DLTA) (DLTA)
                 (PHI) (PHI) (SG) (SG) (PI) (PI) (DLTA) (DLTA)
                 (PHI) (PHI) (PI) (PI) (DLTA) (DLTA) (DLTA) (DLTA)
                 (PI) (PI) (DLTA) (DLTA) (SG) (PI) (PI) (SG) (DLTA)
                 (DLTA) (PI) (PI) (SG) (SG) (PI) (PI) (SG) (PI)
                 (PI) (SG) (SG) (SG)
 The electronic state of the initial guess is 1-SG.
 Keep R1 ints in memory in symmetry-blocked form, NReq=21827540.
 Requested convergence on RMS density matrix=1.00D-08 within 128 cycles.
 Requested convergence on MAX density matrix=1.00D-06.
 Requested convergence on             energy=1.00D-06.
 No special actions if energy rises.
 Integral accuracy reduced to 1.0D-05 until final iterations.
 Initial convergence to 1.0D-05 achieved.  Increase integral accuracy.
 SCF Done:  E(RB3LYP) =  -536.992919304     A.U. after   12 cycles
            NFock= 12  Conv=0.34D-08     -V/T= 2.0013

 **********************************************************************

            Population analysis using the SCF Density.

 **********************************************************************

 Orbital symmetries:
       Occupied  (SG) (SG) (SG) (SG) (SG) (PI) (PI) (SG) (SG) (SG)
                 (SG) (PI) (PI) (PI) (PI)
       Virtual   (SG) (PI) (PI) (SG) (SG) (SG) (PI) (PI) (SG) (PI)
                 (PI) (SG) (PI) (PI) (SG) (DLTA) (DLTA) (SG) (PI)
                 (PI) (SG) (DLTA) (DLTA) (SG) (PI) (PI) (SG) (DLTA)
                 (DLTA) (SG) (PI) (PI) (PI) (PI) (SG) (PI) (PI)
                 (SG) (SG) (PI) (PI) (SG) (PHI) (PHI) (DLTA) (DLTA)
                 (PI) (PI) (SG) (SG) (PI) (PI) (SG) (DLTA) (DLTA)
                 (PHI) (PHI) (SG) (SG) (PI) (PI) (DLTA) (DLTA)
                 (PHI) (PHI) (DLTA) (DLTA) (PI) (PI) (DLTA) (DLTA)
                 (PI) (PI) (DLTA) (DLTA) (SG) (PI) (PI) (SG) (PI)
                 (PI) (DLTA) (DLTA) (SG) (SG) (PI) (PI) (SG) (PI)
                 (PI) (SG) (SG) (SG)
 The electronic state is 1-SG.
 Alpha  occ. eigenvalues -- -101.56458 -10.23260 -10.18746  -9.50829  -7.27056
 Alpha  occ. eigenvalues --   -7.26083  -7.26083  -0.91595  -0.75682  -0.56306
 Alpha  occ. eigenvalues --   -0.51134  -0.40570  -0.40570  -0.28562  -0.28562
 Alpha virt. eigenvalues --    0.01343   0.01888   0.01888   0.04191   0.07531
 Alpha virt. eigenvalues --    0.16006   0.17209   0.17209   0.24413   0.25610
 Alpha virt. eigenvalues --    0.25610   0.30816   0.35768   0.35768   0.44073
 Alpha virt. eigenvalues --    0.51434   0.51434   0.52180   0.54509   0.54509
 Alpha virt. eigenvalues --    0.66890   0.81907   0.81907   0.84194   0.86202
 Alpha virt. eigenvalues --    0.86202   0.99585   1.17085   1.17085   1.21691
 Alpha virt. eigenvalues --    1.22006   1.22006   1.31922   1.31922   1.33693
 Alpha virt. eigenvalues --    1.34277   1.34277   1.48671   1.60224   1.87368
 Alpha virt. eigenvalues --    1.87368   1.94800   2.07912   2.07912   2.08457
 Alpha virt. eigenvalues --    2.08457   2.18189   2.18189   2.37331   2.39787
 Alpha virt. eigenvalues --    2.53514   2.53514   2.59782   3.01303   3.01303
 Alpha virt. eigenvalues --    3.16477   3.16477   3.27991   3.30029   3.43774
 Alpha virt. eigenvalues --    3.43774   3.46482   3.46482   3.55432   3.55432
 Alpha virt. eigenvalues --    3.81251   3.81251   3.83669   3.83669   3.93441
 Alpha virt. eigenvalues --    3.93441   3.95612   3.95612   4.09186   4.09186
 Alpha virt. eigenvalues --    4.12005   4.24269   4.24269   4.36033   4.59038
 Alpha virt. eigenvalues --    4.59038   4.60316   4.60316   4.78661   5.03993
 Alpha virt. eigenvalues --    5.25753   5.25753   5.46925   5.87750   5.87750
 Alpha virt. eigenvalues --    6.88845   7.62307  34.00181
          Condensed to atoms (all electrons):
               1          2          3          4
     1  C    4.942615   0.709981  -0.054997   0.462128
     2  C    0.709981   5.032502   0.323353  -0.060993
     3  Cl  -0.054997   0.323353  16.743446   0.002295
     4  H    0.462128  -0.060993   0.002295   0.517906
 Mulliken charges:
               1
     1  C   -0.059727
     2  C   -0.004842
     3  Cl  -0.014096
     4  H    0.078665
 Sum of Mulliken charges =  -0.00000
 Mulliken charges with hydrogens summed into heavy atoms:
               1
     1  C    0.018938
     2  C   -0.004842
     3  Cl  -0.014096
 Electronic spatial extent (au):  <R**2>=            222.3240
 Charge=             -0.0000 electrons
 Dipole moment (field-independent basis, Debye):
    X=              0.0000    Y=              0.0000    Z=             -0.3387  Tot=              0.3387
 Quadrupole moment (field-independent basis, Debye-Ang):
   XX=            -25.0087   YY=            -25.0087   ZZ=            -18.1504
   XY=              0.0000   XZ=              0.0000   YZ=              0.0000
 Traceless Quadrupole moment (field-independent basis, Debye-Ang):
   XX=             -2.2861   YY=             -2.2861   ZZ=              4.5722
   XY=              0.0000   XZ=              0.0000   YZ=              0.0000
 Octapole moment (field-independent basis, Debye-Ang**2):
  XXX=              0.0000  YYY=              0.0000  ZZZ=             -7.0166  XYY=              0.0000
  XXY=              0.0000  XXZ=              3.9781  XZZ=              0.0000  YZZ=              0.0000
  YYZ=              3.9781  XYZ=              0.0000
 Hexadecapole moment (field-independent basis, Debye-Ang**3):
 XXXX=            -29.4578 YYYY=            -29.4578 ZZZZ=           -181.4276 XXXY=              0.0000
 XXXZ=              0.0000 YYYX=              0.0000 YYYZ=              0.0000 ZZZX=              0.0000
 ZZZY=              0.0000 XXYY=             -9.8193 XXZZ=            -50.5238 YYZZ=            -50.5238
 XXYZ=              0.0000 YYXZ=              0.0000 ZZXY=              0.0000
 N-N= 7.457495027293D+01 E-N=-1.421913478353D+03  KE= 5.362807403876D+02
 Symmetry A1   KE= 4.393894959088D+02
 Symmetry A2   KE=-3.165154944016D-51
 Symmetry B1   KE= 4.844562223941D+01
 Symmetry B2   KE= 4.844562223941D+01
 Calling FoFJK, ICntrl=      2127 FMM=F ISym2X=1 I1Cent= 0 IOpClX= 0 NMat=1 NMatS=1 NMatT=0.
 ***** Axes restored to original set *****
 -------------------------------------------------------------------
 Center     Atomic                   Forces (Hartrees/Bohr)
 Number     Number              X              Y              Z
 -------------------------------------------------------------------
      1        6          -0.000000000   -0.000000000   -0.000324771
      2        6          -0.000000000   -0.000000000    0.000438690
      3       17          -0.000000000   -0.000000000   -0.000123230
      4        1          -0.000000000   -0.000000000    0.000009310
 -------------------------------------------------------------------
 Cartesian Forces:  Max     0.000438690 RMS     0.000161554

 GradGradGradGradGradGradGradGradGradGradGradGradGradGradGradGradGradGrad
 Berny optimization.
 FormGI is forming the generalized inverse of G from B-inverse, IUseBI=4.
 Internal  Forces:  Max     0.000315460 RMS     0.000128056
 Search for a local minimum.
 Step number   1 out of a maximum of   20
 All quantities printed in internal units (Hartrees-Bohrs-Radians)
 Mixed Optimization -- En-DIIS/RFO-DIIS
 Second derivative matrix not updated -- first step.
 The second derivative matrix:
                          R1        R2        R3        A1        A2
           R1           1.06057
           R2           0.00000   0.38387
           R3           0.00000   0.00000   0.44360
           A1           0.00000   0.00000   0.00000   0.00618
           A2           0.00000   0.00000   0.00000   0.00000   0.01838
           A3           0.00000   0.00000   0.00000   0.00000   0.00000
           A4           0.00000   0.00000   0.00000   0.00000   0.00000
                          A3        A4
           A3           0.00618
           A4           0.00000   0.01838
 ITU=  0
     Eigenvalues ---    0.00618   0.00618   0.01838   0.01838   0.38387
     Eigenvalues ---    0.44360   1.06057
 RFO step:  Lambda=-1.28290297D-07 EMin= 6.17994772D-03
 Linear search not attempted -- first point.
 Iteration  1 RMS(Cart)=  0.00009283 RMS(Int)=  0.00000000
 Iteration  2 RMS(Cart)=  0.00000000 RMS(Int)=  0.00000001
 ClnCor:  largest displacement from symmetrization is 0.00D+00 for atom     0.
 Variable       Old X    -DE/DX   Delta X   Delta X   Delta X     New X
                                 (Linear)    (Quad)   (Total)
    R1        2.26307   0.00032   0.00000   0.00030   0.00030   2.26337
    R2        2.00506  -0.00001   0.00000  -0.00002  -0.00002   2.00504
    R3        3.09726  -0.00012   0.00000  -0.00028  -0.00028   3.09698
    A1        3.14159   0.00000   0.00000  -0.00000  -0.00000   3.14159
    A2        3.14159  -0.00000   0.00000  -0.00000   0.00000   3.14159
    A3        3.14159  -0.00000   0.00000  -0.00000  -0.00000   3.14159
    A4        3.14159   0.00000   0.00000   0.00000   0.00000   3.14159
         Item               Value     Threshold  Converged?
 Maximum Force            0.000315     0.000450     YES
 RMS     Force            0.000128     0.000300     YES
 Maximum Displacement     0.000212     0.001800     YES
 RMS     Displacement     0.000093     0.001200     YES
 Predicted change in Energy=-6.414515D-08
 Optimization completed.
    -- Stationary point found.
                           ----------------------------
                           !   Optimized Parameters   !
                           ! (Angstroms and Degrees)  !
 --------------------------                            --------------------------
 ! Name  Definition              Value          Derivative Info.                !
 --------------------------------------------------------------------------------
 ! R1    R(1,2)                  1.1976         -DE/DX =    0.0003              !
 ! R2    R(1,4)                  1.061          -DE/DX =    0.0                 !
 ! R3    R(2,3)                  1.639          -DE/DX =   -0.0001              !
 ! A1    L(2,1,4,-1,-1)        180.0            -DE/DX =    0.0                 !
 ! A2    L(1,2,3,-1,-1)        180.0            -DE/DX =    0.0                 !
 ! A3    L(2,1,4,-2,-2)        180.0            -DE/DX =    0.0                 !
 ! A4    L(1,2,3,-2,-2)        180.0            -DE/DX =    0.0                 !
 --------------------------------------------------------------------------------
 GradGradGradGradGradGradGradGradGradGradGradGradGradGradGradGradGradGrad

                          Input orientation:                          
 ---------------------------------------------------------------------
 Center     Atomic      Atomic             Coordinates (Angstroms)
 Number     Number       Type             X           Y           Z
 ---------------------------------------------------------------------
      1          6           0        0.000000    0.000000   -1.811530
      2          6           0        0.000000    0.000000   -0.613966
      3         17           0        0.000000    0.000000    1.025032
      4          1           0        0.000000    0.000000   -2.872564
 ---------------------------------------------------------------------
                    Distance matrix (angstroms):
                    1          2          3          4
     1  C    0.000000
     2  C    1.197564   0.000000
     3  Cl   2.836562   1.638998   0.000000
     4  H    1.061034   2.258598   3.897596   0.000000
 Stoichiometry    C2HCl
 Framework group  C*V[C*(HCCCl)]
 Deg. of freedom     3
 Full point group                 C*V     NOp   4
 Largest Abelian subgroup         C2V     NOp   4
 Largest concise Abelian subgroup C1      NOp   1
                         Standard orientation:                         
 ---------------------------------------------------------------------
 Center     Atomic      Atomic             Coordinates (Angstroms)
 Number     Number       Type             X           Y           Z
 ---------------------------------------------------------------------
      1          6           0        0.000000    0.000000   -1.811530
      2          6           0        0.000000    0.000000   -0.613966
      3         17           0        0.000000    0.000000    1.025032
      4          1           0        0.000000    0.000000   -2.872564
 ---------------------------------------------------------------------
 Rotational constants (GHZ):           0.0000000           5.6966891           5.6966891
 1\1\GINC-GAMBA\FOpt\RB3LYP\Gen\C2H1Cl1\IRIKURA\30-Sep-2023\0\\# b3lyp/
 gen opt freq CPHF(Grid=OneStep)\\chloroacetylene, B3LYP/pcseg-2\\0,1\C
 ,0.,0.,-1.81153\C,0.,0.,-0.613966\Cl,0.,0.,1.025032\H,0.,0.,-2.872564\
 \Version=ES64L-G16RevB.01\State=1-SG\HF=-536.9929193\RMSD=3.354e-09\RM
 SF=1.616e-04\Dipole=0.,0.,-0.1332547\Quadrupole=-1.6996597,-1.6996597,
 3.3993193,0.,0.,0.\PG=C*V [C*(H1C1C1Cl1)]\\@


 Make no judgements where you have no compassion.
                               -- Anne McCaffrey
 Job cpu time:       0 days  0 hours  0 minutes 18.7 seconds.
 Elapsed time:       0 days  0 hours  0 minutes  4.7 seconds.
 File lengths (MBytes):  RWF=     10 Int=      0 D2E=      0 Chk=      2 Scr=      1
 Normal termination of Gaussian 16 at Sat Sep 30 01:12:53 2023.
 Link1:  Proceeding to internal job step number  2.
 ------------------------------------------------------------------
 #N Geom=AllCheck Guess=TCheck SCRF=Check GenChk RB3LYP/ChkBas Freq
 ------------------------------------------------------------------
 1/10=4,29=7,30=1,38=1,40=1/1,3;
 2/12=2,40=1/2;
 3/5=7,6=2,11=2,14=-4,25=1,30=1,67=1,70=2,71=2,74=-5,82=7,116=1,140=1/1,2,3;
 4/5=101/1;
 5/5=2,38=6,98=1/2;
 8/6=4,10=90,11=11/1;
 11/6=1,8=1,9=11,15=111,16=1/1,2,10;
 10/6=1,60=-420/2;
 6/7=2,8=2,9=2,10=2,28=1/1;
 7/8=1,10=1,25=1/1,2,3,16;
 1/10=4,30=1/3;
 99//99;
 Structure from the checkpoint file:  "hcccl.chk"
 ------------------------------
 chloroacetylene, B3LYP/pcseg-2
 ------------------------------
 Charge =  0 Multiplicity = 1
 Redundant internal coordinates found in file.  (old form).
 C,0,0.,0.,-1.81153
 C,0,0.,0.,-0.613966
 Cl,0,0.,0.,1.025032
 H,0,0.,0.,-2.872564
 Recover connectivity data from disk.

 GradGradGradGradGradGradGradGradGradGradGradGradGradGradGradGradGradGrad
 Berny optimization.
 Initialization pass.
                           ----------------------------
                           !    Initial Parameters    !
                           ! (Angstroms and Degrees)  !
 --------------------------                            --------------------------
 ! Name  Definition              Value          Derivative Info.                !
 --------------------------------------------------------------------------------
 ! R1    R(1,2)                  1.1976         calculate D2E/DX2 analytically  !
 ! R2    R(1,4)                  1.061          calculate D2E/DX2 analytically  !
 ! R3    R(2,3)                  1.639          calculate D2E/DX2 analytically  !
 ! A1    L(2,1,4,-1,-1)        180.0            calculate D2E/DX2 analytically  !
 ! A2    L(1,2,3,-1,-1)        180.0            calculate D2E/DX2 analytically  !
 ! A3    L(2,1,4,-2,-2)        180.0            calculate D2E/DX2 analytically  !
 ! A4    L(1,2,3,-2,-2)        180.0            calculate D2E/DX2 analytically  !
 --------------------------------------------------------------------------------
 Trust Radius=3.00D-01 FncErr=1.00D-07 GrdErr=1.00D-07 EigMax=2.50D+02 EigMin=1.00D-04
 Number of steps in this run=      2 maximum allowed number of steps=      2.
 GradGradGradGradGradGradGradGradGradGradGradGradGradGradGradGradGradGrad

                          Input orientation:                          
 ---------------------------------------------------------------------
 Center     Atomic      Atomic             Coordinates (Angstroms)
 Number     Number       Type             X           Y           Z
 ---------------------------------------------------------------------
      1          6           0        0.000000    0.000000   -1.811530
      2          6           0        0.000000    0.000000   -0.613966
      3         17           0        0.000000    0.000000    1.025032
      4          1           0        0.000000    0.000000   -2.872564
 ---------------------------------------------------------------------
                    Distance matrix (angstroms):
                    1          2          3          4
     1  C    0.000000
     2  C    1.197564   0.000000
     3  Cl   2.836562   1.638998   0.000000
     4  H    1.061034   2.258598   3.897596   0.000000
 Stoichiometry    C2HCl
 Framework group  C*V[C*(HCCCl)]
 Deg. of freedom     3
 Full point group                 C*V     NOp   4
 Largest Abelian subgroup         C2V     NOp   4
 Largest concise Abelian subgroup C1      NOp   1
                         Standard orientation:                         
 ---------------------------------------------------------------------
 Center     Atomic      Atomic             Coordinates (Angstroms)
 Number     Number       Type             X           Y           Z
 ---------------------------------------------------------------------
      1          6           0        0.000000    0.000000   -1.811530
      2          6           0        0.000000    0.000000   -0.613966
      3         17           0        0.000000    0.000000    1.025032
      4          1           0        0.000000    0.000000   -2.872564
 ---------------------------------------------------------------------
 Rotational constants (GHZ):           0.0000000           5.6966891           5.6966891
 Basis read from chk: "hcccl.chk" (5D, 7F)
 There are    58 symmetry adapted cartesian basis functions of A1  symmetry.
 There are    10 symmetry adapted cartesian basis functions of A2  symmetry.
 There are    28 symmetry adapted cartesian basis functions of B1  symmetry.
 There are    28 symmetry adapted cartesian basis functions of B2  symmetry.
 There are    48 symmetry adapted basis functions of A1  symmetry.
 There are    10 symmetry adapted basis functions of A2  symmetry.
 There are    25 symmetry adapted basis functions of B1  symmetry.
 There are    25 symmetry adapted basis functions of B2  symmetry.
   108 basis functions,   190 primitive gaussians,   124 cartesian basis functions
    15 alpha electrons       15 beta electrons
       nuclear repulsion energy        74.5749502729 Hartrees.
 NAtoms=    4 NActive=    4 NUniq=    4 SFac= 1.00D+00 NAtFMM=   60 NAOKFM=F Big=F
 Integral buffers will be    131072 words long.
 Raffenetti 2 integral format.
 Two-electron integral symmetry is turned on.
 One-electron integrals computed using PRISM.
 NBasis=   108 RedAO= T EigKep=  1.22D-04  NBF=    48    10    25    25
 NBsUse=   108 1.00D-06 EigRej= -1.00D+00 NBFU=    48    10    25    25
 Initial guess from the checkpoint file:  "hcccl.chk"
 B after Tr=     0.000000    0.000000    0.000000
         Rot=    1.000000    0.000000    0.000000    0.000000 Ang=   0.00 deg.
 Initial guess orbital symmetries:
       Occupied  (SG) (SG) (SG) (SG) (SG) (PI) (PI) (SG) (SG) (SG)
                 (SG) (PI) (PI) (PI) (PI)
       Virtual   (SG) (PI) (PI) (SG) (SG) (SG) (PI) (PI) (SG) (PI)
                 (PI) (SG) (PI) (PI) (SG) (DLTA) (DLTA) (SG) (PI)
                 (PI) (SG) (DLTA) (DLTA) (SG) (PI) (PI) (SG) (DLTA)
                 (DLTA) (SG) (PI) (PI) (PI) (PI) (SG) (PI) (PI)
                 (SG) (SG) (PI) (PI) (SG) (PHI) (PHI) (DLTA) (DLTA)
                 (PI) (PI) (SG) (SG) (PI) (PI) (SG) (DLTA) (DLTA)
                 (PHI) (PHI) (SG) (SG) (PI) (PI) (DLTA) (DLTA)
                 (PHI) (PHI) (DLTA) (DLTA) (PI) (PI) (DLTA) (DLTA)
                 (PI) (PI) (DLTA) (DLTA) (SG) (PI) (PI) (SG) (PI)
                 (PI) (DLTA) (DLTA) (SG) (SG) (PI) (PI) (SG) (PI)
                 (PI) (SG) (SG) (SG)
 Keep R1 ints in memory in symmetry-blocked form, NReq=21827540.
 Requested convergence on RMS density matrix=1.00D-08 within 128 cycles.
 Requested convergence on MAX density matrix=1.00D-06.
 Requested convergence on             energy=1.00D-06.
 No special actions if energy rises.
 SCF Done:  E(RB3LYP) =  -536.992919304     A.U. after    1 cycles
            NFock=  1  Conv=0.26D-08     -V/T= 2.0013
 DoSCS=F DFT=T ScalE2(SS,OS)=  1.000000  1.000000
 Range of M.O.s used for correlation:     1   108
 NBasis=   108 NAE=    15 NBE=    15 NFC=     0 NFV=     0
 NROrb=    108 NOA=    15 NOB=    15 NVA=    93 NVB=    93

 **** Warning!!: The largest alpha MO coefficient is  0.36564017D+02

 Symmetrizing basis deriv contribution to polar:
 IMax=3 JMax=2 DiffMx= 0.00D+00
 G2DrvN: will do     5 centers at a time, making    1 passes.
 Calling FoFCou, ICntrl=  3107 FMM=F I1Cent=   0 AccDes= 0.00D+00.
 End of G2Drv F.D. properties file   721 does not exist.
 End of G2Drv F.D. properties file   722 does not exist.
 End of G2Drv F.D. properties file   788 does not exist.
          IDoAtm=1111
          Differentiating once with respect to electric field.
                with respect to dipole field.
          Differentiating once with respect to nuclear coordinates.
 Keep R1 ints in memory in symmetry-blocked form, NReq=21830176.
          There are    15 degrees of freedom in the 1st order CPHF.  IDoFFX=6 NUNeed=     3.
     12 vectors produced by pass  0 Test12= 9.30D-15 6.67D-09 XBig12= 6.80D+01 5.36D+00.
 AX will form    12 AO Fock derivatives at one time.
     12 vectors produced by pass  1 Test12= 9.30D-15 6.67D-09 XBig12= 2.52D+01 1.81D+00.
     12 vectors produced by pass  2 Test12= 9.30D-15 6.67D-09 XBig12= 7.55D-01 2.67D-01.
     12 vectors produced by pass  3 Test12= 9.30D-15 6.67D-09 XBig12= 7.52D-03 2.28D-02.
     12 vectors produced by pass  4 Test12= 9.30D-15 6.67D-09 XBig12= 2.42D-05 1.23D-03.
     12 vectors produced by pass  5 Test12= 9.30D-15 6.67D-09 XBig12= 3.11D-08 4.74D-05.
      5 vectors produced by pass  6 Test12= 9.30D-15 6.67D-09 XBig12= 5.18D-11 1.74D-06.
      1 vectors produced by pass  7 Test12= 9.30D-15 6.67D-09 XBig12= 7.52D-14 6.01D-08.
 InvSVY:  IOpt=1 It=  1 EMax= 5.55D-16
 Solved reduced A of dimension    78 with    12 vectors.
 Isotropic polarizability for W=    0.000000       31.29 Bohr**3.
 End of Minotr F.D. properties file   721 does not exist.
 End of Minotr F.D. properties file   722 does not exist.
 End of Minotr F.D. properties file   788 does not exist.

 **********************************************************************

            Population analysis using the SCF Density.

 **********************************************************************

 Orbital symmetries:
       Occupied  (SG) (SG) (SG) (SG) (SG) (PI) (PI) (SG) (SG) (SG)
                 (SG) (PI) (PI) (PI) (PI)
       Virtual   (SG) (PI) (PI) (SG) (SG) (SG) (PI) (PI) (SG) (PI)
                 (PI) (SG) (PI) (PI) (SG) (DLTA) (DLTA) (SG) (PI)
                 (PI) (SG) (DLTA) (DLTA) (SG) (PI) (PI) (SG) (DLTA)
                 (DLTA) (SG) (PI) (PI) (PI) (PI) (SG) (PI) (PI)
                 (SG) (SG) (PI) (PI) (SG) (PHI) (PHI) (DLTA) (DLTA)
                 (PI) (PI) (SG) (SG) (PI) (PI) (SG) (DLTA) (DLTA)
                 (PHI) (PHI) (SG) (SG) (PI) (PI) (DLTA) (DLTA)
                 (PHI) (PHI) (DLTA) (DLTA) (PI) (PI) (DLTA) (DLTA)
                 (PI) (PI) (DLTA) (DLTA) (SG) (PI) (PI) (SG) (PI)
                 (PI) (DLTA) (DLTA) (SG) (SG) (PI) (PI) (SG) (PI)
                 (PI) (SG) (SG) (SG)
 The electronic state is 1-SG.
 Alpha  occ. eigenvalues -- -101.56458 -10.23260 -10.18746  -9.50829  -7.27056
 Alpha  occ. eigenvalues --   -7.26083  -7.26083  -0.91595  -0.75682  -0.56306
 Alpha  occ. eigenvalues --   -0.51134  -0.40570  -0.40570  -0.28562  -0.28562
 Alpha virt. eigenvalues --    0.01343   0.01888   0.01888   0.04191   0.07531
 Alpha virt. eigenvalues --    0.16006   0.17209   0.17209   0.24413   0.25610
 Alpha virt. eigenvalues --    0.25610   0.30816   0.35768   0.35768   0.44073
 Alpha virt. eigenvalues --    0.51434   0.51434   0.52180   0.54509   0.54509
 Alpha virt. eigenvalues --    0.66890   0.81907   0.81907   0.84194   0.86202
 Alpha virt. eigenvalues --    0.86202   0.99585   1.17085   1.17085   1.21691
 Alpha virt. eigenvalues --    1.22006   1.22006   1.31922   1.31922   1.33693
 Alpha virt. eigenvalues --    1.34277   1.34277   1.48671   1.60224   1.87368
 Alpha virt. eigenvalues --    1.87368   1.94800   2.07912   2.07912   2.08457
 Alpha virt. eigenvalues --    2.08457   2.18189   2.18189   2.37331   2.39788
 Alpha virt. eigenvalues --    2.53514   2.53514   2.59783   3.01303   3.01303
 Alpha virt. eigenvalues --    3.16477   3.16477   3.27991   3.30029   3.43774
 Alpha virt. eigenvalues --    3.43774   3.46482   3.46482   3.55432   3.55432
 Alpha virt. eigenvalues --    3.81251   3.81251   3.83669   3.83669   3.93441
 Alpha virt. eigenvalues --    3.93441   3.95612   3.95612   4.09186   4.09186
 Alpha virt. eigenvalues --    4.12005   4.24269   4.24269   4.36033   4.59038
 Alpha virt. eigenvalues --    4.59038   4.60316   4.60316   4.78661   5.03993
 Alpha virt. eigenvalues --    5.25753   5.25753   5.46925   5.87750   5.87750
 Alpha virt. eigenvalues --    6.88845   7.62307  34.00181
          Condensed to atoms (all electrons):
               1          2          3          4
     1  C    4.942616   0.709981  -0.054997   0.462128
     2  C    0.709981   5.032502   0.323353  -0.060993
     3  Cl  -0.054997   0.323353  16.743446   0.002295
     4  H    0.462128  -0.060993   0.002295   0.517906
 Mulliken charges:
               1
     1  C   -0.059727
     2  C   -0.004842
     3  Cl  -0.014096
     4  H    0.078665
 Sum of Mulliken charges =  -0.00000
 Mulliken charges with hydrogens summed into heavy atoms:
               1
     1  C    0.018938
     2  C   -0.004842
     3  Cl  -0.014096
 APT charges:
               1
     1  C   -0.359129
     2  C    0.217627
     3  Cl  -0.091674
     4  H    0.233176
 Sum of APT charges =  -0.00000
 APT charges with hydrogens summed into heavy atoms:
               1
     1  C   -0.125953
     2  C    0.217627
     3  Cl  -0.091674
 Electronic spatial extent (au):  <R**2>=            222.3240
 Charge=              0.0000 electrons
 Dipole moment (field-independent basis, Debye):
    X=              0.0000    Y=              0.0000    Z=             -0.3387  Tot=              0.3387
 Quadrupole moment (field-independent basis, Debye-Ang):
   XX=            -25.0087   YY=            -25.0087   ZZ=            -18.1504
   XY=              0.0000   XZ=              0.0000   YZ=              0.0000
 Traceless Quadrupole moment (field-independent basis, Debye-Ang):
   XX=             -2.2861   YY=             -2.2861   ZZ=              4.5722
   XY=              0.0000   XZ=              0.0000   YZ=              0.0000
 Octapole moment (field-independent basis, Debye-Ang**2):
  XXX=              0.0000  YYY=              0.0000  ZZZ=             -7.0165  XYY=              0.0000
  XXY=              0.0000  XXZ=              3.9781  XZZ=              0.0000  YZZ=              0.0000
  YYZ=              3.9781  XYZ=              0.0000
 Hexadecapole moment (field-independent basis, Debye-Ang**3):
 XXXX=            -29.4578 YYYY=            -29.4578 ZZZZ=           -181.4276 XXXY=              0.0000
 XXXZ=              0.0000 YYYX=              0.0000 YYYZ=              0.0000 ZZZX=              0.0000
 ZZZY=              0.0000 XXYY=             -9.8193 XXZZ=            -50.5238 YYZZ=            -50.5238
 XXYZ=              0.0000 YYXZ=              0.0000 ZZXY=              0.0000
 N-N= 7.457495027293D+01 E-N=-1.421913473533D+03  KE= 5.362807385247D+02
 Symmetry A1   KE= 4.393894951749D+02
 Symmetry A2   KE= 2.069941389632D-51
 Symmetry B1   KE= 4.844562167492D+01
 Symmetry B2   KE= 4.844562167492D+01
  Exact polarizability:  19.682   0.000  19.682   0.000   0.000  54.521
 Approx polarizability:  26.869  -0.000  26.869  -0.000  -0.000  94.831
 Calling FoFJK, ICntrl=    100127 FMM=F ISym2X=1 I1Cent= 0 IOpClX= 0 NMat=1 NMatS=1 NMatT=0.
 Full mass-weighted force constant matrix:
 Low frequencies ---   -6.2332   -6.2332    0.0019    0.0019    0.0033  350.2486
 Low frequencies ---  350.2486  648.0780  648.0780
 Diagonal vibrational polarizability:
        4.3476650       4.3476650       1.0242179
 Harmonic frequencies (cm**-1), IR intensities (KM/Mole), Raman scattering
 activities (A**4/AMU), depolarization ratios for plane and unpolarized
 incident light, reduced masses (AMU), force constants (mDyne/A),
 and normal coordinates:
                      1                      2                      3
                     PI                     PI                     PI
 Frequencies --    350.2481               350.2481               648.0780
 Red. masses --      6.5387                 6.5387                 1.2264
 Frc consts  --      0.4726                 0.4726                 0.3035
 IR Inten    --      5.0867                 5.0867                50.4386
  Atom  AN      X      Y      Z        X      Y      Z        X      Y      Z
     1   6     0.00  -0.28  -0.00    -0.28   0.00   0.00    -0.14  -0.00  -0.00
     2   6     0.00   0.63  -0.00     0.63   0.00   0.00     0.04  -0.00  -0.00
     3  17     0.00  -0.10   0.00    -0.10   0.00   0.00     0.01  -0.00  -0.00
     4   1     0.00  -0.72  -0.00    -0.72   0.00   0.00     0.99  -0.00  -0.00
                      4                      5                      6
                     PI                     SG                     SG
 Frequencies --    648.0780               753.3344              2199.0185
 Red. masses --      1.2264                11.0228                 5.9896
 Frc consts  --      0.3035                 3.6857                17.0651
 IR Inten    --     50.4386                10.9627                51.4469
  Atom  AN      X      Y      Z        X      Y      Z        X      Y      Z
     1   6    -0.00  -0.14   0.00    -0.00  -0.00  -0.56     0.00   0.00  -0.40
     2   6    -0.00   0.04   0.00    -0.00  -0.00  -0.44     0.00   0.00   0.54
     3  17    -0.00   0.01  -0.00    -0.00   0.00   0.36     0.00  -0.00  -0.03
     4   1    -0.00   0.99   0.00    -0.00   0.00  -0.60     0.00  -0.00  -0.74
                      7
                     SG
 Frequencies --   3476.1440
 Red. masses --      1.1586
 Frc consts  --      8.2484
 IR Inten    --     97.9139
  Atom  AN      X      Y      Z
     1   6    -0.00   0.00  -0.11
     2   6    -0.00  -0.00   0.03
     3  17    -0.00   0.00  -0.00
     4   1    -0.00  -0.00   0.99

 -------------------
 - Thermochemistry -
 -------------------
 Temperature   298.150 Kelvin.  Pressure   1.00000 Atm.
 Atom     1 has atomic number  6 and mass  12.00000
 Atom     2 has atomic number  6 and mass  12.00000
 Atom     3 has atomic number 17 and mass  34.96885
 Atom     4 has atomic number  1 and mass   1.00783
 Molecular mass:    59.97668 amu.
 Principal axes and moments of inertia in atomic units:
                           1         2         3
     Eigenvalues --     0.00000 316.80528 316.80528
           X            0.00000  -0.00000   1.00000
           Y            0.00000   1.00000   0.00000
           Z            1.00000   0.00000   0.00000
 This molecule is a prolate symmetric top.
 Rotational symmetry number  1.
 Rotational temperature (Kelvin)      0.27340
 Rotational constant (GHZ):           5.696689
 Zero-point vibrational energy      50393.6 (Joules/Mol)
                                   12.04436 (Kcal/Mol)
 Warning -- explicit consideration of   2 degrees of freedom as
           vibrations may cause significant error
 Vibrational temperatures:    503.93   503.93   932.44   932.44  1083.88
          (Kelvin)           3163.90  5001.40
 
 Zero-point correction=                           0.019194 (Hartree/Particle)
 Thermal correction to Energy=                    0.022640
 Thermal correction to Enthalpy=                  0.023585
 Thermal correction to Gibbs Free Energy=        -0.003692
 Sum of electronic and zero-point Energies=           -536.973725
 Sum of electronic and thermal Energies=              -536.970279
 Sum of electronic and thermal Enthalpies=            -536.969335
 Sum of electronic and thermal Free Energies=         -536.996611
 
                     E (Thermal)             CV                S
                      KCal/Mol        Cal/Mol-Kelvin    Cal/Mol-Kelvin
 Total                   14.207             10.717             57.408
 Electronic               0.000              0.000              0.000
 Translational            0.889              2.981             38.194
 Rotational               0.592              1.987             15.887
 Vibrational             12.726              5.749              3.327
 Vibration     1          0.727              1.575              1.165
 Vibration     2          0.727              1.575              1.165
                       Q            Log10(Q)             Ln(Q)
 Total Bot       0.499090D+02          1.698179          3.910201
 Total V=0       0.336320D+11         10.526753         24.238744
 Vib (Bot)       0.250675D-08         -8.600888        -19.804278
 Vib (Bot)    1  0.526683D+00         -0.278451         -0.641157
 Vib (Bot)    2  0.526683D+00         -0.278451         -0.641157
 Vib (V=0)       0.168922D+01          0.227686          0.524266
 Vib (V=0)    1  0.122622D+01          0.088568          0.203936
 Vib (V=0)    2  0.122622D+01          0.088568          0.203936
 Electronic      0.100000D+01          0.000000          0.000000
 Translational   0.182569D+08          7.261427         16.720055
 Rotational      0.109053D+04          3.037640          6.994423
 ***** Axes restored to original set *****
 -------------------------------------------------------------------
 Center     Atomic                   Forces (Hartrees/Bohr)
 Number     Number              X              Y              Z
 -------------------------------------------------------------------
      1        6          -0.000000000   -0.000000000   -0.000324722
      2        6          -0.000000000   -0.000000000    0.000438710
      3       17          -0.000000000   -0.000000000   -0.000123277
      4        1          -0.000000000   -0.000000000    0.000009290
 -------------------------------------------------------------------
 Cartesian Forces:  Max     0.000438710 RMS     0.000161553
 FormGI is forming the generalized inverse of G from B-inverse, IUseBI=4.

 GradGradGradGradGradGradGradGradGradGradGradGradGradGradGradGradGradGrad
 Berny optimization.
 Internal  Forces:  Max     0.000315432 RMS     0.000128052
 Search for a local minimum.
 Step number   1 out of a maximum of    2
 All quantities printed in internal units (Hartrees-Bohrs-Radians)
 Second derivative matrix not updated -- analytic derivatives used.
 The second derivative matrix:
                          R1        R2        R3        A1        A2
           R1           1.09686
           R2          -0.00528   0.41313
           R3           0.02339  -0.00176   0.33612
           A1          -0.00000   0.00000  -0.00000   0.05335
           A2           0.00000  -0.00000   0.00000  -0.02586   0.08570
           A3           0.00000  -0.00000   0.00000  -0.00000   0.00000
           A4          -0.00000   0.00000  -0.00000   0.00000  -0.00000
                          A3        A4
           A3           0.05335
           A4          -0.02586   0.08570
 ITU=  0
     Eigenvalues ---    0.03902   0.03902   0.10002   0.10002   0.33537
     Eigenvalues ---    0.41312   1.09762
 Angle between quadratic step and forces=  31.29 degrees.
 Linear search not attempted -- first point.
 Iteration  1 RMS(Cart)=  0.00010935 RMS(Int)=  0.00000000
 Iteration  2 RMS(Cart)=  0.00000000 RMS(Int)=  0.00000001
 ClnCor:  largest displacement from symmetrization is 0.00D+00 for atom     0.
 Variable       Old X    -DE/DX   Delta X   Delta X   Delta X     New X
                                 (Linear)    (Quad)   (Total)
    R1        2.26307   0.00032   0.00000   0.00030   0.00030   2.26336
    R2        2.00506  -0.00001   0.00000  -0.00002  -0.00002   2.00504
    R3        3.09726  -0.00012   0.00000  -0.00039  -0.00039   3.09687
    A1        3.14159   0.00000   0.00000   0.00000   0.00000   3.14159
    A2        3.14159  -0.00000   0.00000   0.00000  -0.00000   3.14159
    A3        3.14159  -0.00000   0.00000  -0.00000   0.00000   3.14159
    A4        3.14159   0.00000   0.00000   0.00000  -0.00000   3.14159
         Item               Value     Threshold  Converged?
 Maximum Force            0.000315     0.000450     YES
 RMS     Force            0.000128     0.000300     YES
 Maximum Displacement     0.000240     0.001800     YES
 RMS     Displacement     0.000109     0.001200     YES
 Predicted change in Energy=-7.062008D-08
 Optimization completed.
    -- Stationary point found.
                           ----------------------------
                           !   Optimized Parameters   !
                           ! (Angstroms and Degrees)  !
 --------------------------                            --------------------------
 ! Name  Definition              Value          Derivative Info.                !
 --------------------------------------------------------------------------------
 ! R1    R(1,2)                  1.1976         -DE/DX =    0.0003              !
 ! R2    R(1,4)                  1.061          -DE/DX =    0.0                 !
 ! R3    R(2,3)                  1.639          -DE/DX =   -0.0001              !
 ! A1    L(2,1,4,-1,-1)        180.0            -DE/DX =    0.0                 !
 ! A2    L(1,2,3,-1,-1)        180.0            -DE/DX =    0.0                 !
 ! A3    L(2,1,4,-2,-2)        180.0            -DE/DX =    0.0                 !
 ! A4    L(1,2,3,-2,-2)        180.0            -DE/DX =    0.0                 !
 --------------------------------------------------------------------------------
 GradGradGradGradGradGradGradGradGradGradGradGradGradGradGradGradGradGrad


 ----------------------------------------------------------------------

 Electric dipole moment (input orientation):
 (Debye = 10**-18 statcoulomb cm , SI units = C m)
                  (au)            (Debye)         (10**-30 SI)
   Tot        0.133254D+00      0.338697D+00      0.112977D+01
   x          0.000000D+00      0.000000D+00      0.000000D+00
   y          0.000000D+00      0.000000D+00      0.000000D+00
   z         -0.133254D+00     -0.338697D+00     -0.112977D+01

 Dipole polarizability, Alpha (input orientation).
 (esu units = cm**3 , SI units = C**2 m**2 J**-1)
 Alpha(0;0):
               (au)            (10**-24 esu)      (10**-40 SI)
   iso        0.312947D+02      0.463740D+01      0.515980D+01
   aniso      0.348394D+02      0.516267D+01      0.574425D+01
   xx         0.196816D+02      0.291651D+01      0.324505D+01
   yx         0.000000D+00      0.000000D+00      0.000000D+00
   yy         0.196816D+02      0.291651D+01      0.324505D+01
   zx         0.000000D+00      0.000000D+00      0.000000D+00
   zy         0.000000D+00      0.000000D+00      0.000000D+00
   zz         0.545210D+02      0.807918D+01      0.898930D+01

 ----------------------------------------------------------------------

 Dipole orientation:
     6          0.00000000          0.00000000          3.42329557
     6          0.00000000          0.00000000          1.16022759
    17          0.00000000          0.00000000         -1.93702975
     1          0.00000000          0.00000000          5.42835924

 Electric dipole moment (dipole orientation):
 (Debye = 10**-18 statcoulomb cm , SI units = C m)
                  (au)            (Debye)         (10**-30 SI)
   Tot        0.133254D+00      0.338697D+00      0.112977D+01
   x          0.000000D+00      0.000000D+00      0.000000D+00
   y          0.000000D+00      0.000000D+00      0.000000D+00
   z          0.133254D+00      0.338697D+00      0.112977D+01

 Dipole polarizability, Alpha (dipole orientation).
 (esu units = cm**3 , SI units = C**2 m**2 J**-1)
 Alpha(0;0):
               (au)            (10**-24 esu)      (10**-40 SI)
   iso        0.312947D+02      0.463740D+01      0.515980D+01
   aniso      0.348394D+02      0.516267D+01      0.574425D+01
   xx         0.196816D+02      0.291651D+01      0.324505D+01
   yx         0.000000D+00      0.000000D+00      0.000000D+00
   yy         0.196816D+02      0.291651D+01      0.324505D+01
   zx         0.000000D+00      0.000000D+00      0.000000D+00
   zy         0.000000D+00      0.000000D+00      0.000000D+00
   zz         0.545210D+02      0.807918D+01      0.898930D+01

 ----------------------------------------------------------------------
 1\1\GINC-GAMBA\Freq\RB3LYP\Gen\C2H1Cl1\IRIKURA\30-Sep-2023\0\\#N Geom=
 AllCheck Guess=TCheck SCRF=Check GenChk RB3LYP/ChkBas Freq\\chloroacet
 ylene, B3LYP/pcseg-2\\0,1\C,0.,0.,-1.81153\C,0.,0.,-0.613966\Cl,0.,0.,
 1.025032\H,0.,0.,-2.872564\\Version=ES64L-G16RevB.01\State=1-SG\HF=-53
 6.9929193\RMSD=2.619e-09\RMSF=1.616e-04\ZeroPoint=0.0191939\Thermal=0.
 0226403\Dipole=0.,0.,-0.1332536\DipoleDeriv=-0.2216844,0.,0.,0.,-0.221
 6844,0.,0.,0.,-0.6340185,-0.1149603,0.,0.,0.,-0.1149603,0.,0.,0.,0.882
 802,0.1088743,0.,0.,0.,0.1088743,0.,0.,0.,-0.4927704,0.2277703,0.,0.,0
 .,0.2277703,0.,0.,0.,0.2439868\Polar=19.6815843,0.,19.6815843,0.,0.,54
 .5210157\Quadrupole=-1.6996585,-1.6996585,3.399317,0.,0.,0.\PG=C*V [C*
 (H1C1C1Cl1)]\NImag=0\\0.04230492,0.,0.04230492,0.,0.,1.52055455,-0.027
 34527,0.,0.,0.04296067,0.,-0.02734527,0.,0.,0.04296067,0.,0.,-1.076992
 96,0.,0.,1.38619518,0.00437453,0.,0.,-0.01750626,0.,0.,0.00896508,0.,0
 .00437453,0.,0.,-0.01750626,0.,0.,0.00896508,0.,0.,-0.02514996,0.,0.,-
 0.31272871,0.,0.,0.33612092,-0.01933418,0.,0.,0.00189087,0.,0.,0.00416
 665,0.,0.,0.01327666,0.,-0.01933418,0.,0.,0.00189087,0.,0.,0.00416665,
 0.,0.,0.01327666,0.,0.,-0.41841163,0.,0.,0.00352649,0.,0.,0.00175775,0
 .,0.,0.41312740\\0.,0.,0.00032472,0.,0.,-0.00043871,0.,0.,0.00012328,0
 .,0.,-0.00000929\\\@


 I WANT IT ALL - RICH, THIN, AND CHOCOLATE.
 Job cpu time:       0 days  0 hours  1 minutes 35.0 seconds.
 Elapsed time:       0 days  0 hours  0 minutes 23.8 seconds.
 File lengths (MBytes):  RWF=     10 Int=      0 D2E=      0 Chk=      2 Scr=      1
 Normal termination of Gaussian 16 at Sat Sep 30 01:13:17 2023.
 AtFile(1): ccpvtz-f12.gbs
            -H     0
            S    3   1.00
                 82.6400000              0.0020060
                 12.4100000              0.0153430
                  2.8240000              0.0755790
            S    1   1.00
                  0.7977000              1.0000000
            S    1   1.00
                  0.2581000              1.0000000
            S    1   1.00
                  0.0898900              1.0000000
            P    1   1.00
                  1.5513000              1.0000000
            P    1   1.00
                  0.5580000              1.0000000
            P    1   1.00
                  0.2007000              1.0000000
            D    1   1.00
                  0.4648000              1.0000000
            ****
            -He     0
            S    4   1.00
                528.5000000              0.0009400
                 79.3100000              0.0072140
                 18.0500000              0.0359750
                  5.0850000              0.1277820
            S    1   1.00
                  1.6090000              1.0000000
            S    1   1.00
                  0.5363000              1.0000000
            S    1   1.00
                  0.1833000              1.0000000
            S    1   1.00
                  0.0481900              1.0000000
            P    1   1.00
                  3.7026000              1.0000000
            P    1   1.00
                  1.2284000              1.0000000
            P    1   1.00
                  0.4075000              1.0000000
            D    1   1.00
                  0.6525000              1.0000000
            ****
            -Li     0
            S    9   1.00
               6601.0000000              0.0001170
                989.7000000              0.0009110
                225.7000000              0.0047280
                 64.2900000              0.0191970
                 21.1800000              0.0630470
                  7.7240000              0.1632080
                  3.0030000              0.3148270
                  1.2120000              0.3939360
                  0.4930000              0.1969180
            S    9   1.00
               6601.0000000             -0.0000180
                989.7000000             -0.0001420
                225.7000000             -0.0007410
                 64.2900000             -0.0030200
                 21.1800000             -0.0101230
                  7.7240000             -0.0270940
                  3.0030000             -0.0573590
                  1.2120000             -0.0938950
                  0.4930000             -0.1210910
            S    1   1.00
                  0.0951500              1.0000000
            S    1   1.00
                  0.0479100              1.0000000
            S    1   1.00
                  0.0222000              1.0000000
            S    1   1.00
                  0.0064000              1.0000000
            P    2   1.00
                  6.2500000              0.0033880
                  1.3700000              0.0193160
            P    1   1.00
                  0.3672000              1.0000000
            P    1   1.00
                  0.1192000              1.0000000
            P    1   1.00
                  0.0447400              1.0000000
            P    1   1.00
                  0.0179500              1.0000000
            P    1   1.00
                  0.0075000              1.0000000
            D    1   1.00
                  0.2351180              1.0000000
            D    1   1.00
                  0.1194040              1.0000000
            D    1   1.00
                  0.0606390              1.0000000
            F    1   1.00
                  0.1637750              1.0000000
            F    1   1.00
                  0.0759100              1.0000000
            ****
            -Be     0
            S    9   1.00
              14630.0000000              0.0000920
               2191.0000000              0.0007130
                498.2000000              0.0037350
                140.9000000              0.0154680
                 45.8600000              0.0528740
                 16.4700000              0.1456940
                  6.3190000              0.3026810
                  2.5350000              0.4049360
                  1.0350000              0.2223870
            S    9   1.00
              14630.0000000             -0.0000170
               2191.0000000             -0.0001300
                498.2000000             -0.0006790
                140.9000000             -0.0028570
                 45.8600000             -0.0098130
                 16.4700000             -0.0286090
                  6.3190000             -0.0637600
                  2.5350000             -0.1172310
                  1.0350000             -0.1212020
            S    1   1.00
                  0.2528000              1.0000000
            S    1   1.00
                  0.1052000              1.0000000
            S    1   1.00
                  0.0426100              1.0000000
            S    1   1.00
                  0.0141000              1.0000000
            P    2   1.00
                 14.0300000              0.0040990
                  3.1680000              0.0256260
            P    1   1.00
                  0.9024000              1.0000000
            P    1   1.00
                  0.3036000              1.0000000
            P    1   1.00
                  0.1130000              1.0000000
            P    1   1.00
                  0.0428600              1.0000000
            P    1   1.00
                  0.0084000              1.0000000
            D    1   1.00
                  0.4670460              1.0000000
            D    1   1.00
                  0.2205970              1.0000000
            D    1   1.00
                  0.1041940              1.0000000
            F    1   1.00
                  0.3166400              1.0000000
            F    1   1.00
                  0.1457880              1.0000000
            ****
            -B     0
            S    9   1.00
              23870.0000000              0.0000880
               3575.0000000              0.0006870
                812.8000000              0.0036000
                229.7000000              0.0149490
                 74.6900000              0.0514350
                 26.8100000              0.1433020
                 10.3200000              0.3009350
                  4.1780000              0.4035260
                  1.7270000              0.2253400
            S    9   1.00
              23870.0000000             -0.0000180
               3575.0000000             -0.0001390
                812.8000000             -0.0007250
                229.7000000             -0.0030630
                 74.6900000             -0.0105810
                 26.8100000             -0.0313650
                 10.3200000             -0.0710120
                  4.1780000             -0.1321030
                  1.7270000             -0.1230720
            S    1   1.00
                  0.4704000              1.0000000
            S    1   1.00
                  0.1896000              1.0000000
            S    1   1.00
                  0.0739400              1.0000000
            S    1   1.00
                  0.0272100              1.0000000
            P    2   1.00
                 22.2600000              0.0050950
                  5.0580000              0.0332060
            P    1   1.00
                  1.4870000              1.0000000
            P    1   1.00
                  0.5071000              1.0000000
            P    1   1.00
                  0.1812000              1.0000000
            P    1   1.00
                  0.0646300              1.0000000
            P    1   1.00
                  0.0187800              1.0000000
            D    1   1.00
                  1.4403000              1.0000000
            D    1   1.00
                  0.5333000              1.0000000
            D    1   1.00
                  0.1975000              1.0000000
            F    1   1.00
                  0.8479000              1.0000000
            F    1   1.00
                  0.2484000              1.0000000
            ****
            -C     0
            S    9   1.00
              33980.0000000              0.0000910
               5089.0000000              0.0007040
               1157.0000000              0.0036930
                326.6000000              0.0153600
                106.1000000              0.0529290
                 38.1100000              0.1470430
                 14.7500000              0.3056310
                  6.0350000              0.3993450
                  2.5300000              0.2170510
            S    9   1.00
              33980.0000000             -0.0000190
               5089.0000000             -0.0001510
               1157.0000000             -0.0007850
                326.6000000             -0.0033240
                106.1000000             -0.0115120
                 38.1100000             -0.0341600
                 14.7500000             -0.0771730
                  6.0350000             -0.1414930
                  2.5300000             -0.1180190
            S    1   1.00
                  0.7355000              1.0000000
            S    1   1.00
                  0.2905000              1.0000000
            S    1   1.00
                  0.1111000              1.0000000
            S    1   1.00
                  0.0414500              1.0000000
            P    2   1.00
                 34.5100000              0.0053780
                  7.9150000              0.0361320
            P    1   1.00
                  2.3680000              1.0000000
            P    1   1.00
                  0.8132000              1.0000000
            P    1   1.00
                  0.2890000              1.0000000
            P    1   1.00
                  0.1007000              1.0000000
            P    1   1.00
                  0.0321800              1.0000000
            D    1   1.00
                  2.2805000              1.0000000
            D    1   1.00
                  0.7834000              1.0000000
            D    1   1.00
                  0.2691000              1.0000000
            F    1   1.00
                  1.0371000              1.0000000
            F    1   1.00
                  0.3459000              1.0000000
            ****
            -N     0
            S    9   1.00
              45840.0000000              0.0000920
               6868.0000000              0.0007170
               1563.0000000              0.0037490
                442.4000000              0.0155320
[...]
 of this program is prohibited from giving any competitor of
 Gaussian, Inc. access to this program.  By using this program,
 the user acknowledges that Gaussian, Inc. is engaged in the
 business of creating and licensing software in the field of
 computational chemistry and represents and warrants to the
 licensee that it is not a competitor of Gaussian, Inc. and that
 it will not use this program in any manner prohibited above.
 ---------------------------------------------------------------
  

 Cite this work as:
 Gaussian 16, Revision B.01,
 M. J. Frisch, G. W. Trucks, H. B. Schlegel, G. E. Scuseria, 
 M. A. Robb, J. R. Cheeseman, G. Scalmani, V. Barone, 
 G. A. Petersson, H. Nakatsuji, X. Li, M. Caricato, A. V. Marenich, 
 J. Bloino, B. G. Janesko, R. Gomperts, B. Mennucci, H. P. Hratchian, 
 J. V. Ortiz, A. F. Izmaylov, J. L. Sonnenberg, D. Williams-Young, 
 F. Ding, F. Lipparini, F. Egidi, J. Goings, B. Peng, A. Petrone, 
 T. Henderson, D. Ranasinghe, V. G. Zakrzewski, J. Gao, N. Rega, 
 G. Zheng, W. Liang, M. Hada, M. Ehara, K. Toyota, R. Fukuda, 
 J. Hasegawa, M. Ishida, T. Nakajima, Y. Honda, O. Kitao, H. Nakai, 
 T. Vreven, K. Throssell, J. A. Montgomery, Jr., J. E. Peralta, 
 F. Ogliaro, M. J. Bearpark, J. J. Heyd, E. N. Brothers, K. N. Kudin, 
 V. N. Staroverov, T. A. Keith, R. Kobayashi, J. Normand, 
 K. Raghavachari, A. P. Rendell, J. C. Burant, S. S. Iyengar, 
 J. Tomasi, M. Cossi, J. M. Millam, M. Klene, C. Adamo, R. Cammi, 
 J. W. Ochterski, R. L. Martin, K. Morokuma, O. Farkas, 
 J. B. Foresman, and D. J. Fox, Gaussian, Inc., Wallingford CT, 2016.
 
 ******************************************
 Gaussian 16:  ES64L-G16RevB.01 20-Dec-2017
                30-Sep-2023 
 ******************************************
 %chk=hcccl.chk
 %mem=500mw
 %nprocs=4
 Will use up to    4 processors via shared memory.
 ---------------------------------
 # rohf/gen geom=check guess=check
 ---------------------------------
 1/29=2,38=1,172=1/1;
 2/12=2,40=1/2;
 3/5=7,11=2,14=-4,25=1,30=1,116=101/1,2,3;
 4/5=1/1;
 5/5=2,38=6/2;
 6/7=2,8=2,9=2,10=2,28=1/1;
 99/5=1,9=1/99;
 ---------------------------------
 chloroacetylene, ROHF/cc-pVTZ-F12
 ---------------------------------
 Structure from the checkpoint file:  "hcccl.chk"
 Charge =  0 Multiplicity = 1
 Redundant internal coordinates found in file.  (old form).
 C,0,0.,0.,-1.81153
 C,0,0.,0.,-0.613966
 Cl,0,0.,0.,1.025032
 H,0,0.,0.,-2.872564
 Recover connectivity data from disk.
                           ----------------------------
                           !    Current Parameters    !
                           ! (Angstroms and Degrees)  !
 --------------------------                            --------------------------
 ! Name  Definition              Value                                          !
 --------------------------------------------------------------------------------
 ! R1    R(1,2)                  1.1976                                         !
 ! R2    R(1,4)                  1.061                                          !
 ! R3    R(2,3)                  1.639                                          !
 ! A1    L(2,1,4,-1,-1)        180.0                                            !
 ! A2    L(1,2,3,-1,-1)        180.0                                            !
 ! A3    L(2,1,4,-2,-2)        180.0                                            !
 ! A4    L(1,2,3,-2,-2)        180.0                                            !
 --------------------------------------------------------------------------------
                          Input orientation:                          
 ---------------------------------------------------------------------
 Center     Atomic      Atomic             Coordinates (Angstroms)
 Number     Number       Type             X           Y           Z
 ---------------------------------------------------------------------
      1          6           0        0.000000    0.000000   -1.811530
      2          6           0        0.000000    0.000000   -0.613966
      3         17           0        0.000000    0.000000    1.025032
      4          1           0        0.000000    0.000000   -2.872564
 ---------------------------------------------------------------------
                    Distance matrix (angstroms):
                    1          2          3          4
     1  C    0.000000
     2  C    1.197564   0.000000
     3  Cl   2.836562   1.638998   0.000000
     4  H    1.061034   2.258598   3.897596   0.000000
 Stoichiometry    C2HCl
 Framework group  C*V[C*(HCCCl)]
 Deg. of freedom     3
 Full point group                 C*V     NOp   4
 Largest Abelian subgroup         C2V     NOp   4
 Largest concise Abelian subgroup C1      NOp   1
                         Standard orientation:                         
 ---------------------------------------------------------------------
 Center     Atomic      Atomic             Coordinates (Angstroms)
 Number     Number       Type             X           Y           Z
 ---------------------------------------------------------------------
      1          6           0        0.000000    0.000000   -1.811530
      2          6           0        0.000000    0.000000   -0.613966
      3         17           0        0.000000    0.000000    1.025032
      4          1           0        0.000000    0.000000   -2.872564
 ---------------------------------------------------------------------
 Rotational constants (GHZ):           0.0000000           5.6966891           5.6966891
 General basis read from cards:  (5D, 7F)
 There are    96 symmetry adapted cartesian basis functions of A1  symmetry.
 There are    17 symmetry adapted cartesian basis functions of A2  symmetry.
 There are    51 symmetry adapted cartesian basis functions of B1  symmetry.
 There are    51 symmetry adapted cartesian basis functions of B2  symmetry.
 There are    79 symmetry adapted basis functions of A1  symmetry.
 There are    17 symmetry adapted basis functions of A2  symmetry.
 There are    45 symmetry adapted basis functions of B1  symmetry.
 There are    45 symmetry adapted basis functions of B2  symmetry.
   186 basis functions,   306 primitive gaussians,   215 cartesian basis functions
    15 alpha electrons       15 beta electrons
       nuclear repulsion energy        74.5749502729 Hartrees.
 NAtoms=    4 NActive=    4 NUniq=    4 SFac= 1.00D+00 NAtFMM=   60 NAOKFM=F Big=F
 Integral buffers will be    131072 words long.
 Raffenetti 2 integral format.
 Two-electron integral symmetry is turned on.
 One-electron integrals computed using PRISM.
 NBasis=   186 RedAO= T EigKep=  1.39D-05  NBF=    79    17    45    45
 NBsUse=   186 1.00D-06 EigRej= -1.00D+00 NBFU=    79    17    45    45
 Initial guess from the checkpoint file:  "hcccl.chk"
 B after Tr=     0.000000    0.000000    0.000000
         Rot=    1.000000    0.000000    0.000000    0.000000 Ang=   0.00 deg.
 Initial guess orbital symmetries:
       Occupied  (SG) (SG) (SG) (SG) (SG) (PI) (PI) (SG) (SG) (SG)
                 (SG) (PI) (PI) (PI) (PI)
       Virtual   (SG) (PI) (PI) (SG) (SG) (SG) (PI) (PI) (SG) (PI)
                 (PI) (SG) (PI) (PI) (SG) (DLTA) (DLTA) (SG) (PI)
                 (PI) (SG) (DLTA) (DLTA) (SG) (PI) (PI) (SG) (DLTA)
                 (DLTA) (SG) (PI) (PI) (PI) (PI) (SG) (PI) (PI)
                 (SG) (SG) (PI) (PI) (SG) (PHI) (PHI) (DLTA) (DLTA)
                 (PI) (PI) (SG) (SG) (PI) (PI) (SG) (DLTA) (DLTA)
                 (PHI) (PHI) (SG) (SG) (PI) (PI) (DLTA) (DLTA)
                 (PHI) (PHI) (DLTA) (DLTA) (PI) (PI) (DLTA) (DLTA)
                 (PI) (PI) (DLTA) (DLTA) (SG) (PI) (PI) (SG) (PI)
                 (PI) (DLTA) (DLTA) (SG) (SG) (PI) (PI) (SG) (PI)
                 (PI) (SG) (SG) (SG) (SG) (SG) (SG) (SG) (SG) (SG)
                 (DLTA) (SG) (SG) (DLTA) (SG) (DLTA) (SG) (SG)
                 (SG) (DLTA) (SG) (SG) (SG) (DLTA) (SG) (SG) (SG)
                 (DLTA) (SG) (DLTA) (SG) (SG) (SG) (SG) (SG) (DLTA)
                 (DLTA) (DLTA) (DLTA) (DLTA) (DLTA) (DLTA) (PI)
                 (PI) (PI) (PI) (PI) (PI) (PHI) (PI) (PI) (PI)
                 (PHI) (PI) (PI) (PI) (PI) (PHI) (PI) (PI) (PI)
                 (PI) (PI) (PI) (PI) (PI) (PI) (PI) (PHI) (PI)
                 (PI) (PI) (PHI) (PI) (PI) (PI) (PI) (PHI) (PI)
                 (PI) (PI) (PI)
 Keep R1 and R2 ints in memory in symmetry-blocked form, NReq=190107032.
 Requested convergence on RMS density matrix=1.00D-08 within 128 cycles.
 Requested convergence on MAX density matrix=1.00D-06.
 Requested convergence on             energy=1.00D-06.
 No special actions if energy rises.
 SCF Done:  E(ROHF) =  -535.785016825     A.U. after   11 cycles
            NFock= 11  Conv=0.24D-08     -V/T= 2.0002
 <Sx>= 0.0000 <Sy>= 0.0000 <Sz>= 0.0000 <S**2>=-0.0000 S=-0.0000
 <L.S>=  0.00000000000    
 Annihilation of the first spin contaminant:
 S**2 before annihilation    -0.0000,   after     0.0000

 **********************************************************************

            Population analysis using the SCF Density.

 **********************************************************************

 Orbital symmetries:
       Occupied  (SG) (SG) (SG) (SG) (SG) (PI) (PI) (SG) (SG) (SG)
                 (SG) (PI) (PI) (PI) (PI)
       Virtual   (SG) (SG) (PI) (PI) (SG) (PI) (PI) (SG) (PI) (PI)
                 (SG) (PI) (PI) (SG) (SG) (SG) (SG) (PI) (PI) (PI)
                 (PI) (SG) (DLTA) (DLTA) (SG) (PI) (PI) (SG) (PI)
                 (PI) (SG) (DLTA) (DLTA) (PI) (PI) (SG) (SG) (SG)
                 (DLTA) (DLTA) (SG) (PI) (PI) (SG) (PHI) (PHI)
                 (SG) (PI) (PI) (DLTA) (DLTA) (PHI) (PHI) (PI)
                 (PI) (SG) (PI) (PI) (DLTA) (DLTA) (SG) (SG) (PI)
                 (PI) (PHI) (PHI) (SG) (PI) (PI) (DLTA) (DLTA)
                 (SG) (SG) (PI) (PI) (DLTA) (DLTA) (PI) (PI) (DLTA)
                 (DLTA) (PI) (PI) (SG) (PI) (PI) (DLTA) (DLTA)
                 (SG) (SG) (PI) (PI) (DLTA) (DLTA) (SG) (SG) (SG)
                 (SG) (PI) (PI) (PHI) (PHI) (DLTA) (DLTA) (SG)
                 (PI) (PI) (SG) (PI) (PI) (SG) (DLTA) (DLTA) (PHI)
                 (PHI) (SG) (PHI) (PHI) (PI) (PI) (DLTA) (DLTA)
                 (PI) (PI) (SG) (DLTA) (DLTA) (PI) (PI) (SG) (PI)
                 (PI) (PI) (PI) (SG) (PI) (PI) (SG) (PI) (PI) (SG)
                 (SG) (DLTA) (DLTA) (DLTA) (DLTA) (PI) (PI) (SG)
                 (PI) (PI) (SG) (SG) (SG) (PI) (PI) (PI) (PI) (SG)
                 (DLTA) (DLTA) (SG) (PI) (PI) (SG) (SG) (SG) (SG)
                 (PI) (PI) (SG)
 The electronic state is 1-SG.
 Alpha  occ. eigenvalues -- -104.88941 -11.29499 -11.24840 -10.61332  -8.08070
 Alpha  occ. eigenvalues --   -8.07857  -8.07857  -1.19285  -1.02443  -0.74823
 Alpha  occ. eigenvalues --   -0.67167  -0.55100  -0.55100  -0.39611  -0.39611
 Alpha virt. eigenvalues --    0.04735   0.05476   0.07925   0.07925   0.09965
 Alpha virt. eigenvalues --    0.10656   0.10656   0.13099   0.13696   0.13696
 Alpha virt. eigenvalues --    0.18390   0.19486   0.19486   0.20799   0.24630
 Alpha virt. eigenvalues --    0.26480   0.37168   0.41545   0.41545   0.44918
 Alpha virt. eigenvalues --    0.44918   0.45105   0.46624   0.46624   0.49265
 Alpha virt. eigenvalues --    0.53350   0.53350   0.53371   0.54724   0.54724
 Alpha virt. eigenvalues --    0.64450   0.67190   0.67190   0.71686   0.71686
 Alpha virt. eigenvalues --    0.71873   0.84350   0.90301   0.94844   0.94844
 Alpha virt. eigenvalues --    1.10878   1.11221   1.11221   1.15782   1.19796
 Alpha virt. eigenvalues --    1.19796   1.22670   1.26583   1.26583   1.32881
 Alpha virt. eigenvalues --    1.32881   1.35562   1.35562   1.38045   1.38045
 Alpha virt. eigenvalues --    1.40830   1.41447   1.41447   1.45397   1.45397
 Alpha virt. eigenvalues --    1.52954   1.61206   1.65298   1.65298   1.66743
 Alpha virt. eigenvalues --    1.66743   1.68672   1.69535   1.69535   1.70477
 Alpha virt. eigenvalues --    1.70477   1.85005   1.96834   1.97115   1.97115
 Alpha virt. eigenvalues --    2.02489   2.02489   2.18663   2.18663   2.29198
 Alpha virt. eigenvalues --    2.29198   2.38725   2.38725   2.41154   2.50625
 Alpha virt. eigenvalues --    2.50625   2.53368   2.53368   2.62411   2.69635
 Alpha virt. eigenvalues --    2.76316   2.76316   2.84010   2.84010   3.02368
 Alpha virt. eigenvalues --    3.05243   3.27391   3.30695   3.34211   3.34211
 Alpha virt. eigenvalues --    3.45585   3.45585   3.51023   3.51023   3.52830
 Alpha virt. eigenvalues --    3.65214   3.65214   3.68250   3.81371   3.81371
 Alpha virt. eigenvalues --    4.04006   4.43479   4.43479   4.48791   4.48791
 Alpha virt. eigenvalues --    4.76497   4.78390   4.78390   4.82812   4.82812
 Alpha virt. eigenvalues --    4.83476   4.83476   5.11617   5.11617   5.33277
 Alpha virt. eigenvalues --    5.48805   5.48805   5.62554   5.62554   5.62667
 Alpha virt. eigenvalues --    5.68985   5.68985   6.02808   6.02808   6.05134
 Alpha virt. eigenvalues --    6.38197   6.38197   6.52966   6.87448   6.87448
 Alpha virt. eigenvalues --    7.04832   7.48019   7.72316   7.72316   7.91571
 Alpha virt. eigenvalues --    7.91571   8.45552   8.45552   8.60324   8.80030
 Alpha virt. eigenvalues --    8.80030   9.36435   9.48304   9.81067  20.90199
 Alpha virt. eigenvalues --   20.90199  21.27676  21.27676  21.62229  22.12736
 Alpha virt. eigenvalues --   22.12736  22.30756  22.31380  22.31380  22.53082
 Alpha virt. eigenvalues --   22.69006  25.06168  26.44758  28.44336  28.44336
 Alpha virt. eigenvalues --   29.04947
          Condensed to atoms (all electrons):
               1          2          3          4
     1  C    4.800202   1.079645  -0.062510   0.403418
     2  C    1.079645   4.867367   0.218985   0.014649
     3  Cl  -0.062510   0.218985  16.694312  -0.001134
     4  H    0.403418   0.014649  -0.001134   0.332012
          Atomic-Atomic Spin Densities.
               1          2          3          4
     1  C    0.000000   0.000000   0.000000   0.000000
     2  C    0.000000   0.000000   0.000000   0.000000
     3  Cl   0.000000   0.000000   0.000000   0.000000
     4  H    0.000000   0.000000   0.000000   0.000000
 Mulliken charges and spin densities:
               1          2
     1  C   -0.220755   0.000000
     2  C   -0.180646   0.000000
     3  Cl   0.150347   0.000000
     4  H    0.251054   0.000000
 Sum of Mulliken charges =  -0.00000   0.00000
 Mulliken charges and spin densities with hydrogens summed into heavy atoms:
               1          2
     1  C    0.030299   0.000000
     2  C   -0.180646   0.000000
     3  Cl   0.150347   0.000000
 Electronic spatial extent (au):  <R**2>=            222.3027
 Charge=             -0.0000 electrons
 Dipole moment (field-independent basis, Debye):
    X=              0.0000    Y=              0.0000    Z=             -0.5989  Tot=              0.5989
 Quadrupole moment (field-independent basis, Debye-Ang):
   XX=            -25.2534   YY=            -25.2534   ZZ=            -17.6322
   XY=              0.0000   XZ=              0.0000   YZ=              0.0000
 Traceless Quadrupole moment (field-independent basis, Debye-Ang):
   XX=             -2.5404   YY=             -2.5404   ZZ=              5.0808
   XY=              0.0000   XZ=              0.0000   YZ=              0.0000
 Octapole moment (field-independent basis, Debye-Ang**2):
  XXX=              0.0000  YYY=              0.0000  ZZZ=             -9.1423  XYY=              0.0000
  XXY=              0.0000  XXZ=              3.9177  XZZ=              0.0000  YZZ=              0.0000
  YYZ=              3.9177  XYZ=              0.0000
 Hexadecapole moment (field-independent basis, Debye-Ang**3):
 XXXX=            -29.2743 YYYY=            -29.2743 ZZZZ=           -173.5038 XXXY=              0.0000
 XXXZ=              0.0000 YYYX=              0.0000 YYYZ=              0.0000 ZZZX=              0.0000
 ZZZY=              0.0000 XXYY=             -9.7581 XXZZ=            -50.6450 YYZZ=            -50.6450
 XXYZ=              0.0000 YYXZ=              0.0000 ZZXY=              0.0000
 N-N= 7.457495027293D+01 E-N=-1.420751351396D+03  KE= 5.356621252547D+02
 Symmetry A1   KE= 4.395187826140D+02
 Symmetry A2   KE=-5.657900198374D-51
 Symmetry B1   KE= 4.807167132036D+01
 Symmetry B2   KE= 4.807167132036D+01
 Symmetry A1   SP= 0.000000000000D+00
 Symmetry A2   SP= 0.000000000000D+00
 Symmetry B1   SP= 0.000000000000D+00
 Symmetry B2   SP= 0.000000000000D+00
                          Isotropic Fermi Contact Couplings
        Atom                 a.u.       MegaHertz       Gauss      10(-4) cm-1
     1  C(13)              0.00000       0.00000       0.00000       0.00000
     2  C(13)              0.00000       0.00000       0.00000       0.00000
     3  Cl(35)             0.00000       0.00000       0.00000       0.00000
     4  H(1)               0.00000       0.00000       0.00000       0.00000
 --------------------------------------------------------
       Center         ----  Spin Dipole Couplings  ----
                      3XX-RR        3YY-RR        3ZZ-RR
 --------------------------------------------------------
     1   Atom        0.000000      0.000000      0.000000
     2   Atom        0.000000      0.000000      0.000000
     3   Atom        0.000000      0.000000      0.000000
     4   Atom        0.000000      0.000000      0.000000
 --------------------------------------------------------
                        XY            XZ            YZ
 --------------------------------------------------------
     1   Atom        0.000000      0.000000      0.000000
     2   Atom        0.000000      0.000000      0.000000
     3   Atom        0.000000      0.000000      0.000000
     4   Atom        0.000000      0.000000      0.000000
 --------------------------------------------------------


 ---------------------------------------------------------------------------------
              Anisotropic Spin Dipole Couplings in Principal Axis System
 ---------------------------------------------------------------------------------

       Atom             a.u.   MegaHertz   Gauss  10(-4) cm-1        Axes

              Baa     0.0000     0.000     0.000     0.000  1.0000  0.0000  0.0000
     1 C(13)  Bbb     0.0000     0.000     0.000     0.000 -0.0000  1.0000  0.0000
              Bcc     0.0000     0.000     0.000     0.000  0.0000  0.0000  1.0000
 
              Baa     0.0000     0.000     0.000     0.000  1.0000  0.0000  0.0000
     2 C(13)  Bbb     0.0000     0.000     0.000     0.000 -0.0000  1.0000  0.0000
              Bcc     0.0000     0.000     0.000     0.000  0.0000  0.0000  1.0000
 
              Baa     0.0000     0.000     0.000     0.000  1.0000  0.0000  0.0000
     3 Cl(35) Bbb     0.0000     0.000     0.000     0.000 -0.0000  1.0000  0.0000
              Bcc     0.0000     0.000     0.000     0.000  0.0000  0.0000  1.0000
 
              Baa     0.0000     0.000     0.000     0.000  1.0000  0.0000  0.0000
     4 H(1)   Bbb     0.0000     0.000     0.000     0.000 -0.0000  1.0000  0.0000
              Bcc     0.0000     0.000     0.000     0.000  0.0000  0.0000  1.0000
 

 ---------------------------------------------------------------------------------

 1\1\GINC-GAMBA\SP\ROHF\Gen\C2H1Cl1\IRIKURA\30-Sep-2023\0\\# rohf/gen g
 eom=check guess=check\\chloroacetylene, ROHF/cc-pVTZ-F12\\0,1\C,0,0.,0
 .,-1.81153\C,0,0.,0.,-0.613966\Cl,0,0.,0.,1.025032\H,0,0.,0.,-2.872564
 \\Version=ES64L-G16RevB.01\State=1-SG\HF=-535.7850168\RMSD=2.352e-09\D
 ipole=0.,0.,-0.2356249\Quadrupole=-1.8887365,-1.8887365,3.7774729,0.,0
 .,0.\PG=C*V [C*(H1C1C1Cl1)]\\@


 KINETICS       FACT
 ---------  =  -------
 MECHANISM     FICTION
 Job cpu time:       0 days  0 hours  0 minutes 32.9 seconds.
 Elapsed time:       0 days  0 hours  0 minutes  8.4 seconds.
 File lengths (MBytes):  RWF=     19 Int=      0 D2E=      0 Chk=      4 Scr=      1
 Normal termination of Gaussian 16 at Sat Sep 30 01:13:26 2023.
