 Entering Gaussian System, Link 0=g16
 AtFile(1): pcseg2.gbs
            -H     0
            S   4   1.00
                  0.754732D+02           0.427821D-02
                  0.113575D+02           0.328672D-01
                  0.260081D+01           0.159578D+00
                  0.735503D+00           0.500000D+00
            S   1   1.00
                  0.231761D+00           1.0000000
            S   1   1.00
                  0.741675D-01           1.0000000
            P   1   1.00
                  0.160000D+01           1.0000000
            P   1   1.00
                  0.450000D+00           1.0000000
            D   1   1.00
                  0.125000D+01           1.0000000
            ****
            -C     0
            S   7   1.00
                  0.731999D+04           0.695369D-03
                  0.109818D+04           0.537138D-02
                  0.250014D+03           0.274734D-01
                  0.707586D+02           0.105078D+00
                  0.228595D+02           0.291262D+00
                  0.803936D+01           0.500000D+00
                  0.289309D+01           0.362224D+00
            S   2   1.00
                  0.521640D+01          -0.957844D-01
                  0.556124D+00           0.500000D+00
            S   1   1.00
                  0.228813D+00           1.0000000
            S   1   1.00
                  0.936338D-01           1.0000000
            P   4   1.00
                  0.339855D+02           0.818395D-02
                  0.772957D+01           0.586921D-01
                  0.224954D+01           0.222514D+00
                  0.767681D+00           0.500000D+00
            P   1   1.00
                  0.263283D+00           1.0000000
            P   1   1.00
                  0.848744D-01           1.0000000
            D   1   1.00
                  0.140000D+01           1.0000000
            D   1   1.00
                  0.450000D+00           1.0000000
            F   1   1.00
                  0.950000D+00           1.0000000
            ****
            -O     0
            S   7   1.00
                  0.135887D+05           0.665492D-03
                  0.203847D+04           0.514222D-02
                  0.464041D+03           0.263472D-01
                  0.131339D+03           0.101500D+00
                  0.425340D+02           0.285877D+00
                  0.150429D+02           0.500000D+00
                  0.546616D+01           0.368211D+00
            S   2   1.00
                  0.100915D+02          -0.100084D+00
                  0.110429D+01           0.500000D+00
            S   1   1.00
                  0.448082D+00           1.0000000
            S   1   1.00
                  0.175325D+00           1.0000000
            P   4   1.00
                  0.608220D+02           0.908253D-02
                  0.140332D+02           0.645878D-01
                  0.418244D+01           0.241502D+00
                  0.142490D+01           0.500000D+00
            P   1   1.00
                  0.478741D+00           1.0000000
            P   1   1.00
                  0.146257D+00           1.0000000
            D   1   1.00
                  0.220000D+01           1.0000000
            D   1   1.00
                  0.650000D+00           1.0000000
            F   1   1.00
                  0.110000D+01           1.0000000
            ****
            -N     0
            S   7   1.00
                  0.101643D+05           0.682757D-03
                  0.152481D+04           0.527488D-02
                  0.347119D+03           0.270037D-01
                  0.982389D+02           0.103673D+00
                  0.317799D+02           0.289575D+00
                  0.112240D+02           0.500000D+00
                  0.406611D+01           0.364621D+00
            S   2   1.00
                  0.747898D+01          -0.975681D-01
                  0.805040D+00           0.500000D+00
            S   1   1.00
                  0.324626D+00           1.0000000
            S   1   1.00
                  0.128132D+00           1.0000000
            P   4   1.00
                  0.482704D+02           0.829547D-02
                  0.110815D+02           0.596223D-01
                  0.326643D+01           0.227889D+00
                  0.111680D+01           0.500000D+00
            P   1   1.00
                  0.382049D+00           1.0000000
            P   1   1.00
                  0.121222D+00           1.0000000
            D   1   1.00
                  0.180000D+01           1.0000000
            D   1   1.00
                  0.550000D+00           1.0000000
            F   1   1.00
                  0.102000D+01           1.0000000
            ****
            -F     0
            S   7   1.00
                  0.174507D+05           0.655972D-03
                  0.261768D+04           0.506944D-02
                  0.595857D+03           0.259899D-01
                  0.168651D+03           0.100353D+00
                  0.546654D+02           0.284095D+00
                  0.193717D+02           0.500000D+00
                  0.706202D+01           0.370721D+00
            S   2   1.00
                  0.131197D+02          -0.101997D+00
                  0.145046D+01           0.500000D+00
            S   1   1.00
                  0.588255D+00           1.0000000
            S   1   1.00
                  0.227960D+00           1.0000000
            P   4   1.00
                  0.779407D+02           0.931135D-02
                  0.180425D+02           0.663964D-01
                  0.542342D+01           0.246386D+00
                  0.184876D+01           0.500000D+00
            P   1   1.00
                  0.617455D+00           1.0000000
            P   1   1.00
                  0.185496D+00           1.0000000
            D   1   1.00
                  0.280000D+01           1.0000000
            D   1   1.00
                  0.800000D+00           1.0000000
            F   1   1.00
                  0.120000D+01           1.0000000
            ****
            -Cl     0
            S   8   1.00
                  0.154272D+06           0.222473D-03
                  0.231232D+05           0.172590D-02
                  0.526257D+04           0.899286D-02
                  0.148995D+04           0.367724D-01
                  0.485417D+03           0.121446D+00
                  0.174634D+03           0.304148D+00
                  0.672393D+02           0.500000D+00
                  0.265780D+02           0.360252D+00
            S   3   1.00
                  0.131826D+03          -0.531330D-01
                  0.400703D+02          -0.233346D+00
                  0.789448D+01           0.500000D+00
            S   2   1.00
                  0.427711D+01           0.500000D+00
                  0.196233D+01           0.370517D+00
            S   1   1.00
                  0.520793D+00           1.0000000
            S   1   1.00
                  0.181633D+00           1.0000000
            P   7   1.00
                  0.124440D+04           0.988206D-03
                  0.295109D+03           0.829674D-02
                  0.947224D+02           0.430906D-01
                  0.352588D+02           0.148443D+00
                  0.144211D+02           0.344744D+00
                  0.610371D+01           0.500000D+00
                  0.258886D+01           0.348278D+00
            P   2   1.00
                  0.109447D+02          -0.196768D-01
                  0.104413D+01           0.500000D+00
            P   1   1.00
                  0.376184D+00           1.0000000
            P   1   1.00
                  0.120613D+00           1.0000000
            D   1   1.00
                  0.231000D+01           1.0000000
            D   1   1.00
                  0.520000D+00           1.0000000
            F   1   1.00
                  0.720000D+00           1.0000000
            ****
            -S     0
            S   8   1.00
                  0.134700D+06           0.226231D-03
                  0.201904D+05           0.175488D-02
                  0.459528D+04           0.914190D-02
                  0.130109D+04           0.373551D-01
                  0.423902D+03           0.123121D+00
                  0.152485D+03           0.306801D+00
                  0.586925D+02           0.500000D+00
                  0.231461D+02           0.354358D+00
            S   3   1.00
                  0.116327D+03          -0.491772D-01
                  0.352841D+02          -0.215962D+00
                  0.677831D+01           0.500000D+00
            S   2   1.00
                  0.360404D+01           0.500000D+00
                  0.164871D+01           0.366278D+00
            S   1   1.00
                  0.421821D+00           1.0000000
            S   1   1.00
                  0.147554D+00           1.0000000
            P   7   1.00
                  0.104863D+04           0.105273D-02
                  0.248717D+03           0.879338D-02
                  0.797887D+02           0.453358D-01
                  0.296023D+02           0.154476D+00
                  0.120627D+02           0.352366D+00
                  0.507628D+01           0.500000D+00
                  0.213375D+01           0.346429D+00
            P   2   1.00
                  0.928958D+01          -0.185932D-01
                  0.837819D+00           0.500000D+00
            P   1   1.00
                  0.301495D+00           1.0000000
            P   1   1.00
                  0.974740D-01           1.0000000
            D   1   1.00
                  0.210000D+01           1.0000000
            D   1   1.00
                  0.480000D+00           1.0000000
            F   1   1.00
                  0.660000D+00           1.0000000
            ****
            -Br     0
            S    10   1.00
                  0.233625D+07           0.532336D-04
                  0.349961D+06           0.413715D-03
                  0.796444D+05           0.217123D-02
                  0.225555D+05           0.910109D-02
                  0.735546D+04           0.323789D-01
                  0.265352D+04           0.988755D-01
                  0.103517D+04           0.248138D+00
                  0.422205D+03           0.474328D+00
                  0.180035D+03           0.500000D+00
                  0.793308D+02           0.187769D+00
            S    4   1.00
                  0.620834D+03          -0.226511D-01
                  0.190829D+03          -0.109497D+00
                  0.312505D+02           0.500000D+00
                  0.135270D+02           0.492812D+00
            S    2   1.00
                  0.216097D+02          -0.165418D+00
                  0.372566D+01           0.500000D+00
            S    1   1.00
                  0.169770D+01           1.0000000
            S    1   1.00
                  0.489332D+00           1.0000000
            S    1   1.00
                  0.175712D+00           1.0000000
            P    8   1.00
                  0.960829D+04           0.478974D-03
                  0.227618D+04           0.417853D-02
                  0.736723D+03           0.229315D-01
                  0.281579D+03           0.892653D-01
                  0.118395D+03           0.255288D+00
                  0.527481D+02           0.479074D+00
                  0.245098D+02           0.500000D+00
                  0.112009D+02           0.200944D+00
            P    4   1.00
                  0.587849D+02          -0.189674D-01
                  0.918962D+01           0.264104D+00
                  0.413895D+01           0.500000D+00
                  0.184225D+01           0.319316D+00
            P    1   1.00
                  0.713862D+00           1.0000000
            P    1   1.00
                  0.274232D+00           1.0000000
            P    1   1.00
                  0.944411D-01           1.0000000
            D    7   1.00
                  0.398470D+03           0.204066D-02
                  0.118967D+03           0.175171D-01
                  0.450197D+02           0.829708D-01
                  0.190320D+02           0.236284D+00
                  0.855686D+01           0.428468D+00
                  0.382950D+01           0.500000D+00
                  0.166291D+01           0.349360D+00
            D    1   1.00
                  0.672953D+00           1.0000000
            D    1   1.00
                  0.252000D+00           1.0000000
            F    1   1.00
                  0.530000D+00           1.0000000
            ****
            -Si     0
            S    8   1.00
                  0.996133D+05           0.235546D-03
                  0.149311D+05           0.182707D-02
                  0.339820D+04           0.951425D-02
                  0.962140D+03           0.388172D-01
                  0.313430D+03           0.127328D+00
                  0.112683D+03           0.313522D+00
                  0.433372D+02           0.500000D+00
                  0.170029D+02           0.340347D+00
            S    3   1.00
                  0.884208D+02          -0.404451D-01
                  0.266756D+02          -0.178059D+00
                  0.479640D+01           0.500000D+00
            S    2   1.00
                  0.239385D+01           0.500000D+00
                  0.108333D+01           0.338016D+00
            S    1   1.00
                  0.252420D+00           1.0000000
            S    1   1.00
                  0.891210D-01           1.0000000
            P    7   1.00
                  0.709901D+03           0.123028D-02
                  0.168426D+03           0.101366D-01
                  0.539946D+02           0.511840D-01
                  0.198646D+02           0.169967D+00
                  0.801369D+01           0.370717D+00
                  0.331870D+01           0.500000D+00
                  0.136112D+01           0.344128D+00
            P    2   1.00
                  0.622158D+01          -0.166609D-01
                  0.503049D+00           0.500000D+00
            P    1   1.00
                  0.179848D+00           1.0000000
            P    1   1.00
                  0.591912D-01           1.0000000
            D    1   1.00
                  0.168000D+01           1.0000000
            D    1   1.00
                  0.380000D+00           1.0000000
            F    1   1.00
                  0.540000D+00           1.0000000
            ****
            -P     0
            S    8   1.00
                  0.116416D+06           0.230715D-03
                  0.174500D+05           0.178960D-02
                  0.397149D+04           0.932116D-02
                  0.112447D+04           0.380591D-01
                  0.366347D+03           0.125148D+00
                  0.131757D+03           0.310022D+00
                  0.506988D+02           0.500000D+00
                  0.199436D+02           0.347528D+00
            S    3   1.00
                  0.101878D+03          -0.446755D-01
                  0.308249D+02          -0.196376D+00
                  0.573688D+01           0.500000D+00
            S    2   1.00
                  0.296868D+01           0.500000D+00
                  0.135315D+01           0.355098D+00
            S    1   1.00
                  0.332196D+00           1.0000000
            S    1   1.00
                  0.116229D+00           1.0000000
            P    7   1.00
                  0.873928D+03           0.112375D-02
                  0.207298D+03           0.933330D-02
                  0.664628D+02           0.477213D-01
                  0.245665D+02           0.160733D+00
                  0.996820D+01           0.359760D+00
                  0.416536D+01           0.500000D+00
                  0.173022D+01           0.346593D+00
            P    2   1.00
                  0.772530D+01          -0.175718D-01
                  0.657252D+00           0.500000D+00
            P    1   1.00
                  0.239903D+00           1.0000000
            P    1   1.00
                  0.800988D-01           1.0000000
            D    1   1.00
                  0.189000D+01           1.0000000
            D    1   1.00
                  0.430000D+00           1.0000000
            F    1   1.00
                  0.600000D+00           1.0000000
            ****
            
 Initial command:
 /usr/local/apps/g16_b01_avx/g16/l1.exe "/wrk/irikura/Gau-3247.inp" -scrdir="/wrk/irikura/"
 Entering Link 1 = /usr/local/apps/g16_b01_avx/g16/l1.exe PID=      3249.
  
 Copyright (c) 1988-2017, Gaussian, Inc.  All Rights Reserved.
  
 This is part of the Gaussian(R) 16 program.  It is based on
 the Gaussian(R) 09 system (copyright 2009, Gaussian, Inc.),
 the Gaussian(R) 03 system (copyright 2003, Gaussian, Inc.),
 the Gaussian(R) 98 system (copyright 1998, Gaussian, Inc.),
 the Gaussian(R) 94 system (copyright 1995, Gaussian, Inc.),
 the Gaussian 92(TM) system (copyright 1992, Gaussian, Inc.),
 the Gaussian 90(TM) system (copyright 1990, Gaussian, Inc.),
 the Gaussian 88(TM) system (copyright 1988, Gaussian, Inc.),
 the Gaussian 86(TM) system (copyright 1986, Carnegie Mellon
 University), and the Gaussian 82(TM) system (copyright 1983,
 Carnegie Mellon University). Gaussian is a federally registered
 trademark of Gaussian, Inc.
  
 This software contains proprietary and confidential information,
 including trade secrets, belonging to Gaussian, Inc.
  
 This software is provided under written license and may be
 used, copied, transmitted, or stored only in accord with that
 written license.
  
 The following legend is applicable only to US Government
 contracts under FAR:
  
                    RESTRICTED RIGHTS LEGEND
  
 Use, reproduction and disclosure by the US Government is
 subject to restrictions as set forth in subparagraphs (a)
 and (c) of the Commercial Computer Software - Restricted
 Rights clause in FAR 52.227-19.
  
 Gaussian, Inc.
 340 Quinnipiac St., Bldg. 40, Wallingford CT 06492
  
  
 ---------------------------------------------------------------
 Warning -- This program may not be used in any manner that
 competes with the business of Gaussian, Inc. or will provide
 assistance to any competitor of Gaussian, Inc.  The licensee
 of this program is prohibited from giving any competitor of
 Gaussian, Inc. access to this program.  By using this program,
 the user acknowledges that Gaussian, Inc. is engaged in the
 business of creating and licensing software in the field of
 computational chemistry and represents and warrants to the
 licensee that it is not a competitor of Gaussian, Inc. and that
 it will not use this program in any manner prohibited above.
 ---------------------------------------------------------------
  

 Cite this work as:
 Gaussian 16, Revision B.01,
 M. J. Frisch, G. W. Trucks, H. B. Schlegel, G. E. Scuseria, 
 M. A. Robb, J. R. Cheeseman, G. Scalmani, V. Barone, 
 G. A. Petersson, H. Nakatsuji, X. Li, M. Caricato, A. V. Marenich, 
 J. Bloino, B. G. Janesko, R. Gomperts, B. Mennucci, H. P. Hratchian, 
 J. V. Ortiz, A. F. Izmaylov, J. L. Sonnenberg, D. Williams-Young, 
 F. Ding, F. Lipparini, F. Egidi, J. Goings, B. Peng, A. Petrone, 
 T. Henderson, D. Ranasinghe, V. G. Zakrzewski, J. Gao, N. Rega, 
 G. Zheng, W. Liang, M. Hada, M. Ehara, K. Toyota, R. Fukuda, 
 J. Hasegawa, M. Ishida, T. Nakajima, Y. Honda, O. Kitao, H. Nakai, 
 T. Vreven, K. Throssell, J. A. Montgomery, Jr., J. E. Peralta, 
 F. Ogliaro, M. J. Bearpark, J. J. Heyd, E. N. Brothers, K. N. Kudin, 
 V. N. Staroverov, T. A. Keith, R. Kobayashi, J. Normand, 
 K. Raghavachari, A. P. Rendell, J. C. Burant, S. S. Iyengar, 
 J. Tomasi, M. Cossi, J. M. Millam, M. Klene, C. Adamo, R. Cammi, 
 J. W. Ochterski, R. L. Martin, K. Morokuma, O. Farkas, 
 J. B. Foresman, and D. J. Fox, Gaussian, Inc., Wallingford CT, 2016.
 
 ******************************************
 Gaussian 16:  ES64L-G16RevB.01 20-Dec-2017
                17-Jun-2022 
 ******************************************
 %mem=1000mw
 %nprocs=12
 Will use up to   12 processors via shared memory.
 --------------------
 # b3lyp/gen opt freq
 --------------------
 1/18=20,19=15,26=3,38=1/1,3;
 2/9=110,12=2,17=6,18=5,40=1/2;
 3/5=7,11=2,25=1,30=1,71=1,74=-5/1,2,3;
 4//1;
 5/5=2,38=5/2;
 6/7=2,8=2,9=2,10=2,28=1/1;
 7//1,2,3,16;
 1/18=20,19=15,26=3/3(2);
 2/9=110/2;
 99//99;
 2/9=110/2;
 3/5=7,6=1,11=2,25=1,30=1,71=1,74=-5,82=7/1,2,3;
 4/5=5,16=3,69=1/1;
 5/5=2,38=5/2;
 7//1,2,3,16;
 1/18=20,19=15,26=3/3(-5);
 2/9=110/2;
 6/7=2,8=2,9=2,10=2,19=2,28=1/1;
 99/9=1/99;
 -------------------------
 2-propynal, B3LYP/pcseg-2
 -------------------------
 Symbolic Z-matrix:
 Charge =  0 Multiplicity = 1
 C                     0.68076  -0.44642   0. 
 O                     1.58324   0.35619   0. 
 H                     0.87125  -1.5382    0. 
 C                    -0.72033  -0.09265   0. 
 C                    -1.89756   0.15992   0. 
 H                    -2.93345   0.39979   0. 
 

 GradGradGradGradGradGradGradGradGradGradGradGradGradGradGradGradGradGrad
 Berny optimization.
 Initialization pass.
                           ----------------------------
                           !    Initial Parameters    !
                           ! (Angstroms and Degrees)  !
 --------------------------                            --------------------------
 ! Name  Definition              Value          Derivative Info.                !
 --------------------------------------------------------------------------------
 ! R1    R(1,2)                  1.2077         estimate D2E/DX2                !
 ! R2    R(1,3)                  1.1083         estimate D2E/DX2                !
 ! R3    R(1,4)                  1.4451         estimate D2E/DX2                !
 ! R4    R(4,5)                  1.204          estimate D2E/DX2                !
 ! R5    R(5,6)                  1.0633         estimate D2E/DX2                !
 ! A1    A(2,1,3)              121.7512         estimate D2E/DX2                !
 ! A2    A(2,1,4)              124.1811         estimate D2E/DX2                !
 ! A3    A(3,1,4)              114.0678         estimate D2E/DX2                !
 ! A4    L(1,4,5,3,-1)         177.9377         estimate D2E/DX2                !
 ! A5    L(4,5,6,3,-1)         180.929          estimate D2E/DX2                !
 ! A6    L(1,4,5,3,-2)         180.0            estimate D2E/DX2                !
 ! A7    L(4,5,6,3,-2)         180.0            estimate D2E/DX2                !
 ! D1    D(2,1,4,3)            180.0            estimate D2E/DX2                !
 --------------------------------------------------------------------------------
 Trust Radius=3.00D-01 FncErr=1.00D-07 GrdErr=1.00D-06 EigMax=2.50D+02 EigMin=1.00D-04
 Number of steps in this run=     23 maximum allowed number of steps=    100.
 GradGradGradGradGradGradGradGradGradGradGradGradGradGradGradGradGradGrad

                          Input orientation:                          
 ---------------------------------------------------------------------
 Center     Atomic      Atomic             Coordinates (Angstroms)
 Number     Number       Type             X           Y           Z
 ---------------------------------------------------------------------
      1          6           0        0.680763   -0.446422    0.000000
      2          8           0        1.583240    0.356187    0.000000
      3          1           0        0.871247   -1.538204    0.000000
      4          6           0       -0.720327   -0.092647    0.000000
      5          6           0       -1.897556    0.159915    0.000000
      6          1           0       -2.933453    0.399787    0.000000
 ---------------------------------------------------------------------
                    Distance matrix (angstroms):
                    1          2          3          4          5
     1  C    0.000000
     2  O    1.207744   0.000000
     3  H    1.108274   2.023772   0.000000
     4  C    1.445064   2.346886   2.150056   0.000000
     5  C    2.648655   3.486325   3.248058   1.204016   0.000000
     6  H    3.711957   4.516903   4.269842   2.267249   1.063307
                    6
     6  H    0.000000
 Stoichiometry    C3H2O
 Framework group  CS[SG(C3H2O)]
 Deg. of freedom     9
 Full point group                 CS      NOp   2
 Largest Abelian subgroup         CS      NOp   2
 Largest concise Abelian subgroup C1      NOp   1
                         Standard orientation:                         
 ---------------------------------------------------------------------
 Center     Atomic      Atomic             Coordinates (Angstroms)
 Number     Number       Type             X           Y           Z
 ---------------------------------------------------------------------
      1          6           0        0.499517   -0.668217    0.000000
      2          8           0       -0.203473   -1.650282   -0.000000
      3          1           0        1.605297   -0.742535    0.000000
      4          6           0        0.000000    0.687767    0.000000
      5          6           0       -0.375267    1.831808   -0.000000
      6          1           0       -0.723014    2.836643   -0.000000
 ---------------------------------------------------------------------
 Rotational constants (GHZ):          68.5137542           4.8348921           4.5161925
 General basis read from cards:  (5D, 7F)
 There are   118 symmetry adapted cartesian basis functions of A'  symmetry.
 There are    52 symmetry adapted cartesian basis functions of A"  symmetry.
 There are   100 symmetry adapted basis functions of A'  symmetry.
 There are    48 symmetry adapted basis functions of A"  symmetry.
   148 basis functions,   240 primitive gaussians,   170 cartesian basis functions
    14 alpha electrons       14 beta electrons
       nuclear repulsion energy        89.0520292398 Hartrees.
 NAtoms=    6 NActive=    6 NUniq=    6 SFac= 1.00D+00 NAtFMM=   60 NAOKFM=F Big=F
 Integral buffers will be    131072 words long.
 Raffenetti 2 integral format.
 Two-electron integral symmetry is turned on.
 One-electron integrals computed using PRISM.
 NBasis=   148 RedAO= T EigKep=  4.32D-05  NBF=   100    48
 NBsUse=   148 1.00D-06 EigRej= -1.00D+00 NBFU=   100    48
 ExpMin= 7.42D-02 ExpMax= 1.36D+04 ExpMxC= 4.64D+02 IAcc=3 IRadAn=         5 AccDes= 0.00D+00
 Harris functional with IExCor=  402 and IRadAn=       5 diagonalized for initial guess.
 HarFok:  IExCor=  402 AccDes= 0.00D+00 IRadAn=         5 IDoV= 1 UseB2=F ITyADJ=14
 ICtDFT=  3500011 ScaDFX=  1.000000  1.000000  1.000000  1.000000
 FoFCou: FMM=F IPFlag=           0 FMFlag=      100000 FMFlg1=           0
         NFxFlg=           0 DoJE=T BraDBF=F KetDBF=T FulRan=T
         wScrn=  0.000000 ICntrl=       500 IOpCl=  0 I1Cent=   200000004 NGrid=           0
         NMat0=    1 NMatS0=      1 NMatT0=    0 NMatD0=    1 NMtDS0=    0 NMtDT0=    0
 Petite list used in FoFCou.
 Initial guess orbital symmetries:
       Occupied  (A') (A') (A') (A') (A') (A') (A') (A') (A') (A')
                 (A") (A") (A') (A')
       Virtual   (A") (A') (A") (A') (A') (A') (A') (A') (A") (A')
                 (A') (A") (A') (A') (A') (A") (A') (A') (A") (A')
                 (A') (A') (A') (A') (A') (A") (A') (A") (A') (A")
                 (A') (A') (A') (A") (A') (A") (A') (A') (A") (A')
                 (A") (A') (A") (A') (A") (A') (A') (A") (A') (A')
                 (A') (A') (A') (A") (A') (A") (A') (A') (A') (A")
                 (A') (A") (A') (A') (A') (A') (A') (A") (A') (A")
                 (A') (A') (A") (A") (A') (A') (A") (A') (A") (A')
                 (A') (A') (A") (A") (A') (A") (A') (A") (A') (A')
                 (A") (A") (A') (A') (A") (A') (A") (A') (A') (A")
                 (A') (A") (A') (A") (A') (A') (A') (A") (A') (A")
                 (A') (A') (A") (A') (A') (A") (A') (A') (A") (A")
                 (A') (A') (A') (A") (A') (A") (A') (A') (A') (A")
                 (A') (A') (A') (A')
 The electronic state of the initial guess is 1-A'.
 Keep R1 ints in memory in symmetry-blocked form, NReq=91724197.
 Requested convergence on RMS density matrix=1.00D-08 within 128 cycles.
 Requested convergence on MAX density matrix=1.00D-06.
 Requested convergence on             energy=1.00D-06.
 No special actions if energy rises.
 Integral accuracy reduced to 1.0D-05 until final iterations.
 Initial convergence to 1.0D-05 achieved.  Increase integral accuracy.
 SCF Done:  E(RB3LYP) =  -190.730089125     A.U. after   14 cycles
            NFock= 14  Conv=0.24D-08     -V/T= 2.0035

 **********************************************************************

            Population analysis using the SCF Density.

 **********************************************************************

 Orbital symmetries:
       Occupied  (A') (A') (A') (A') (A') (A') (A') (A') (A') (A')
                 (A") (A") (A') (A')
       Virtual   (A") (A') (A') (A') (A") (A') (A') (A") (A') (A')
                 (A") (A') (A') (A') (A") (A') (A') (A') (A') (A")
                 (A') (A') (A') (A') (A") (A') (A') (A") (A') (A")
                 (A') (A') (A') (A") (A') (A") (A') (A') (A") (A")
                 (A') (A') (A") (A') (A') (A") (A') (A") (A') (A')
                 (A') (A') (A') (A") (A') (A') (A") (A') (A') (A")
                 (A') (A") (A') (A') (A') (A') (A") (A') (A') (A")
                 (A') (A') (A") (A") (A') (A') (A") (A') (A') (A")
                 (A') (A") (A') (A") (A') (A") (A') (A") (A') (A")
                 (A') (A') (A") (A') (A") (A') (A") (A') (A') (A")
                 (A") (A') (A') (A") (A') (A') (A') (A") (A') (A")
                 (A') (A') (A") (A') (A") (A') (A') (A') (A") (A")
                 (A') (A') (A') (A") (A') (A") (A') (A') (A') (A")
                 (A') (A') (A') (A')
 The electronic state is 1-A'.
 Alpha  occ. eigenvalues --  -19.14730 -10.29887 -10.21564 -10.20709  -1.07483
 Alpha  occ. eigenvalues --   -0.79975  -0.68813  -0.56717  -0.52891  -0.47205
 Alpha  occ. eigenvalues --   -0.43044  -0.32315  -0.32168  -0.29370
 Alpha virt. eigenvalues --   -0.09181  -0.00474   0.02245   0.03806   0.06311
 Alpha virt. eigenvalues --    0.09969   0.11041   0.15134   0.17615   0.18544
 Alpha virt. eigenvalues --    0.20322   0.22132   0.24496   0.28329   0.29422
 Alpha virt. eigenvalues --    0.29873   0.33718   0.40264   0.42195   0.42350
 Alpha virt. eigenvalues --    0.44958   0.51132   0.52912   0.56541   0.71819
 Alpha virt. eigenvalues --    0.71916   0.77337   0.78434   0.83553   0.84051
 Alpha virt. eigenvalues --    0.84998   0.95075   1.00377   1.02764   1.06398
 Alpha virt. eigenvalues --    1.08979   1.11590   1.15530   1.19625   1.23645
 Alpha virt. eigenvalues --    1.24517   1.26091   1.31148   1.34459   1.36107
 Alpha virt. eigenvalues --    1.36137   1.42270   1.47124   1.48502   1.53834
 Alpha virt. eigenvalues --    1.60762   1.66502   1.68283   1.70952   1.85076
 Alpha virt. eigenvalues --    1.95650   1.96189   2.04213   2.05127   2.12026
 Alpha virt. eigenvalues --    2.23256   2.41176   2.43491   2.50078   2.79936
 Alpha virt. eigenvalues --    2.91025   2.96182   2.96231   3.04839   3.14908
 Alpha virt. eigenvalues --    3.15711   3.21534   3.26812   3.28046   3.32118
 Alpha virt. eigenvalues --    3.47875   3.52235   3.53275   3.57013   3.58691
 Alpha virt. eigenvalues --    3.64604   3.76030   3.76269   3.79838   3.83480
 Alpha virt. eigenvalues --    3.86835   3.89081   3.90914   3.92479   3.94412
 Alpha virt. eigenvalues --    3.94428   3.96985   3.98965   4.09053   4.10889
 Alpha virt. eigenvalues --    4.16178   4.17330   4.19685   4.24841   4.25459
 Alpha virt. eigenvalues --    4.32076   4.32122   4.35272   4.41997   4.52917
 Alpha virt. eigenvalues --    4.55618   4.58770   4.59355   4.66161   4.66795
 Alpha virt. eigenvalues --    4.70245   4.77372   4.80451   5.06223   5.21820
 Alpha virt. eigenvalues --    5.21923   5.34495   5.39719   5.48882   5.59879
 Alpha virt. eigenvalues --    5.65531   5.73543   5.86920   5.88549   5.92475
 Alpha virt. eigenvalues --    6.10209   6.15092   6.16100   6.38505   6.43876
 Alpha virt. eigenvalues --    6.73413   6.88955   7.33949   7.97338
          Condensed to atoms (all electrons):
               1          2          3          4          5          6
     1  C    4.542048   0.544985   0.454197   0.274555  -0.059933  -0.000838
     2  O    0.544985   7.932181  -0.074658  -0.077689   0.013391   0.000287
     3  H    0.454197  -0.074658   0.745170  -0.165555   0.015774   0.000191
     4  C    0.274555  -0.077689  -0.165555   5.191441   0.713607  -0.076002
     5  C   -0.059933   0.013391   0.015774   0.713607   4.982386   0.482738
     6  H   -0.000838   0.000287   0.000191  -0.076002   0.482738   0.516675
 Mulliken charges:
               1
     1  C    0.244987
     2  O   -0.338496
     3  H    0.024881
     4  C    0.139643
     5  C   -0.147963
     6  H    0.076948
 Sum of Mulliken charges =  -0.00000
 Mulliken charges with hydrogens summed into heavy atoms:
               1
     1  C    0.269868
     2  O   -0.338496
     4  C    0.139643
     5  C   -0.071014
 Electronic spatial extent (au):  <R**2>=            270.3836
 Charge=             -0.0000 electrons
 Dipole moment (field-independent basis, Debye):
    X=              1.1390    Y=              2.8053    Z=              0.0000  Tot=              3.0277
 Quadrupole moment (field-independent basis, Debye-Ang):
   XX=            -22.0531   YY=            -21.6423   ZZ=            -23.1001
   XY=             -3.5938   XZ=             -0.0000   YZ=             -0.0000
 Traceless Quadrupole moment (field-independent basis, Debye-Ang):
   XX=              0.2120   YY=              0.6229   ZZ=             -0.8349
   XY=             -3.5938   XZ=             -0.0000   YZ=             -0.0000
 Octapole moment (field-independent basis, Debye-Ang**2):
  XXX=              2.4580  YYY=             21.4491  ZZZ=              0.0000  XYY=             -5.2248
  XXY=             -2.8580  XXZ=              0.0000  XZZ=              0.1625  YZZ=             -4.1314
  YYZ=             -0.0000  XYZ=              0.0000
 Hexadecapole moment (field-independent basis, Debye-Ang**3):
 XXXX=            -49.8334 YYYY=           -238.3193 ZZZZ=            -24.7005 XXXY=             14.3426
 XXXZ=             -0.0000 YYYX=             -4.7134 YYYZ=             -0.0000 ZZZX=             -0.0000
 ZZZY=              0.0000 XXYY=            -52.9945 XXZZ=            -13.0467 YYZZ=            -52.9392
 XXYZ=              0.0000 YYXZ=             -0.0000 ZZXY=              5.8184
 N-N= 8.905202923975D+01 E-N=-6.240481934186D+02  KE= 1.900695360330D+02
 Symmetry A'   KE= 1.840440673009D+02
 Symmetry A"   KE= 6.025468732094D+00
 Calling FoFJK, ICntrl=      2127 FMM=F ISym2X=1 I1Cent= 0 IOpClX= 0 NMat=1 NMatS=1 NMatT=0.
 ***** Axes restored to original set *****
 -------------------------------------------------------------------
 Center     Atomic                   Forces (Hartrees/Bohr)
 Number     Number              X              Y              Z
 -------------------------------------------------------------------
      1        6           0.000989368   -0.001932447   -0.000000000
      2        8          -0.001843256   -0.001587720   -0.000000000
      3        1           0.000338647    0.002784761    0.000000000
      4        6          -0.005360557    0.002226263    0.000000000
      5        6           0.005433576   -0.001393895   -0.000000000
      6        1           0.000442223   -0.000096962   -0.000000000
 -------------------------------------------------------------------
 Cartesian Forces:  Max     0.005433576 RMS     0.002158506

 GradGradGradGradGradGradGradGradGradGradGradGradGradGradGradGradGradGrad
 Berny optimization.
 FormGI is forming the generalized inverse of G from B-inverse, IUseBI=4.
 Internal  Forces:  Max     0.006057800 RMS     0.002008009
 Search for a local minimum.
 Step number   1 out of a maximum of   23
 All quantities printed in internal units (Hartrees-Bohrs-Radians)
 Mixed Optimization -- RFO/linear search
 Second derivative matrix not updated -- first step.
 The second derivative matrix:
                          R1        R2        R3        R4        R5
           R1           1.01026
           R2           0.00000   0.32783
           R3           0.00000   0.00000   0.38899
           R4           0.00000   0.00000   0.00000   1.02831
           R5           0.00000   0.00000   0.00000   0.00000   0.38089
           A1           0.00000   0.00000   0.00000   0.00000   0.00000
           A2           0.00000   0.00000   0.00000   0.00000   0.00000
           A3           0.00000   0.00000   0.00000   0.00000   0.00000
           A4           0.00000   0.00000   0.00000   0.00000   0.00000
           A5           0.00000   0.00000   0.00000   0.00000   0.00000
           A6           0.00000   0.00000   0.00000   0.00000   0.00000
           A7           0.00000   0.00000   0.00000   0.00000   0.00000
           D1           0.00000   0.00000   0.00000   0.00000   0.00000
                          A1        A2        A3        A4        A5
           A1           0.16000
           A2           0.00000   0.25000
           A3           0.00000   0.00000   0.16000
           A4           0.00000   0.00000   0.00000   0.04681
           A5           0.00000   0.00000   0.00000   0.00000   0.00588
           A6           0.00000   0.00000   0.00000   0.00000   0.00000
           A7           0.00000   0.00000   0.00000   0.00000   0.00000
           D1           0.00000   0.00000   0.00000   0.00000   0.00000
                          A6        A7        D1
           A6           0.04681
           A7           0.00000   0.00588
           D1           0.00000   0.00000   0.01493
 ITU=  0
     Eigenvalues ---    0.00588   0.00588   0.01493   0.04681   0.04681
     Eigenvalues ---    0.16000   0.22000   0.32783   0.38089   0.38899
     Eigenvalues ---    1.01026   1.02831
 RFO step:  Lambda=-8.14287087D-05 EMin= 5.87931104D-03
 Linear search not attempted -- first point.
 Iteration  1 RMS(Cart)=  0.00536023 RMS(Int)=  0.00001598
 Iteration  2 RMS(Cart)=  0.00002652 RMS(Int)=  0.00000000
 Iteration  3 RMS(Cart)=  0.00000000 RMS(Int)=  0.00000000
 ClnCor:  largest displacement from symmetrization is 3.15D-11 for atom     1.
 Variable       Old X    -DE/DX   Delta X   Delta X   Delta X     New X
                                 (Linear)    (Quad)   (Total)
    R1        2.28231  -0.00243   0.00000  -0.00241  -0.00241   2.27990
    R2        2.09434  -0.00269   0.00000  -0.00819  -0.00819   2.08615
    R3        2.73078  -0.00032   0.00000  -0.00082  -0.00082   2.72995
    R4        2.27526  -0.00606   0.00000  -0.00589  -0.00589   2.26937
    R5        2.00936  -0.00045   0.00000  -0.00119  -0.00119   2.00817
    A1        2.12496  -0.00054   0.00000  -0.00389  -0.00389   2.12107
    A2        2.16737  -0.00063   0.00000  -0.00284  -0.00284   2.16452
    A3        1.99086   0.00116   0.00000   0.00674   0.00674   1.99759
    A4        3.10560  -0.00050   0.00000  -0.01071  -0.01071   3.09489
    A5        3.15781   0.00001   0.00000   0.00176   0.00176   3.15957
    A6        3.14159   0.00000   0.00000  -0.00000   0.00000   3.14159
    A7        3.14159   0.00000   0.00000  -0.00000   0.00000   3.14159
    D1        3.14159  -0.00000   0.00000   0.00000   0.00000   3.14159
         Item               Value     Threshold  Converged?
 Maximum Force            0.006058     0.000450     NO 
 RMS     Force            0.002008     0.000300     NO 
 Maximum Displacement     0.012178     0.001800     NO 
 RMS     Displacement     0.005366     0.001200     NO 
 Predicted change in Energy=-4.072641D-05
 GradGradGradGradGradGradGradGradGradGradGradGradGradGradGradGradGradGrad

                          Input orientation:                          
 ---------------------------------------------------------------------
 Center     Atomic      Atomic             Coordinates (Angstroms)
 Number     Number       Type             X           Y           Z
 ---------------------------------------------------------------------
      1          6           0        0.678737   -0.447498   -0.000000
      2          8           0        1.582348    0.351912    0.000000
      3          1           0        0.869875   -1.534767   -0.000000
      4          6           0       -0.719984   -0.086203    0.000000
      5          6           0       -1.895473    0.159530    0.000000
      6          1           0       -2.931589    0.395641    0.000000
 ---------------------------------------------------------------------
                    Distance matrix (angstroms):
                    1          2          3          4          5
     1  C    0.000000
     2  O    1.206470   0.000000
     3  H    1.103941   2.016724   0.000000
     4  C    1.444629   2.343646   2.150811   0.000000
     5  C    2.644814   3.483138   3.243114   1.200899   0.000000
     6  H    3.707470   4.514148   4.263520   2.263486   1.062678
                    6
     6  H    0.000000
 Stoichiometry    C3H2O
 Framework group  CS[SG(C3H2O)]
 Deg. of freedom     9
 Full point group                 CS      NOp   2
 Largest Abelian subgroup         CS      NOp   2
 Largest concise Abelian subgroup C1      NOp   1
                         Standard orientation:                         
 ---------------------------------------------------------------------
 Center     Atomic      Atomic             Coordinates (Angstroms)
 Number     Number       Type             X           Y           Z
 ---------------------------------------------------------------------
      1          6           0        0.493849   -0.670988   -0.000000
      2          8           0       -0.215162   -1.647141    0.000000
      3          1           0        1.594441   -0.756910   -0.000000
      4          6           0        0.000000    0.686608    0.000000
      5          6           0       -0.357398    1.833092    0.000000
      6          1           0       -0.691845    2.841769    0.000000
 ---------------------------------------------------------------------
 Rotational constants (GHZ):          69.1355177           4.8437989           4.5266510
 Basis read from rwf:  (5D, 7F)
 There are   118 symmetry adapted cartesian basis functions of A'  symmetry.
 There are    52 symmetry adapted cartesian basis functions of A"  symmetry.
 There are   100 symmetry adapted basis functions of A'  symmetry.
 There are    48 symmetry adapted basis functions of A"  symmetry.
   148 basis functions,   240 primitive gaussians,   170 cartesian basis functions
    14 alpha electrons       14 beta electrons
       nuclear repulsion energy        89.1767625965 Hartrees.
 NAtoms=    6 NActive=    6 NUniq=    6 SFac= 1.00D+00 NAtFMM=   60 NAOKFM=F Big=F
 Integral buffers will be    131072 words long.
 Raffenetti 2 integral format.
 Two-electron integral symmetry is turned on.
 One-electron integrals computed using PRISM.
 NBasis=   148 RedAO= T EigKep=  4.27D-05  NBF=   100    48
 NBsUse=   148 1.00D-06 EigRej= -1.00D+00 NBFU=   100    48
 Initial guess from the checkpoint file:  "/wrk/irikura/Gau-3249.chk"
 B after Tr=    -0.000000    0.000000   -0.000000
         Rot=    0.999991   -0.000000    0.000000    0.004155 Ang=   0.48 deg.
 Initial guess orbital symmetries:
       Occupied  (A') (A') (A') (A') (A') (A') (A') (A') (A') (A')
                 (A") (A") (A') (A')
       Virtual   (A") (A') (A') (A') (A") (A') (A') (A") (A') (A')
                 (A") (A') (A') (A') (A") (A') (A') (A') (A') (A")
                 (A') (A') (A') (A') (A") (A') (A') (A") (A') (A")
                 (A') (A') (A') (A") (A') (A") (A') (A') (A") (A")
                 (A') (A') (A") (A') (A') (A") (A') (A") (A') (A')
                 (A') (A') (A') (A") (A') (A') (A") (A') (A') (A")
                 (A') (A") (A') (A') (A') (A') (A") (A') (A') (A")
                 (A') (A') (A") (A") (A') (A') (A") (A') (A') (A")
                 (A') (A") (A') (A") (A') (A") (A') (A") (A') (A")
                 (A') (A') (A") (A') (A") (A') (A") (A') (A') (A")
                 (A") (A') (A') (A") (A') (A') (A') (A") (A') (A")
                 (A') (A') (A") (A') (A") (A') (A') (A') (A") (A")
                 (A') (A') (A') (A") (A') (A") (A') (A') (A') (A")
                 (A') (A') (A') (A')
 Keep R1 ints in memory in symmetry-blocked form, NReq=91724197.
 Requested convergence on RMS density matrix=1.00D-08 within 128 cycles.
 Requested convergence on MAX density matrix=1.00D-06.
 Requested convergence on             energy=1.00D-06.
 No special actions if energy rises.
 SCF Done:  E(RB3LYP) =  -190.730127919     A.U. after    9 cycles
            NFock=  9  Conv=0.86D-08     -V/T= 2.0033
 Calling FoFJK, ICntrl=      2127 FMM=F ISym2X=1 I1Cent= 0 IOpClX= 0 NMat=1 NMatS=1 NMatT=0.
 ***** Axes restored to original set *****
 -------------------------------------------------------------------
 Center     Atomic                   Forces (Hartrees/Bohr)
 Number     Number              X              Y              Z
 -------------------------------------------------------------------
      1        6          -0.000050877   -0.000298941   -0.000000000
      2        8           0.000261478    0.000185717    0.000000000
      3        1          -0.000004185    0.000199882    0.000000000
      4        6           0.000024016   -0.000220102   -0.000000000
      5        6          -0.000255140    0.000053808    0.000000000
      6        1           0.000024707    0.000079636    0.000000000
 -------------------------------------------------------------------
 Cartesian Forces:  Max     0.000298941 RMS     0.000141176

 GradGradGradGradGradGradGradGradGradGradGradGradGradGradGradGradGradGrad
 Berny optimization.
 Using GEDIIS/GDIIS optimizer.
 FormGI is forming the generalized inverse of G from B-inverse, IUseBI=4.
 Internal  Forces:  Max     0.000356086 RMS     0.000174214
 Search for a local minimum.
 Step number   2 out of a maximum of   23
 All quantities printed in internal units (Hartrees-Bohrs-Radians)
 Mixed Optimization -- En-DIIS/RFO-DIIS
 Update second derivatives using D2CorX and points    1    2
 DE= -3.88D-05 DEPred=-4.07D-05 R= 9.53D-01
 TightC=F SS=  1.41D+00  RLast= 1.72D-02 DXNew= 5.0454D-01 5.1608D-02
 Trust test= 9.53D-01 RLast= 1.72D-02 DXMaxT set to 3.00D-01
 The second derivative matrix:
                          R1        R2        R3        R4        R5
           R1           1.02611
           R2          -0.00018   0.31167
           R3           0.00647   0.00394   0.39063
           R4           0.02205  -0.01619   0.01296   1.04327
           R5           0.00084  -0.00194   0.00082  -0.00074   0.38070
           A1          -0.00282  -0.00627   0.00041  -0.01013  -0.00090
           A2          -0.00012  -0.00435   0.00103  -0.00445  -0.00053
           A3          -0.00470   0.00217  -0.00245  -0.00445   0.00001
           A4           0.01263   0.00843   0.00303   0.02603   0.00169
           A5           0.00534   0.00489   0.00095   0.01231   0.00087
           A6          -0.00000  -0.00000  -0.00000  -0.00000  -0.00000
           A7          -0.00000  -0.00000  -0.00000  -0.00000  -0.00000
           D1           0.00000   0.00000   0.00000   0.00000   0.00000
                          A1        A2        A3        A4        A5
           A1           0.15805
           A2          -0.00167   0.24883
           A3           0.00166   0.00061   0.16112
           A4           0.00109   0.00221  -0.00487   0.05234
           A5           0.00098   0.00129  -0.00223   0.00163   0.00616
           A6          -0.00000  -0.00000   0.00000  -0.00000  -0.00000
           A7          -0.00000  -0.00000   0.00000  -0.00000  -0.00000
           D1           0.00000   0.00000  -0.00000   0.00000   0.00000
                          A6        A7        D1
           A6           0.04681
           A7           0.00000   0.00588
           D1          -0.00000  -0.00000   0.01493
 ITU=  1  0
 Use linear search instead of GDIIS.
     Eigenvalues ---    0.00583   0.00588   0.01493   0.04681   0.05094
     Eigenvalues ---    0.15788   0.22036   0.31168   0.38071   0.39066
     Eigenvalues ---    1.01119   1.05990
 RFO step:  Lambda=-6.91265534D-06 EMin= 5.83235677D-03
 Quartic linear search produced a step of -0.04741.
 Iteration  1 RMS(Cart)=  0.01345099 RMS(Int)=  0.00020150
 Iteration  2 RMS(Cart)=  0.00019737 RMS(Int)=  0.00000000
 Iteration  3 RMS(Cart)=  0.00000000 RMS(Int)=  0.00000000
 ClnCor:  largest displacement from symmetrization is 1.43D-10 for atom     1.
 Variable       Old X    -DE/DX   Delta X   Delta X   Delta X     New X
                                 (Linear)    (Quad)   (Total)
    R1        2.27990   0.00032   0.00011  -0.00002   0.00010   2.27999
    R2        2.08615  -0.00020   0.00039  -0.00166  -0.00127   2.08487
    R3        2.72995   0.00018   0.00004   0.00033   0.00037   2.73032
    R4        2.26937   0.00025   0.00028  -0.00055  -0.00027   2.26910
    R5        2.00817  -0.00001   0.00006  -0.00017  -0.00012   2.00805
    A1        2.12107  -0.00005   0.00018  -0.00077  -0.00059   2.12048
    A2        2.16452   0.00003   0.00013  -0.00024  -0.00011   2.16441
    A3        1.99759   0.00002  -0.00032   0.00102   0.00070   1.99829
    A4        3.09489   0.00036   0.00051   0.00580   0.00631   3.10120
    A5        3.15957   0.00017  -0.00008   0.02727   0.02719   3.18675
    A6        3.14159   0.00000   0.00000  -0.00000   0.00000   3.14159
    A7        3.14159  -0.00000   0.00000  -0.00000   0.00000   3.14159
    D1        3.14159   0.00000   0.00000   0.00000   0.00000   3.14159
         Item               Value     Threshold  Converged?
 Maximum Force            0.000356     0.000450     YES
 RMS     Force            0.000174     0.000300     YES
 Maximum Displacement     0.031438     0.001800     NO 
 RMS     Displacement     0.013453     0.001200     NO 
 Predicted change in Energy=-3.552532D-06
 GradGradGradGradGradGradGradGradGradGradGradGradGradGradGradGradGradGrad

                          Input orientation:                          
 ---------------------------------------------------------------------
 Center     Atomic      Atomic             Coordinates (Angstroms)
 Number     Number       Type             X           Y           Z
 ---------------------------------------------------------------------
      1          6           0        0.678474   -0.448640   -0.000000
      2          8           0        1.576644    0.356955    0.000000
      3          1           0        0.877549   -1.533799   -0.000000
      4          6           0       -0.722830   -0.096701   -0.000000
      5          6           0       -1.898281    0.148524    0.000000
      6          1           0       -2.927643    0.412278    0.000000
 ---------------------------------------------------------------------
                    Distance matrix (angstroms):
                    1          2          3          4          5
     1  C    0.000000
     2  O    1.206521   0.000000
     3  H    1.103268   2.015859   0.000000
     4  C    1.444823   2.343797   2.150921   0.000000
     5  C    2.645047   3.481171   3.245835   1.200759   0.000000
     6  H    3.707461   4.504627   4.273957   2.262800   1.062616
                    6
     6  H    0.000000
 Stoichiometry    C3H2O
 Framework group  CS[SG(C3H2O)]
 Deg. of freedom     9
 Full point group                 CS      NOp   2
 Largest Abelian subgroup         CS      NOp   2
 Largest concise Abelian subgroup C1      NOp   1
                         Standard orientation:                         
 ---------------------------------------------------------------------
 Center     Atomic      Atomic             Coordinates (Angstroms)
 Number     Number       Type             X           Y           Z
 ---------------------------------------------------------------------
      1          6           0        0.499882   -0.667840   -0.000000
      2          8           0       -0.204966   -1.647065    0.000000
      3          1           0        1.600114   -0.749640   -0.000000
      4          6           0        0.000000    0.687752    0.000000
      5          6           0       -0.369611    1.830210    0.000000
      6          1           0       -0.742011    2.825434    0.000000
 ---------------------------------------------------------------------
 Rotational constants (GHZ):          68.5597307           4.8496202           4.5292412
 Basis read from rwf:  (5D, 7F)
 There are   118 symmetry adapted cartesian basis functions of A'  symmetry.
 There are    52 symmetry adapted cartesian basis functions of A"  symmetry.
 There are   100 symmetry adapted basis functions of A'  symmetry.
 There are    48 symmetry adapted basis functions of A"  symmetry.
   148 basis functions,   240 primitive gaussians,   170 cartesian basis functions
    14 alpha electrons       14 beta electrons
       nuclear repulsion energy        89.1827895655 Hartrees.
 NAtoms=    6 NActive=    6 NUniq=    6 SFac= 1.00D+00 NAtFMM=   60 NAOKFM=F Big=F
 Integral buffers will be    131072 words long.
 Raffenetti 2 integral format.
 Two-electron integral symmetry is turned on.
 One-electron integrals computed using PRISM.
 NBasis=   148 RedAO= T EigKep=  4.28D-05  NBF=   100    48
 NBsUse=   148 1.00D-06 EigRej= -1.00D+00 NBFU=   100    48
 Initial guess from the checkpoint file:  "/wrk/irikura/Gau-3249.chk"
 B after Tr=    -0.000000   -0.000000   -0.000000
         Rot=    0.999992   -0.000000    0.000000   -0.003878 Ang=  -0.44 deg.
 Initial guess orbital symmetries:
       Occupied  (A') (A') (A') (A') (A') (A') (A') (A') (A') (A')
                 (A") (A") (A') (A')
       Virtual   (A") (A') (A') (A') (A") (A') (A') (A") (A') (A')
                 (A") (A') (A') (A') (A") (A') (A') (A') (A') (A")
                 (A') (A') (A') (A') (A') (A") (A') (A") (A') (A")
                 (A') (A') (A') (A") (A') (A") (A') (A') (A") (A")
                 (A') (A') (A") (A') (A') (A") (A') (A") (A') (A')
                 (A') (A') (A') (A") (A') (A') (A") (A') (A') (A")
                 (A') (A") (A') (A') (A') (A') (A') (A") (A') (A")
                 (A') (A') (A") (A") (A') (A') (A") (A') (A') (A")
                 (A') (A") (A') (A") (A') (A") (A') (A") (A') (A")
                 (A') (A') (A") (A') (A") (A') (A") (A') (A') (A")
                 (A") (A') (A') (A") (A') (A') (A") (A') (A') (A")
                 (A') (A') (A") (A') (A") (A') (A') (A') (A") (A")
                 (A') (A') (A') (A") (A') (A") (A') (A') (A') (A")
                 (A') (A') (A') (A')
 ExpMin= 7.42D-02 ExpMax= 1.36D+04 ExpMxC= 4.64D+02 IAcc=3 IRadAn=         5 AccDes= 0.00D+00
 Harris functional with IExCor=  402 and IRadAn=       5 diagonalized for initial guess.
 HarFok:  IExCor=  402 AccDes= 0.00D+00 IRadAn=         5 IDoV= 1 UseB2=F ITyADJ=14
 ICtDFT=  3500011 ScaDFX=  1.000000  1.000000  1.000000  1.000000
 FoFCou: FMM=F IPFlag=           0 FMFlag=      100000 FMFlg1=           0
         NFxFlg=           0 DoJE=T BraDBF=F KetDBF=T FulRan=T
         wScrn=  0.000000 ICntrl=       500 IOpCl=  0 I1Cent=   200000004 NGrid=           0
         NMat0=    1 NMatS0=      1 NMatT0=    0 NMatD0=    1 NMtDS0=    0 NMtDT0=    0
 Petite list used in FoFCou.
 Keep R1 ints in memory in symmetry-blocked form, NReq=91724197.
 Requested convergence on RMS density matrix=1.00D-08 within 128 cycles.
 Requested convergence on MAX density matrix=1.00D-06.
 Requested convergence on             energy=1.00D-06.
 No special actions if energy rises.
 Integral accuracy reduced to 1.0D-05 until final iterations.
 Initial convergence to 1.0D-05 achieved.  Increase integral accuracy.
 SCF Done:  E(RB3LYP) =  -190.730108433     A.U. after    9 cycles
            NFock=  9  Conv=0.36D-08     -V/T= 2.0033
 Calling FoFJK, ICntrl=      2127 FMM=F ISym2X=1 I1Cent= 0 IOpClX= 0 NMat=1 NMatS=1 NMatT=0.
 ***** Axes restored to original set *****
 -------------------------------------------------------------------
 Center     Atomic                   Forces (Hartrees/Bohr)
 Number     Number              X              Y              Z
 -------------------------------------------------------------------
      1        6          -0.000170458   -0.000552485   -0.000000000
      2        8           0.000047356    0.000314407    0.000000000
      3        1           0.000070158   -0.000177708   -0.000000000
      4        6           0.000572959   -0.000120771   -0.000000000
      5        6          -0.000271081    0.001268243    0.000000000
      6        1          -0.000248934   -0.000731685   -0.000000000
 -------------------------------------------------------------------
 Cartesian Forces:  Max     0.001268243 RMS     0.000414596

 GradGradGradGradGradGradGradGradGradGradGradGradGradGradGradGradGradGrad
 Berny optimization.
 Using GEDIIS/GDIIS optimizer.
 FormGI is forming the generalized inverse of G from B-inverse, IUseBI=4.
 Internal  Forces:  Max     0.001547539 RMS     0.000511792
 Search for a local minimum.
 Step number   3 out of a maximum of   23
 All quantities printed in internal units (Hartrees-Bohrs-Radians)
 Mixed Optimization -- En-DIIS/RFO-DIIS
 Swapping is turned off.
 Update second derivatives using D2CorX and points    1    2    3
 DE=  1.95D-05 DEPred=-3.55D-06 R=-5.49D+00
 Trust test=-5.49D+00 RLast= 2.80D-02 DXMaxT set to 1.50D-01
 The second derivative matrix:
                          R1        R2        R3        R4        R5
           R1           0.99683
           R2          -0.04709   0.23733
           R3           0.00620   0.00332   0.39067
           R4          -0.06429  -0.15412   0.01207   0.78886
           R5          -0.00612  -0.01309   0.00076  -0.02125   0.37905
           A1          -0.01150  -0.02041   0.00039  -0.03584  -0.00296
           A2          -0.01301  -0.02312   0.00048  -0.04151  -0.00360
           A3           0.01684   0.03507  -0.00187   0.05826   0.00513
           A4           0.00714   0.00241   0.00234   0.01126   0.00037
           A5          -0.00615  -0.00650  -0.00078  -0.01803  -0.00190
           A6          -0.00000  -0.00000  -0.00000  -0.00000  -0.00000
           A7          -0.00000  -0.00000  -0.00000  -0.00000  -0.00000
           D1           0.00000   0.00000   0.00000   0.00000   0.00000
                          A1        A2        A3        A4        A5
           A1           0.15554
           A2          -0.00600   0.24721
           A3           0.00849   0.00655   0.14835
           A4          -0.00127   0.00571  -0.00601   0.05992
           A5          -0.00431   0.01131  -0.00696   0.02147   0.05775
           A6           0.00000  -0.00000   0.00000  -0.00000  -0.00000
           A7           0.00000  -0.00000   0.00000  -0.00000  -0.00000
           D1           0.00000   0.00000  -0.00000   0.00000   0.00000
                          A6        A7        D1
           A6           0.04681
           A7           0.00000   0.00588
           D1          -0.00000  -0.00000   0.01493
 ITU= -1  1  0
     Eigenvalues ---    0.00588   0.01493   0.03524   0.04681   0.07779
     Eigenvalues ---    0.09671   0.20256   0.24964   0.38018   0.39062
     Eigenvalues ---    0.82390   1.01514
 En-DIIS/RFO-DIIS/Sim-DIIS IScMMF=       -3 using points:     3    2
 RFO step:  Lambda=-4.15052741D-05.
 DidBck=T Rises=T En-DIIS coefs:    0.31687    0.68313
 Iteration  1 RMS(Cart)=  0.01025862 RMS(Int)=  0.00014439
 Iteration  2 RMS(Cart)=  0.00014009 RMS(Int)=  0.00000000
 Iteration  3 RMS(Cart)=  0.00000000 RMS(Int)=  0.00000000
 ClnCor:  largest displacement from symmetrization is 1.81D-10 for atom     1.
 Variable       Old X    -DE/DX   Delta X   Delta X   Delta X     New X
                                 (Linear)    (Quad)   (Total)
    R1        2.27999   0.00025  -0.00007   0.00019   0.00012   2.28012
    R2        2.08487   0.00019   0.00087  -0.00057   0.00030   2.08517
    R3        2.73032   0.00005  -0.00025   0.00032   0.00007   2.73039
    R4        2.26910   0.00062   0.00018   0.00009   0.00027   2.26937
    R5        2.00805   0.00006   0.00008  -0.00003   0.00005   2.00811
    A1        2.12048   0.00013   0.00040  -0.00023   0.00017   2.12065
    A2        2.16441  -0.00033   0.00008  -0.00013  -0.00006   2.16436
    A3        1.99829   0.00021  -0.00048   0.00037  -0.00011   1.99818
    A4        3.10120  -0.00060  -0.00431   0.00373  -0.00058   3.10063
    A5        3.18675  -0.00155  -0.01857  -0.00786  -0.02643   3.16032
    A6        3.14159   0.00000   0.00000  -0.00000   0.00000   3.14159
    A7        3.14159   0.00000   0.00000  -0.00000   0.00000   3.14159
    D1        3.14159  -0.00000   0.00000   0.00000   0.00000   3.14159
         Item               Value     Threshold  Converged?
 Maximum Force            0.001548     0.000450     NO 
 RMS     Force            0.000512     0.000300     NO 
 Maximum Displacement     0.024302     0.001800     NO 
 RMS     Displacement     0.010259     0.001200     NO 
 Predicted change in Energy=-2.076714D-05
 GradGradGradGradGradGradGradGradGradGradGradGradGradGradGradGradGradGrad

                          Input orientation:                          
 ---------------------------------------------------------------------
 Center     Atomic      Atomic             Coordinates (Angstroms)
 Number     Number       Type             X           Y           Z
 ---------------------------------------------------------------------
      1          6           0        0.678652   -0.448383   -0.000000
      2          8           0        1.580252    0.353468    0.000000
      3          1           0        0.873001   -1.534559   -0.000000
      4          6           0       -0.721171   -0.090459    0.000000
      5          6           0       -1.895849    0.159132    0.000000
      6          1           0       -2.930971    0.399417    0.000000
 ---------------------------------------------------------------------
                    Distance matrix (angstroms):
                    1          2          3          4          5
     1  C    0.000000
     2  O    1.206585   0.000000
     3  H    1.103426   2.016147   0.000000
     4  C    1.444858   2.343847   2.151002   0.000000
     5  C    2.645209   3.481529   3.245785   1.200901   0.000000
     6  H    3.707849   4.511457   4.267372   2.263447   1.062645
                    6
     6  H    0.000000
 Stoichiometry    C3H2O
 Framework group  CS[SG(C3H2O)]
 Deg. of freedom     9
 Full point group                 CS      NOp   2
 Largest Abelian subgroup         CS      NOp   2
 Largest concise Abelian subgroup C1      NOp   1
                         Standard orientation:                         
 ---------------------------------------------------------------------
 Center     Atomic      Atomic             Coordinates (Angstroms)
 Number     Number       Type             X           Y           Z
 ---------------------------------------------------------------------
      1          6           0        0.497717   -0.669091    0.000000
      2          8           0       -0.208798   -1.647193    0.000000
      3          1           0        1.597983   -0.752547    0.000000
      4          6           0        0.000000    0.687335    0.000000
      5          6           0       -0.367159    1.830733    0.000000
      6          1           0       -0.710942    2.836232    0.000000
 ---------------------------------------------------------------------
 Rotational constants (GHZ):          68.7871291           4.8469620           4.5279109
 Basis read from rwf:  (5D, 7F)
 There are   118 symmetry adapted cartesian basis functions of A'  symmetry.
 There are    52 symmetry adapted cartesian basis functions of A"  symmetry.
 There are   100 symmetry adapted basis functions of A'  symmetry.
 There are    48 symmetry adapted basis functions of A"  symmetry.
   148 basis functions,   240 primitive gaussians,   170 cartesian basis functions
    14 alpha electrons       14 beta electrons
       nuclear repulsion energy        89.1754866578 Hartrees.
 NAtoms=    6 NActive=    6 NUniq=    6 SFac= 1.00D+00 NAtFMM=   60 NAOKFM=F Big=F
 Integral buffers will be    131072 words long.
 Raffenetti 2 integral format.
 Two-electron integral symmetry is turned on.
 One-electron integrals computed using PRISM.
 NBasis=   148 RedAO= T EigKep=  4.28D-05  NBF=   100    48
 NBsUse=   148 1.00D-06 EigRej= -1.00D+00 NBFU=   100    48
 Initial guess from the checkpoint file:  "/wrk/irikura/Gau-3249.chk"
 B after Tr=     0.000000   -0.000000    0.000000
         Rot=    0.999999   -0.000000    0.000000    0.001564 Ang=   0.18 deg.
 Initial guess orbital symmetries:
       Occupied  (A') (A') (A') (A') (A') (A') (A') (A') (A') (A')
                 (A") (A") (A') (A')
       Virtual   (A") (A') (A') (A') (A") (A') (A') (A") (A') (A')
                 (A") (A') (A') (A') (A") (A') (A') (A') (A') (A")
                 (A') (A') (A') (A') (A") (A') (A') (A") (A') (A")
                 (A') (A') (A') (A") (A') (A") (A') (A') (A") (A")
                 (A') (A') (A") (A') (A') (A") (A') (A") (A') (A')
                 (A') (A') (A') (A") (A') (A') (A") (A') (A') (A")
                 (A') (A") (A') (A') (A') (A') (A') (A") (A') (A")
                 (A') (A') (A") (A") (A') (A') (A") (A') (A') (A")
                 (A') (A") (A') (A") (A') (A") (A') (A") (A') (A")
                 (A') (A') (A") (A') (A") (A') (A") (A') (A') (A")
                 (A") (A') (A') (A") (A') (A') (A") (A') (A') (A")
                 (A') (A') (A") (A') (A") (A') (A') (A') (A") (A")
                 (A') (A') (A') (A") (A') (A") (A') (A') (A') (A")
                 (A') (A') (A') (A')
 ExpMin= 7.42D-02 ExpMax= 1.36D+04 ExpMxC= 4.64D+02 IAcc=3 IRadAn=         5 AccDes= 0.00D+00
 Harris functional with IExCor=  402 and IRadAn=       5 diagonalized for initial guess.
 HarFok:  IExCor=  402 AccDes= 0.00D+00 IRadAn=         5 IDoV= 1 UseB2=F ITyADJ=14
 ICtDFT=  3500011 ScaDFX=  1.000000  1.000000  1.000000  1.000000
 FoFCou: FMM=F IPFlag=           0 FMFlag=      100000 FMFlg1=           0
         NFxFlg=           0 DoJE=T BraDBF=F KetDBF=T FulRan=T
         wScrn=  0.000000 ICntrl=       500 IOpCl=  0 I1Cent=   200000004 NGrid=           0
         NMat0=    1 NMatS0=      1 NMatT0=    0 NMatD0=    1 NMtDS0=    0 NMtDT0=    0
 Petite list used in FoFCou.
 Keep R1 ints in memory in symmetry-blocked form, NReq=91724197.
 Requested convergence on RMS density matrix=1.00D-08 within 128 cycles.
 Requested convergence on MAX density matrix=1.00D-06.
 Requested convergence on             energy=1.00D-06.
 No special actions if energy rises.
 Integral accuracy reduced to 1.0D-05 until final iterations.
 Initial convergence to 1.0D-05 achieved.  Increase integral accuracy.
 SCF Done:  E(RB3LYP) =  -190.730129124     A.U. after    9 cycles
            NFock=  9  Conv=0.43D-08     -V/T= 2.0033
 Calling FoFJK, ICntrl=      2127 FMM=F ISym2X=1 I1Cent= 0 IOpClX= 0 NMat=1 NMatS=1 NMatT=0.
 ***** Axes restored to original set *****
 -------------------------------------------------------------------
 Center     Atomic                   Forces (Hartrees/Bohr)
 Number     Number              X              Y              Z
 -------------------------------------------------------------------
      1        6          -0.000078732   -0.000140805   -0.000000000
      2        8           0.000071082    0.000150932    0.000000000
      3        1           0.000018108   -0.000080781   -0.000000000
      4        6           0.000208705    0.000038270    0.000000000
      5        6          -0.000202041    0.000023602    0.000000000
      6        1          -0.000017122    0.000008782    0.000000000
 -------------------------------------------------------------------
 Cartesian Forces:  Max     0.000208705 RMS     0.000090518

 GradGradGradGradGradGradGradGradGradGradGradGradGradGradGradGradGradGrad
 Berny optimization.
 Using GEDIIS/GDIIS optimizer.
 FormGI is forming the generalized inverse of G from B-inverse, IUseBI=4.
 Internal  Forces:  Max     0.000221110 RMS     0.000086235
 Search for a local minimum.
 Step number   4 out of a maximum of   23
 All quantities printed in internal units (Hartrees-Bohrs-Radians)
 Mixed Optimization -- En-DIIS/RFO-DIIS
 Swapping is turned off.
 Update second derivatives using D2CorX and points    1    2    3    4
 DE= -2.07D-05 DEPred=-2.08D-05 R= 9.96D-01
 TightC=F SS=  1.41D+00  RLast= 2.64D-02 DXNew= 2.5227D-01 7.9324D-02
 Trust test= 9.96D-01 RLast= 2.64D-02 DXMaxT set to 1.50D-01
 The second derivative matrix:
                          R1        R2        R3        R4        R5
           R1           1.01113
           R2           0.01509   0.31527
           R3          -0.00269   0.00740   0.38686
           R4           0.01946  -0.00058   0.00763   1.05352
           R5           0.00175  -0.00052   0.00067   0.00116   0.38095
           A1          -0.00070  -0.00176  -0.00033  -0.00517  -0.00020
           A2           0.00726  -0.02131   0.00843  -0.00963  -0.00214
           A3          -0.01276   0.01288  -0.00811  -0.00399   0.00081
           A4          -0.00010   0.00245   0.00073   0.00832  -0.00006
           A5           0.00158  -0.00040   0.00026  -0.00435  -0.00074
           A6          -0.00000  -0.00000   0.00000  -0.00000  -0.00000
           A7          -0.00000   0.00000  -0.00000  -0.00000  -0.00000
           D1           0.00000   0.00000   0.00000   0.00000   0.00000
                          A1        A2        A3        A4        A5
           A1           0.16007
           A2          -0.00599   0.24964
           A3           0.00367   0.00345   0.15706
           A4          -0.00379   0.01766  -0.01428   0.06366
           A5          -0.00202   0.00746  -0.00599   0.02046   0.05841
           A6          -0.00000  -0.00000   0.00000   0.00000  -0.00000
           A7           0.00000  -0.00000   0.00000  -0.00000  -0.00000
           D1           0.00000   0.00000  -0.00000   0.00000   0.00000
                          A6        A7        D1
           A6           0.04681
           A7          -0.00000   0.00588
           D1          -0.00000  -0.00000   0.01493
 ITU=  1 -1  1  0
     Eigenvalues ---    0.00588   0.01493   0.03987   0.04681   0.07711
     Eigenvalues ---    0.15437   0.22092   0.32018   0.38094   0.38807
     Eigenvalues ---    1.00416   1.06126
 En-DIIS/RFO-DIIS/Sim-DIIS IScMMF=       -3 using points:     4    3    2
 RFO step:  Lambda=-1.68039832D-07.
 DidBck=F Rises=F RFO-DIIS coefs:    0.92737    0.01530    0.05734
 Iteration  1 RMS(Cart)=  0.00022793 RMS(Int)=  0.00000003
 Iteration  2 RMS(Cart)=  0.00000004 RMS(Int)=  0.00000000
 ClnCor:  largest displacement from symmetrization is 2.06D-13 for atom     1.
 Variable       Old X    -DE/DX   Delta X   Delta X   Delta X     New X
                                 (Linear)    (Quad)   (Total)
    R1        2.28012   0.00015  -0.00001   0.00016   0.00015   2.28026
    R2        2.08517   0.00008   0.00005   0.00017   0.00022   2.08539
    R3        2.73039   0.00003  -0.00003   0.00010   0.00008   2.73046
    R4        2.26937   0.00022  -0.00000   0.00021   0.00021   2.26958
    R5        2.00811   0.00002   0.00000   0.00004   0.00005   2.00815
    A1        2.12065   0.00005   0.00002   0.00016   0.00019   2.12083
    A2        2.16436  -0.00010   0.00001  -0.00044  -0.00043   2.16393
    A3        1.99818   0.00005  -0.00003   0.00027   0.00024   1.99842
    A4        3.10063  -0.00002  -0.00032   0.00001  -0.00031   3.10031
    A5        3.16032   0.00001   0.00036   0.00001   0.00037   3.16069
    A6        3.14159   0.00000  -0.00000   0.00000   0.00000   3.14159
    A7        3.14159   0.00000  -0.00000   0.00000   0.00000   3.14159
    D1        3.14159  -0.00000  -0.00000  -0.00000   0.00000   3.14159
         Item               Value     Threshold  Converged?
 Maximum Force            0.000221     0.000450     YES
 RMS     Force            0.000086     0.000300     YES
 Maximum Displacement     0.000418     0.001800     YES
 RMS     Displacement     0.000228     0.001200     YES
 Predicted change in Energy=-8.399967D-08
 Optimization completed.
    -- Stationary point found.
                           ----------------------------
                           !   Optimized Parameters   !
                           ! (Angstroms and Degrees)  !
 --------------------------                            --------------------------
 ! Name  Definition              Value          Derivative Info.                !
 --------------------------------------------------------------------------------
 ! R1    R(1,2)                  1.2066         -DE/DX =    0.0002              !
 ! R2    R(1,3)                  1.1034         -DE/DX =    0.0001              !
 ! R3    R(1,4)                  1.4449         -DE/DX =    0.0                 !
 ! R4    R(4,5)                  1.2009         -DE/DX =    0.0002              !
 ! R5    R(5,6)                  1.0626         -DE/DX =    0.0                 !
 ! A1    A(2,1,3)              121.5042         -DE/DX =    0.0                 !
 ! A2    A(2,1,4)              124.0084         -DE/DX =   -0.0001              !
 ! A3    A(3,1,4)              114.4874         -DE/DX =    0.0001              !
 ! A4    L(1,4,5,3,-1)         177.6527         -DE/DX =    0.0                 !
 ! A5    L(4,5,6,3,-1)         181.0732         -DE/DX =    0.0                 !
 ! A6    L(1,4,5,3,-2)         180.0            -DE/DX =    0.0                 !
 ! A7    L(4,5,6,3,-2)         180.0            -DE/DX =    0.0                 !
 ! D1    D(2,1,4,3)            180.0            -DE/DX =    0.0                 !
 --------------------------------------------------------------------------------
 GradGradGradGradGradGradGradGradGradGradGradGradGradGradGradGradGradGrad

                          Input orientation:                          
 ---------------------------------------------------------------------
 Center     Atomic      Atomic             Coordinates (Angstroms)
 Number     Number       Type             X           Y           Z
 ---------------------------------------------------------------------
      1          6           0        0.678652   -0.448383   -0.000000
      2          8           0        1.580252    0.353468    0.000000
      3          1           0        0.873001   -1.534559   -0.000000
      4          6           0       -0.721171   -0.090459   -0.000000
      5          6           0       -1.895849    0.159132    0.000000
      6          1           0       -2.930971    0.399417    0.000000
 ---------------------------------------------------------------------
                    Distance matrix (angstroms):
                    1          2          3          4          5
     1  C    0.000000
     2  O    1.206585   0.000000
     3  H    1.103426   2.016147   0.000000
     4  C    1.444858   2.343847   2.151002   0.000000
     5  C    2.645209   3.481529   3.245785   1.200901   0.000000
     6  H    3.707849   4.511457   4.267372   2.263447   1.062645
                    6
     6  H    0.000000
 Stoichiometry    C3H2O
 Framework group  CS[SG(C3H2O)]
 Deg. of freedom     9
 Full point group                 CS      NOp   2
 Largest Abelian subgroup         CS      NOp   2
 Largest concise Abelian subgroup C1      NOp   1
                         Standard orientation:                         
 ---------------------------------------------------------------------
 Center     Atomic      Atomic             Coordinates (Angstroms)
 Number     Number       Type             X           Y           Z
 ---------------------------------------------------------------------
      1          6           0        0.497717   -0.669091   -0.000000
      2          8           0       -0.208798   -1.647193    0.000000
      3          1           0        1.597983   -0.752547   -0.000000
      4          6           0       -0.000000    0.687335    0.000000
      5          6           0       -0.367159    1.830733    0.000000
      6          1           0       -0.710942    2.836232    0.000000
 ---------------------------------------------------------------------
 Rotational constants (GHZ):          68.7871291           4.8469620           4.5279109

 **********************************************************************

            Population analysis using the SCF Density.

 **********************************************************************

 Orbital symmetries:
       Occupied  (A') (A') (A') (A') (A') (A') (A') (A') (A') (A')
                 (A") (A") (A') (A')
       Virtual   (A") (A') (A') (A') (A") (A') (A') (A") (A') (A')
                 (A") (A') (A') (A') (A") (A') (A') (A') (A') (A")
                 (A') (A') (A') (A') (A') (A") (A') (A") (A') (A")
                 (A') (A') (A') (A") (A') (A") (A') (A') (A") (A")
                 (A') (A') (A") (A') (A') (A") (A') (A") (A') (A')
                 (A') (A') (A') (A") (A') (A') (A") (A') (A') (A")
                 (A') (A") (A') (A') (A') (A') (A') (A") (A') (A")
                 (A') (A') (A") (A") (A') (A') (A") (A') (A') (A")
                 (A') (A") (A') (A") (A') (A") (A') (A") (A') (A")
                 (A') (A') (A") (A') (A") (A') (A") (A') (A') (A")
                 (A") (A') (A') (A") (A') (A') (A") (A') (A') (A")
                 (A') (A') (A") (A') (A") (A') (A') (A') (A") (A")
                 (A') (A') (A') (A") (A') (A") (A') (A') (A') (A")
                 (A') (A') (A') (A')
 The electronic state is 1-A'.
 Alpha  occ. eigenvalues --  -19.14686 -10.29807 -10.21455 -10.20606  -1.07533
 Alpha  occ. eigenvalues --   -0.80007  -0.68800  -0.56745  -0.52989  -0.47187
 Alpha  occ. eigenvalues --   -0.43070  -0.32343  -0.32211  -0.29349
 Alpha virt. eigenvalues --   -0.09118  -0.00404   0.02281   0.03843   0.06361
 Alpha virt. eigenvalues --    0.09983   0.11051   0.15147   0.17645   0.18610
 Alpha virt. eigenvalues --    0.20324   0.22206   0.24528   0.28365   0.29455
 Alpha virt. eigenvalues --    0.29958   0.33860   0.40307   0.42272   0.42345
 Alpha virt. eigenvalues --    0.45031   0.51192   0.52950   0.56502   0.71861
 Alpha virt. eigenvalues --    0.71875   0.77557   0.78508   0.83600   0.84116
 Alpha virt. eigenvalues --    0.85131   0.95157   1.00213   1.02857   1.06640
 Alpha virt. eigenvalues --    1.09063   1.11716   1.15591   1.19605   1.23590
 Alpha virt. eigenvalues --    1.24496   1.26283   1.31331   1.34586   1.36045
 Alpha virt. eigenvalues --    1.36242   1.42332   1.47191   1.48528   1.54037
 Alpha virt. eigenvalues --    1.60808   1.66790   1.68523   1.71125   1.85248
 Alpha virt. eigenvalues --    1.96062   1.96275   2.04258   2.05551   2.12151
 Alpha virt. eigenvalues --    2.23163   2.41237   2.44102   2.50621   2.80266
 Alpha virt. eigenvalues --    2.91039   2.96283   2.96341   3.04934   3.14845
 Alpha virt. eigenvalues --    3.15588   3.21549   3.27117   3.28271   3.31815
 Alpha virt. eigenvalues --    3.48277   3.52420   3.53492   3.57163   3.58926
 Alpha virt. eigenvalues --    3.64765   3.76045   3.76424   3.79838   3.83502
 Alpha virt. eigenvalues --    3.86804   3.89033   3.90965   3.92620   3.94436
 Alpha virt. eigenvalues --    3.94520   3.96963   3.98982   4.09170   4.10993
 Alpha virt. eigenvalues --    4.16431   4.17399   4.19884   4.24836   4.25572
 Alpha virt. eigenvalues --    4.32227   4.32275   4.35805   4.42336   4.52996
 Alpha virt. eigenvalues --    4.55827   4.59440   4.59580   4.66725   4.67281
 Alpha virt. eigenvalues --    4.70639   4.78106   4.81295   5.06857   5.22208
[...]
                     A'                     A"                     A'
 Frequencies --    214.6642               274.6588               634.8144
 Red. masses --      4.7516                 3.3748                 9.0678
 Frc consts  --      0.1290                 0.1500                 2.1530
 IR Inten    --      5.8885                10.5053                 9.0921
  Atom  AN      X      Y      Z        X      Y      Z        X      Y      Z
     1   6     0.15  -0.05  -0.00    -0.00   0.00  -0.07     0.24   0.15   0.00
     2   8    -0.18   0.19  -0.00     0.00  -0.00  -0.05    -0.07   0.41   0.00
     3   1     0.12  -0.39  -0.00    -0.00   0.00  -0.63     0.25   0.19   0.00
     4   6     0.37   0.02   0.00    -0.00  -0.00   0.42    -0.37  -0.41  -0.00
     5   6    -0.23  -0.17  -0.00     0.00   0.00  -0.18     0.16  -0.30  -0.00
     6   1    -0.65  -0.32  -0.00     0.00   0.00  -0.63     0.44  -0.22   0.00
                      4                      5                      6
                     A'                     A"                     A'
 Frequencies --    686.0291               746.3209               955.8678
 Red. masses --      1.2633                 1.2956                 5.2672
 Frc consts  --      0.3503                 0.4252                 2.8355
 IR Inten    --     47.4232                34.2423               105.0053
  Atom  AN      X      Y      Z        X      Y      Z        X      Y      Z
     1   6     0.01  -0.00   0.00     0.00  -0.00   0.00     0.37  -0.33   0.00
     2   8     0.00   0.00   0.00    -0.00  -0.00  -0.00    -0.08   0.00  -0.00
     3   1     0.01  -0.01   0.00    -0.00  -0.00   0.01     0.34  -0.64  -0.00
     4   6     0.05   0.02   0.00     0.00   0.00   0.06    -0.22   0.09  -0.00
     5   6    -0.14  -0.05  -0.00     0.00   0.00  -0.15    -0.07   0.26   0.00
     6   1     0.94   0.32   0.00    -0.00  -0.00   0.99     0.01   0.31  -0.00
                      7                      8                      9
                     A"                     A'                     A'
 Frequencies --   1012.0914              1417.3205              1750.3733
 Red. masses --      1.7545                 1.1789                10.4875
 Frc consts  --      1.0589                 1.3953                18.9315
 IR Inten    --      0.3797                 8.7239               219.8515
  Atom  AN      X      Y      Z        X      Y      Z        X      Y      Z
     1   6     0.00  -0.00  -0.24     0.06  -0.06   0.00     0.38   0.61  -0.00
     2   8    -0.00   0.00   0.06    -0.07  -0.03  -0.00    -0.29  -0.41   0.00
     3   1     0.00  -0.00   0.96     0.16   0.98  -0.00     0.27  -0.39   0.00
     4   6    -0.00   0.00   0.08     0.02   0.00   0.00    -0.03  -0.01  -0.00
     5   6    -0.00   0.00  -0.00    -0.00   0.01  -0.00     0.01  -0.01   0.00
     6   1     0.00   0.00  -0.06    -0.01   0.01   0.00     0.04  -0.01  -0.00
                     10                     11                     12
                     A'                     A'                     A'
 Frequencies --   2198.5600              2942.8725              3462.1264
 Red. masses --      5.9428                 1.0829                 1.1608
 Frc consts  --     16.9246                 5.5257                 8.1975
 IR Inten    --     63.1859                67.6824                50.0957
  Atom  AN      X      Y      Z        X      Y      Z        X      Y      Z
     1   6     0.04  -0.06   0.00    -0.08   0.01  -0.00     0.00  -0.00  -0.00
     2   8    -0.01  -0.01  -0.00    -0.00  -0.00   0.00    -0.00  -0.00   0.00
     3   1     0.04  -0.01  -0.00     0.99  -0.10   0.00     0.00   0.00   0.00
     4   6    -0.17   0.51  -0.00    -0.00   0.00   0.00    -0.01   0.03   0.00
     5   6     0.12  -0.37   0.00    -0.00   0.00  -0.00     0.04  -0.11   0.00
     6   1     0.23  -0.70   0.00    -0.00   0.00   0.00    -0.32   0.94  -0.00

 -------------------
 - Thermochemistry -
 -------------------
 Temperature   298.150 Kelvin.  Pressure   1.00000 Atm.
 Atom     1 has atomic number  6 and mass  12.00000
 Atom     2 has atomic number  8 and mass  15.99491
 Atom     3 has atomic number  1 and mass   1.00783
 Atom     4 has atomic number  6 and mass  12.00000
 Atom     5 has atomic number  6 and mass  12.00000
 Atom     6 has atomic number  1 and mass   1.00783
 Molecular mass:    54.01056 amu.
 Principal axes and moments of inertia in atomic units:
                           1         2         3
     Eigenvalues --    26.23661 372.34482 398.58143
           X           -0.10205   0.99478   0.00000
           Y            0.99478   0.10205   0.00000
           Z            0.00000   0.00000   1.00000
 This molecule is an asymmetric top.
 Rotational symmetry number  1.
 Rotational temperatures (Kelvin)      3.30126     0.23262     0.21731
 Rotational constants (GHZ):          68.78713     4.84696     4.52791
 Zero-point vibrational energy      97469.9 (Joules/Mol)
                                   23.29587 (Kcal/Mol)
 Warning -- explicit consideration of   2 degrees of freedom as
           vibrations may cause significant error
 Vibrational temperatures:    308.85   395.17   913.36   987.04  1073.79
          (Kelvin)           1375.28  1456.17  2039.21  2518.40  3163.24
                             4234.14  4981.23
 
 Zero-point correction=                           0.037124 (Hartree/Particle)
 Thermal correction to Energy=                    0.041391
 Thermal correction to Enthalpy=                  0.042335
 Thermal correction to Gibbs Free Energy=         0.011201
 Sum of electronic and zero-point Energies=           -190.693005
 Sum of electronic and thermal Energies=              -190.688738
 Sum of electronic and thermal Enthalpies=            -190.687794
 Sum of electronic and thermal Free Energies=         -190.718928
 
                     E (Thermal)             CV                S
                      KCal/Mol        Cal/Mol-Kelvin    Cal/Mol-Kelvin
 Total                   25.973             12.987             65.527
 Electronic               0.000              0.000              0.000
 Translational            0.889              2.981             37.882
 Rotational               0.889              2.981             22.881
 Vibrational             24.196              7.025              4.765
 Vibration     1          0.645              1.819              2.004
 Vibration     2          0.677              1.720              1.567
                       Q            Log10(Q)             Ln(Q)
 Total Bot       0.704452D-05         -5.152149        -11.863261
 Total V=0       0.839160D+12         11.923845         27.455667
 Vib (Bot)       0.202138D-16        -16.694351        -38.440165
 Vib (Bot)    1  0.923494D+00         -0.034566         -0.079591
 Vib (Bot)    2  0.701959D+00         -0.153688         -0.353880
 Vib (V=0)       0.240792D+01          0.381642          0.878763
 Vib (V=0)    1  0.155016D+01          0.190377          0.438360
 Vib (V=0)    2  0.136183D+01          0.134122          0.308827
 Electronic      0.100000D+01          0.000000          0.000000
 Translational   0.156017D+08          7.193172         16.562891
 Rotational      0.223373D+05          4.349031         10.014013
 ***** Axes restored to original set *****
 -------------------------------------------------------------------
 Center     Atomic                   Forces (Hartrees/Bohr)
 Number     Number              X              Y              Z
 -------------------------------------------------------------------
      1        6          -0.000078752   -0.000140828   -0.000000000
      2        8           0.000071081    0.000150930    0.000000000
      3        1           0.000018106   -0.000080755   -0.000000000
      4        6           0.000208676    0.000038285    0.000000000
      5        6          -0.000202007    0.000023592    0.000000000
      6        1          -0.000017104    0.000008776    0.000000000
 -------------------------------------------------------------------
 Cartesian Forces:  Max     0.000208676 RMS     0.000090511
 FormGI is forming the generalized inverse of G from B-inverse, IUseBI=4.

 GradGradGradGradGradGradGradGradGradGradGradGradGradGradGradGradGradGrad
 Berny optimization.
 Internal  Forces:  Max     0.000221056 RMS     0.000086221
 Search for a local minimum.
 Step number   1 out of a maximum of    2
 All quantities printed in internal units (Hartrees-Bohrs-Radians)
 Second derivative matrix not updated -- analytic derivatives used.
 The second derivative matrix:
                          R1        R2        R3        R4        R5
           R1           0.83247
           R2           0.03590   0.30780
           R3           0.08281   0.01515   0.32137
           R4          -0.00513   0.00136   0.00862   1.07994
           R5          -0.00014   0.00003  -0.00018  -0.00674   0.40936
           A1           0.01735   0.00234  -0.02658  -0.00433   0.00028
           A2           0.02238  -0.01246   0.01620   0.00086  -0.00047
           A3          -0.03973   0.01011   0.01038   0.00347   0.00019
           A4           0.00303  -0.00040  -0.00126   0.00401   0.00014
           A5           0.00110  -0.00025   0.00029  -0.00287  -0.00050
           A6          -0.00000  -0.00000  -0.00000  -0.00000  -0.00000
           A7          -0.00000   0.00000   0.00000  -0.00000  -0.00000
           D1           0.00000  -0.00000   0.00000   0.00000  -0.00000
                          A1        A2        A3        A4        A5
           A1           0.11787
           A2          -0.07692   0.13385
           A3          -0.04095  -0.05692   0.09787
           A4          -0.00394   0.02213  -0.01819   0.06543
           A5          -0.00184   0.00772  -0.00588   0.02039   0.05839
           A6           0.00000  -0.00000   0.00000   0.00000  -0.00000
           A7           0.00000  -0.00000   0.00000   0.00000   0.00000
           D1          -0.00000   0.00000  -0.00000   0.00000   0.00000
                          A6        A7        D1
           A6           0.01318
           A7           0.00204   0.00663
           D1           0.00271   0.00126   0.07597
 ITU=  0
     Eigenvalues ---    0.00604   0.01362   0.04009   0.07452   0.07612
     Eigenvalues ---    0.14025   0.20297   0.30401   0.32180   0.40929
     Eigenvalues ---    0.85116   1.08024
 Angle between quadratic step and forces=  45.37 degrees.
 Linear search not attempted -- first point.
 Iteration  1 RMS(Cart)=  0.00031800 RMS(Int)=  0.00000006
 Iteration  2 RMS(Cart)=  0.00000007 RMS(Int)=  0.00000000
 ClnCor:  largest displacement from symmetrization is 3.65D-14 for atom     1.
 Variable       Old X    -DE/DX   Delta X   Delta X   Delta X     New X
                                 (Linear)    (Quad)   (Total)
    R1        2.28012   0.00015   0.00000   0.00020   0.00020   2.28032
    R2        2.08517   0.00008   0.00000   0.00021   0.00021   2.08538
    R3        2.73039   0.00003   0.00000   0.00005   0.00005   2.73043
    R4        2.26937   0.00022   0.00000   0.00021   0.00021   2.26958
    R5        2.00811   0.00002   0.00000   0.00005   0.00005   2.00816
    A1        2.12065   0.00005   0.00000   0.00017   0.00017   2.12081
    A2        2.16436  -0.00010   0.00000  -0.00053  -0.00053   2.16383
    A3        1.99818   0.00005   0.00000   0.00036   0.00036   1.99854
    A4        3.10063  -0.00002   0.00000  -0.00018  -0.00018   3.10044
    A5        3.16032   0.00001   0.00000   0.00034   0.00034   3.16066
    A6        3.14159  -0.00000   0.00000   0.00000   0.00000   3.14159
    A7        3.14159   0.00000   0.00000   0.00000   0.00000   3.14159
    D1        3.14159   0.00000   0.00000   0.00000   0.00000   3.14159
         Item               Value     Threshold  Converged?
 Maximum Force            0.000221     0.000450     YES
 RMS     Force            0.000086     0.000300     YES
 Maximum Displacement     0.000554     0.001800     YES
 RMS     Displacement     0.000318     0.001200     YES
 Predicted change in Energy=-9.217388D-08
 Optimization completed.
    -- Stationary point found.
                           ----------------------------
                           !   Optimized Parameters   !
                           ! (Angstroms and Degrees)  !
 --------------------------                            --------------------------
 ! Name  Definition              Value          Derivative Info.                !
 --------------------------------------------------------------------------------
 ! R1    R(1,2)                  1.2066         -DE/DX =    0.0002              !
 ! R2    R(1,3)                  1.1034         -DE/DX =    0.0001              !
 ! R3    R(1,4)                  1.4449         -DE/DX =    0.0                 !
 ! R4    R(4,5)                  1.2009         -DE/DX =    0.0002              !
 ! R5    R(5,6)                  1.0626         -DE/DX =    0.0                 !
 ! A1    A(2,1,3)              121.5042         -DE/DX =    0.0                 !
 ! A2    A(2,1,4)              124.0084         -DE/DX =   -0.0001              !
 ! A3    A(3,1,4)              114.4874         -DE/DX =    0.0001              !
 ! A4    L(1,4,5,3,-1)         177.6527         -DE/DX =    0.0                 !
 ! A5    L(4,5,6,3,-1)         181.0732         -DE/DX =    0.0                 !
 ! A6    L(1,4,5,3,-2)         180.0            -DE/DX =    0.0                 !
 ! A7    L(4,5,6,3,-2)         180.0            -DE/DX =    0.0                 !
 ! D1    D(2,1,4,3)            180.0            -DE/DX =    0.0                 !
 --------------------------------------------------------------------------------
 GradGradGradGradGradGradGradGradGradGradGradGradGradGradGradGradGradGrad


 ----------------------------------------------------------------------

 Electric dipole moment (input orientation):
 (Debye = 10**-18 statcoulomb cm , SI units = C m)
                  (au)            (Debye)         (10**-30 SI)
   Tot        0.118849D+01      0.302083D+01      0.100764D+02
   x         -0.104633D+01     -0.265950D+01     -0.887115D+01
   y         -0.563642D+00     -0.143264D+01     -0.477876D+01
   z          0.000000D+00      0.000000D+00      0.000000D+00

 Dipole polarizability, Alpha (input orientation).
 (esu units = cm**3 , SI units = C**2 m**2 J**-1)
 Alpha(0;0):
               (au)            (10**-24 esu)      (10**-40 SI)
   iso        0.354646D+02      0.525532D+01      0.584733D+01
   aniso      0.343595D+02      0.509155D+01      0.566511D+01
   xx         0.577614D+02      0.855935D+01      0.952356D+01
   yx        -0.213943D+01     -0.317031D+00     -0.352745D+00
   yy         0.283274D+02      0.419769D+01      0.467056D+01
   zx         0.000000D+00      0.000000D+00      0.000000D+00
   zy         0.000000D+00      0.000000D+00      0.000000D+00
   zz         0.203052D+02      0.300891D+01      0.334787D+01

 ----------------------------------------------------------------------

 Dipole orientation:
     6          0.64222611         -1.19220962         -0.72722414
     8          0.39276300         -0.72911365         -2.94583599
     1          1.58183493         -2.93647174         -0.07712264
     6         -0.23514571          0.43651756          1.28087730
     6         -0.93134753          1.72892610          3.01149704
     1         -1.56089230          2.89759445          4.51827666

 Electric dipole moment (dipole orientation):
 (Debye = 10**-18 statcoulomb cm , SI units = C m)
                  (au)            (Debye)         (10**-30 SI)
   Tot        0.118849D+01      0.302083D+01      0.100764D+02
   x          0.000000D+00      0.000000D+00      0.000000D+00
   y          0.000000D+00      0.000000D+00      0.000000D+00
   z          0.118849D+01      0.302083D+01      0.100764D+02

 Dipole polarizability, Alpha (dipole orientation).
 (esu units = cm**3 , SI units = C**2 m**2 J**-1)
 Alpha(0;0):
               (au)            (10**-24 esu)      (10**-40 SI)
   iso        0.354646D+02      0.525532D+01      0.584733D+01
   aniso      0.343595D+02      0.509155D+01      0.566511D+01
   xx         0.240003D+02      0.355648D+01      0.395711D+01
   yx        -0.685952D+01     -0.101648D+01     -0.113098D+01
   yy         0.330390D+02      0.489587D+01      0.544739D+01
   zx        -0.638654D+01     -0.946387D+00     -0.105300D+01
   zy         0.118558D+02      0.175684D+01      0.195475D+01
   zz         0.493547D+02      0.731361D+01      0.813749D+01

 ----------------------------------------------------------------------
 1\1\GINC-GAMBA\Freq\RB3LYP\Gen\C3H2O1\IRIKURA\17-Jun-2022\0\\#N Geom=A
 llCheck Guess=TCheck SCRF=Check GenChk RB3LYP/ChkBas Freq\\2-propynal,
  B3LYP/pcseg-2\\0,1\C,0.6786518161,-0.4483832823,0.\O,1.5802522112,0.3
 534676554,0.\H,0.8730010202,-1.5345589424,0.\C,-0.7211710031,-0.090458
 5973,0.\C,-1.8958491476,0.159131769,0.\H,-2.9309708968,0.3994173975,0.
 \\Version=ES64L-G16RevB.01\State=1-A'\HF=-190.7301291\RMSD=1.351e-09\R
 MSF=9.051e-05\ZeroPoint=0.0371243\Thermal=0.0413911\Dipole=-1.0463289,
 -0.5636423,0.\DipoleDeriv=1.6064667,0.0194664,0.,0.0048249,0.9498586,0
 .,0.,0.,0.2719101,-0.9864239,-0.1599992,0.,-0.3100206,-0.6152018,0.,0.
 ,0.,-0.336331,-0.0067711,0.047746,0.,0.0397139,-0.1841716,0.,0.,0.,0.0
 812005,-0.7020527,0.1018828,0.,0.2815515,-0.2194211,0.,0.,0.,-0.087441
 9,-0.1649027,-0.0075302,0.,-0.0133565,-0.1653394,0.,0.,0.,-0.1290493,0
 .2536838,-0.0015659,0.,-0.0027132,0.2342753,0.,0.,0.,0.1997116\Polar=5
 7.7613685,-2.1394326,28.327386,0.,0.,20.3051637\Quadrupole=1.0054317,-
 0.3912652,-0.6141665,-2.5811215,0.,0.\PG=CS [SG(C3H2O1)]\NImag=0\\0.70
 876922,0.18564731,0.75057777,0.,0.,0.17842218,-0.42669681,-0.32807341,
 0.,0.50139641,-0.29777087,-0.39679909,0.,0.37443250,0.40901295,0.,0.,-
 0.06012594,0.,0.,0.02118819,-0.07214100,0.05680659,0.,0.00843311,-0.04
 051558,0.,0.07713084,0.05596915,-0.25571446,0.,-0.02135743,-0.03641111
 ,0.,-0.04499961,0.29908078,0.,0.,-0.06048943,0.,0.,0.02123625,0.,0.,0.
 02118141,-0.20353649,0.08686250,0.,-0.08597225,-0.04076371,0.,-0.00914
 339,0.00979134,0.,1.32356617,0.05317435,-0.11215259,0.,-0.02721392,0.0
 2703984,0.,0.02998205,-0.00650866,0.,-0.27102509,0.16563467,0.,0.,-0.0
 6568387,0.,0.,0.01805581,0.,0.,0.01901728,0.,0.,0.05247709,-0.00646060
 ,-0.00312820,0.,0.00212287,0.00503636,0.,-0.00409390,0.00057497,0.,-1.
 03087342,0.21575163,0.,1.43513766,0.00211746,0.00711902,0.,0.00053594,
 -0.00171321,0.,-0.00031774,-0.00039153,0.,0.21789695,-0.07671639,0.,-0
 .30617106,0.11474129,0.,0.,0.00241349,0.,0.,0.00070004,0.,0.,-0.000063
 23,0.,0.,-0.03166058,0.,0.,0.05645035,0.00006568,0.00188522,0.,0.00071
 666,-0.00041870,0.,-0.00018566,0.00002158,0.,0.00595937,-0.00066902,0.
 ,-0.39583260,0.08593844,0.,0.38927654,0.00086261,0.00696935,0.,0.00167
 631,-0.00112939,0.,-0.00095571,-0.00005502,0.,-0.00276199,0.00270313,0
 .,0.08793630,-0.04303919,0.,-0.08675752,0.03455113,0.,0.,0.00546357,0.
 ,0.,-0.00105434,0.,0.,-0.00088227,0.,0.,0.00779428,0.,0.,-0.02784007,0
 .,0.,0.01651882\\0.00007875,0.00014083,0.,-0.00007108,-0.00015093,0.,-
 0.00001811,0.00008075,0.,-0.00020868,-0.00003828,0.,0.00020201,-0.0000
 2359,0.,0.00001710,-0.00000878,0.\\\@


 OUR LITTLE SYSTEMS HAVE THEIR DAY,    
   THEY HAVE THEIR DAY AND CEASE TO BE.
   THEY ARE BUT BROKEN LIGHTS OF THEE, 
 AND THOU, OH LORD, ART MORE THAN THEY.
          -------------------          
 LET KNOWLEDGE GROW FROM MORE TO MORE, 
   BUT MORE OF REVERENCE IN US DWELL.  
   THAT MIND AND SOUL, ACCORDING WELL, 
 MAY MAKE ONE MUSIC AS BEFORE.....     
          -------------------          
                    LORD TENNYSON      
 Job cpu time:       0 days  0 hours  4 minutes 47.0 seconds.
 Elapsed time:       0 days  0 hours  0 minutes 24.0 seconds.
 File lengths (MBytes):  RWF=     17 Int=      0 D2E=      0 Chk=      3 Scr=      1
 Normal termination of Gaussian 16 at Fri Jun 17 17:26:02 2022.
