 Entering Gaussian System, Link 0=g16
 AtFile(1): pcseg2.gbs
            -H     0
            S   4   1.00
                  0.754732D+02           0.427821D-02
                  0.113575D+02           0.328672D-01
                  0.260081D+01           0.159578D+00
                  0.735503D+00           0.500000D+00
            S   1   1.00
                  0.231761D+00           1.0000000
            S   1   1.00
                  0.741675D-01           1.0000000
            P   1   1.00
                  0.160000D+01           1.0000000
            P   1   1.00
                  0.450000D+00           1.0000000
            D   1   1.00
                  0.125000D+01           1.0000000
            ****
            -C     0
            S   7   1.00
                  0.731999D+04           0.695369D-03
                  0.109818D+04           0.537138D-02
                  0.250014D+03           0.274734D-01
                  0.707586D+02           0.105078D+00
                  0.228595D+02           0.291262D+00
                  0.803936D+01           0.500000D+00
                  0.289309D+01           0.362224D+00
            S   2   1.00
                  0.521640D+01          -0.957844D-01
                  0.556124D+00           0.500000D+00
            S   1   1.00
                  0.228813D+00           1.0000000
            S   1   1.00
                  0.936338D-01           1.0000000
            P   4   1.00
                  0.339855D+02           0.818395D-02
                  0.772957D+01           0.586921D-01
                  0.224954D+01           0.222514D+00
                  0.767681D+00           0.500000D+00
            P   1   1.00
                  0.263283D+00           1.0000000
            P   1   1.00
                  0.848744D-01           1.0000000
            D   1   1.00
                  0.140000D+01           1.0000000
            D   1   1.00
                  0.450000D+00           1.0000000
            F   1   1.00
                  0.950000D+00           1.0000000
            ****
            -O     0
            S   7   1.00
                  0.135887D+05           0.665492D-03
                  0.203847D+04           0.514222D-02
                  0.464041D+03           0.263472D-01
                  0.131339D+03           0.101500D+00
                  0.425340D+02           0.285877D+00
                  0.150429D+02           0.500000D+00
                  0.546616D+01           0.368211D+00
            S   2   1.00
                  0.100915D+02          -0.100084D+00
                  0.110429D+01           0.500000D+00
            S   1   1.00
                  0.448082D+00           1.0000000
            S   1   1.00
                  0.175325D+00           1.0000000
            P   4   1.00
                  0.608220D+02           0.908253D-02
                  0.140332D+02           0.645878D-01
                  0.418244D+01           0.241502D+00
                  0.142490D+01           0.500000D+00
            P   1   1.00
                  0.478741D+00           1.0000000
            P   1   1.00
                  0.146257D+00           1.0000000
            D   1   1.00
                  0.220000D+01           1.0000000
            D   1   1.00
                  0.650000D+00           1.0000000
            F   1   1.00
                  0.110000D+01           1.0000000
            ****
            -N     0
            S   7   1.00
                  0.101643D+05           0.682757D-03
                  0.152481D+04           0.527488D-02
                  0.347119D+03           0.270037D-01
                  0.982389D+02           0.103673D+00
                  0.317799D+02           0.289575D+00
                  0.112240D+02           0.500000D+00
                  0.406611D+01           0.364621D+00
            S   2   1.00
                  0.747898D+01          -0.975681D-01
                  0.805040D+00           0.500000D+00
            S   1   1.00
                  0.324626D+00           1.0000000
            S   1   1.00
                  0.128132D+00           1.0000000
            P   4   1.00
                  0.482704D+02           0.829547D-02
                  0.110815D+02           0.596223D-01
                  0.326643D+01           0.227889D+00
                  0.111680D+01           0.500000D+00
            P   1   1.00
                  0.382049D+00           1.0000000
            P   1   1.00
                  0.121222D+00           1.0000000
            D   1   1.00
                  0.180000D+01           1.0000000
            D   1   1.00
                  0.550000D+00           1.0000000
            F   1   1.00
                  0.102000D+01           1.0000000
            ****
            -F     0
            S   7   1.00
                  0.174507D+05           0.655972D-03
                  0.261768D+04           0.506944D-02
                  0.595857D+03           0.259899D-01
                  0.168651D+03           0.100353D+00
                  0.546654D+02           0.284095D+00
                  0.193717D+02           0.500000D+00
                  0.706202D+01           0.370721D+00
            S   2   1.00
                  0.131197D+02          -0.101997D+00
                  0.145046D+01           0.500000D+00
            S   1   1.00
                  0.588255D+00           1.0000000
            S   1   1.00
                  0.227960D+00           1.0000000
            P   4   1.00
                  0.779407D+02           0.931135D-02
                  0.180425D+02           0.663964D-01
                  0.542342D+01           0.246386D+00
                  0.184876D+01           0.500000D+00
            P   1   1.00
                  0.617455D+00           1.0000000
            P   1   1.00
                  0.185496D+00           1.0000000
            D   1   1.00
                  0.280000D+01           1.0000000
            D   1   1.00
                  0.800000D+00           1.0000000
            F   1   1.00
                  0.120000D+01           1.0000000
            ****
            -Cl     0
            S   8   1.00
                  0.154272D+06           0.222473D-03
                  0.231232D+05           0.172590D-02
                  0.526257D+04           0.899286D-02
                  0.148995D+04           0.367724D-01
                  0.485417D+03           0.121446D+00
                  0.174634D+03           0.304148D+00
                  0.672393D+02           0.500000D+00
                  0.265780D+02           0.360252D+00
            S   3   1.00
                  0.131826D+03          -0.531330D-01
                  0.400703D+02          -0.233346D+00
                  0.789448D+01           0.500000D+00
            S   2   1.00
                  0.427711D+01           0.500000D+00
                  0.196233D+01           0.370517D+00
            S   1   1.00
                  0.520793D+00           1.0000000
            S   1   1.00
                  0.181633D+00           1.0000000
            P   7   1.00
                  0.124440D+04           0.988206D-03
                  0.295109D+03           0.829674D-02
                  0.947224D+02           0.430906D-01
                  0.352588D+02           0.148443D+00
                  0.144211D+02           0.344744D+00
                  0.610371D+01           0.500000D+00
                  0.258886D+01           0.348278D+00
            P   2   1.00
                  0.109447D+02          -0.196768D-01
                  0.104413D+01           0.500000D+00
            P   1   1.00
                  0.376184D+00           1.0000000
            P   1   1.00
                  0.120613D+00           1.0000000
            D   1   1.00
                  0.231000D+01           1.0000000
            D   1   1.00
                  0.520000D+00           1.0000000
            F   1   1.00
                  0.720000D+00           1.0000000
            ****
            -S     0
            S   8   1.00
                  0.134700D+06           0.226231D-03
                  0.201904D+05           0.175488D-02
                  0.459528D+04           0.914190D-02
                  0.130109D+04           0.373551D-01
                  0.423902D+03           0.123121D+00
                  0.152485D+03           0.306801D+00
                  0.586925D+02           0.500000D+00
                  0.231461D+02           0.354358D+00
            S   3   1.00
                  0.116327D+03          -0.491772D-01
                  0.352841D+02          -0.215962D+00
                  0.677831D+01           0.500000D+00
            S   2   1.00
                  0.360404D+01           0.500000D+00
                  0.164871D+01           0.366278D+00
            S   1   1.00
                  0.421821D+00           1.0000000
            S   1   1.00
                  0.147554D+00           1.0000000
            P   7   1.00
                  0.104863D+04           0.105273D-02
                  0.248717D+03           0.879338D-02
                  0.797887D+02           0.453358D-01
                  0.296023D+02           0.154476D+00
                  0.120627D+02           0.352366D+00
                  0.507628D+01           0.500000D+00
                  0.213375D+01           0.346429D+00
            P   2   1.00
                  0.928958D+01          -0.185932D-01
                  0.837819D+00           0.500000D+00
            P   1   1.00
                  0.301495D+00           1.0000000
            P   1   1.00
                  0.974740D-01           1.0000000
            D   1   1.00
                  0.210000D+01           1.0000000
            D   1   1.00
                  0.480000D+00           1.0000000
            F   1   1.00
                  0.660000D+00           1.0000000
            ****
            -Br     0
            S    10   1.00
                  0.233625D+07           0.532336D-04
                  0.349961D+06           0.413715D-03
                  0.796444D+05           0.217123D-02
                  0.225555D+05           0.910109D-02
                  0.735546D+04           0.323789D-01
                  0.265352D+04           0.988755D-01
                  0.103517D+04           0.248138D+00
                  0.422205D+03           0.474328D+00
                  0.180035D+03           0.500000D+00
                  0.793308D+02           0.187769D+00
            S    4   1.00
                  0.620834D+03          -0.226511D-01
                  0.190829D+03          -0.109497D+00
                  0.312505D+02           0.500000D+00
                  0.135270D+02           0.492812D+00
            S    2   1.00
                  0.216097D+02          -0.165418D+00
                  0.372566D+01           0.500000D+00
            S    1   1.00
                  0.169770D+01           1.0000000
            S    1   1.00
                  0.489332D+00           1.0000000
            S    1   1.00
                  0.175712D+00           1.0000000
            P    8   1.00
                  0.960829D+04           0.478974D-03
                  0.227618D+04           0.417853D-02
                  0.736723D+03           0.229315D-01
                  0.281579D+03           0.892653D-01
                  0.118395D+03           0.255288D+00
                  0.527481D+02           0.479074D+00
                  0.245098D+02           0.500000D+00
                  0.112009D+02           0.200944D+00
            P    4   1.00
                  0.587849D+02          -0.189674D-01
                  0.918962D+01           0.264104D+00
                  0.413895D+01           0.500000D+00
                  0.184225D+01           0.319316D+00
            P    1   1.00
                  0.713862D+00           1.0000000
            P    1   1.00
                  0.274232D+00           1.0000000
            P    1   1.00
                  0.944411D-01           1.0000000
            D    7   1.00
                  0.398470D+03           0.204066D-02
                  0.118967D+03           0.175171D-01
                  0.450197D+02           0.829708D-01
                  0.190320D+02           0.236284D+00
                  0.855686D+01           0.428468D+00
                  0.382950D+01           0.500000D+00
                  0.166291D+01           0.349360D+00
            D    1   1.00
                  0.672953D+00           1.0000000
            D    1   1.00
                  0.252000D+00           1.0000000
            F    1   1.00
                  0.530000D+00           1.0000000
            ****
            -Si     0
            S    8   1.00
                  0.996133D+05           0.235546D-03
                  0.149311D+05           0.182707D-02
                  0.339820D+04           0.951425D-02
                  0.962140D+03           0.388172D-01
                  0.313430D+03           0.127328D+00
                  0.112683D+03           0.313522D+00
                  0.433372D+02           0.500000D+00
                  0.170029D+02           0.340347D+00
            S    3   1.00
                  0.884208D+02          -0.404451D-01
                  0.266756D+02          -0.178059D+00
                  0.479640D+01           0.500000D+00
            S    2   1.00
                  0.239385D+01           0.500000D+00
                  0.108333D+01           0.338016D+00
            S    1   1.00
                  0.252420D+00           1.0000000
            S    1   1.00
                  0.891210D-01           1.0000000
            P    7   1.00
                  0.709901D+03           0.123028D-02
                  0.168426D+03           0.101366D-01
                  0.539946D+02           0.511840D-01
                  0.198646D+02           0.169967D+00
                  0.801369D+01           0.370717D+00
                  0.331870D+01           0.500000D+00
                  0.136112D+01           0.344128D+00
            P    2   1.00
                  0.622158D+01          -0.166609D-01
                  0.503049D+00           0.500000D+00
            P    1   1.00
                  0.179848D+00           1.0000000
            P    1   1.00
                  0.591912D-01           1.0000000
            D    1   1.00
                  0.168000D+01           1.0000000
            D    1   1.00
                  0.380000D+00           1.0000000
            F    1   1.00
                  0.540000D+00           1.0000000
            ****
            -P     0
            S    8   1.00
                  0.116416D+06           0.230715D-03
                  0.174500D+05           0.178960D-02
                  0.397149D+04           0.932116D-02
                  0.112447D+04           0.380591D-01
                  0.366347D+03           0.125148D+00
                  0.131757D+03           0.310022D+00
                  0.506988D+02           0.500000D+00
                  0.199436D+02           0.347528D+00
            S    3   1.00
                  0.101878D+03          -0.446755D-01
                  0.308249D+02          -0.196376D+00
                  0.573688D+01           0.500000D+00
            S    2   1.00
                  0.296868D+01           0.500000D+00
                  0.135315D+01           0.355098D+00
            S    1   1.00
                  0.332196D+00           1.0000000
            S    1   1.00
                  0.116229D+00           1.0000000
            P    7   1.00
                  0.873928D+03           0.112375D-02
                  0.207298D+03           0.933330D-02
                  0.664628D+02           0.477213D-01
                  0.245665D+02           0.160733D+00
                  0.996820D+01           0.359760D+00
                  0.416536D+01           0.500000D+00
                  0.173022D+01           0.346593D+00
            P    2   1.00
                  0.772530D+01          -0.175718D-01
                  0.657252D+00           0.500000D+00
            P    1   1.00
                  0.239903D+00           1.0000000
            P    1   1.00
                  0.800988D-01           1.0000000
            D    1   1.00
                  0.189000D+01           1.0000000
            D    1   1.00
                  0.430000D+00           1.0000000
            F    1   1.00
                  0.600000D+00           1.0000000
            ****
            
 Initial command:
 /usr/local/apps/g16_b01_avx/g16/l1.exe "/wrk/irikura/Gau-407371.inp" -scrdir="/wrk/irikura/"
 Entering Link 1 = /usr/local/apps/g16_b01_avx/g16/l1.exe PID=    407373.
  
 Copyright (c) 1988-2017, Gaussian, Inc.  All Rights Reserved.
  
 This is part of the Gaussian(R) 16 program.  It is based on
 the Gaussian(R) 09 system (copyright 2009, Gaussian, Inc.),
 the Gaussian(R) 03 system (copyright 2003, Gaussian, Inc.),
 the Gaussian(R) 98 system (copyright 1998, Gaussian, Inc.),
 the Gaussian(R) 94 system (copyright 1995, Gaussian, Inc.),
 the Gaussian 92(TM) system (copyright 1992, Gaussian, Inc.),
 the Gaussian 90(TM) system (copyright 1990, Gaussian, Inc.),
 the Gaussian 88(TM) system (copyright 1988, Gaussian, Inc.),
 the Gaussian 86(TM) system (copyright 1986, Carnegie Mellon
 University), and the Gaussian 82(TM) system (copyright 1983,
 Carnegie Mellon University). Gaussian is a federally registered
 trademark of Gaussian, Inc.
  
 This software contains proprietary and confidential information,
 including trade secrets, belonging to Gaussian, Inc.
  
 This software is provided under written license and may be
 used, copied, transmitted, or stored only in accord with that
 written license.
  
 The following legend is applicable only to US Government
 contracts under FAR:
  
                    RESTRICTED RIGHTS LEGEND
  
 Use, reproduction and disclosure by the US Government is
 subject to restrictions as set forth in subparagraphs (a)
 and (c) of the Commercial Computer Software - Restricted
 Rights clause in FAR 52.227-19.
  
 Gaussian, Inc.
 340 Quinnipiac St., Bldg. 40, Wallingford CT 06492
  
  
 ---------------------------------------------------------------
 Warning -- This program may not be used in any manner that
 competes with the business of Gaussian, Inc. or will provide
 assistance to any competitor of Gaussian, Inc.  The licensee
 of this program is prohibited from giving any competitor of
 Gaussian, Inc. access to this program.  By using this program,
 the user acknowledges that Gaussian, Inc. is engaged in the
 business of creating and licensing software in the field of
 computational chemistry and represents and warrants to the
 licensee that it is not a competitor of Gaussian, Inc. and that
 it will not use this program in any manner prohibited above.
 ---------------------------------------------------------------
  

 Cite this work as:
 Gaussian 16, Revision B.01,
 M. J. Frisch, G. W. Trucks, H. B. Schlegel, G. E. Scuseria, 
 M. A. Robb, J. R. Cheeseman, G. Scalmani, V. Barone, 
 G. A. Petersson, H. Nakatsuji, X. Li, M. Caricato, A. V. Marenich, 
 J. Bloino, B. G. Janesko, R. Gomperts, B. Mennucci, H. P. Hratchian, 
 J. V. Ortiz, A. F. Izmaylov, J. L. Sonnenberg, D. Williams-Young, 
 F. Ding, F. Lipparini, F. Egidi, J. Goings, B. Peng, A. Petrone, 
 T. Henderson, D. Ranasinghe, V. G. Zakrzewski, J. Gao, N. Rega, 
 G. Zheng, W. Liang, M. Hada, M. Ehara, K. Toyota, R. Fukuda, 
 J. Hasegawa, M. Ishida, T. Nakajima, Y. Honda, O. Kitao, H. Nakai, 
 T. Vreven, K. Throssell, J. A. Montgomery, Jr., J. E. Peralta, 
 F. Ogliaro, M. J. Bearpark, J. J. Heyd, E. N. Brothers, K. N. Kudin, 
 V. N. Staroverov, T. A. Keith, R. Kobayashi, J. Normand, 
 K. Raghavachari, A. P. Rendell, J. C. Burant, S. S. Iyengar, 
 J. Tomasi, M. Cossi, J. M. Millam, M. Klene, C. Adamo, R. Cammi, 
 J. W. Ochterski, R. L. Martin, K. Morokuma, O. Farkas, 
 J. B. Foresman, and D. J. Fox, Gaussian, Inc., Wallingford CT, 2016.
 
 ******************************************
 Gaussian 16:  ES64L-G16RevB.01 20-Dec-2017
                29-Sep-2023 
 ******************************************
 %chk=hcoch2oh.chk
 %mem=500mw
 %nprocs=4
 Will use up to    4 processors via shared memory.
 ---------------------------------------
 # b3lyp/gen opt freq CPHF(Grid=OneStep)
 ---------------------------------------
 1/18=20,19=15,26=3,38=1/1,3;
 2/9=110,12=2,17=6,18=5,40=1/2;
 3/5=7,11=2,25=1,30=1,71=1,74=-5/1,2,3;
 4//1;
 5/5=2,38=5/2;
 6/7=2,8=2,9=2,10=2,28=1/1;
 7//1,2,3,16;
 1/18=20,19=15,26=3/3(2);
 2/9=110/2;
 99//99;
 2/9=110/2;
 3/5=7,6=1,11=2,25=1,30=1,71=1,74=-5,82=7/1,2,3;
 4/5=5,16=3,69=1/1;
 5/5=2,38=5/2;
 7//1,2,3,16;
 1/18=20,19=15,26=3/3(-5);
 2/9=110/2;
 6/7=2,8=2,9=2,10=2,19=2,28=1/1;
 99/9=1/99;
 ----------------------------------
 hydroxyacetaldehyde, B3LYP/pcseg-2
 ----------------------------------
 Symbolic Z-matrix:
 Charge =  0 Multiplicity = 1
 C                     0.        0.92801   0. 
 C                     0.92512  -0.25729   0. 
 O                    -1.34894   0.55815   0. 
 O                     0.51529  -1.39105   0. 
 H                    -1.37417  -0.40929   0. 
 H                     0.24259   1.5409    0.8792 
 H                     0.24259   1.5409   -0.8792 
 H                     2.00748  -0.03367   0. 
 

 GradGradGradGradGradGradGradGradGradGradGradGradGradGradGradGradGradGrad
 Berny optimization.
 Initialization pass.
                           ----------------------------
                           !    Initial Parameters    !
                           ! (Angstroms and Degrees)  !
 --------------------------                            --------------------------
 ! Name  Definition              Value          Derivative Info.                !
 --------------------------------------------------------------------------------
 ! R1    R(1,2)                  1.5036         estimate D2E/DX2                !
 ! R2    R(1,3)                  1.3987         estimate D2E/DX2                !
 ! R3    R(1,6)                  1.0989         estimate D2E/DX2                !
 ! R4    R(1,7)                  1.0989         estimate D2E/DX2                !
 ! R5    R(2,4)                  1.2056         estimate D2E/DX2                !
 ! R6    R(2,8)                  1.1052         estimate D2E/DX2                !
 ! R7    R(3,5)                  0.9678         estimate D2E/DX2                !
 ! A1    A(2,1,3)              112.6388         estimate D2E/DX2                !
 ! A2    A(2,1,6)              107.6893         estimate D2E/DX2                !
 ! A3    A(2,1,7)              107.6893         estimate D2E/DX2                !
 ! A4    A(3,1,6)              111.1245         estimate D2E/DX2                !
 ! A5    A(3,1,7)              111.1245         estimate D2E/DX2                !
 ! A6    A(6,1,7)              106.2806         estimate D2E/DX2                !
 ! A7    A(1,2,4)              122.1542         estimate D2E/DX2                !
 ! A8    A(1,2,8)              116.2986         estimate D2E/DX2                !
 ! A9    A(4,2,8)              121.5472         estimate D2E/DX2                !
 ! A10   A(1,3,5)              106.8267         estimate D2E/DX2                !
 ! D1    D(3,1,2,4)              0.0            estimate D2E/DX2                !
 ! D2    D(3,1,2,8)            180.0            estimate D2E/DX2                !
 ! D3    D(6,1,2,4)            122.8795         estimate D2E/DX2                !
 ! D4    D(6,1,2,8)            -57.1205         estimate D2E/DX2                !
 ! D5    D(7,1,2,4)           -122.8795         estimate D2E/DX2                !
 ! D6    D(7,1,2,8)             57.1205         estimate D2E/DX2                !
 ! D7    D(2,1,3,5)              0.0            estimate D2E/DX2                !
 ! D8    D(6,1,3,5)           -120.9354         estimate D2E/DX2                !
 ! D9    D(7,1,3,5)            120.9354         estimate D2E/DX2                !
 --------------------------------------------------------------------------------
 Trust Radius=3.00D-01 FncErr=1.00D-07 GrdErr=1.00D-06 EigMax=2.50D+02 EigMin=1.00D-04
 Number of steps in this run=     36 maximum allowed number of steps=    100.
 GradGradGradGradGradGradGradGradGradGradGradGradGradGradGradGradGradGrad

                          Input orientation:                          
 ---------------------------------------------------------------------
 Center     Atomic      Atomic             Coordinates (Angstroms)
 Number     Number       Type             X           Y           Z
 ---------------------------------------------------------------------
      1          6           0        0.000000    0.928013    0.000000
      2          6           0        0.925120   -0.257292    0.000000
      3          8           0       -1.348939    0.558151    0.000000
      4          8           0        0.515287   -1.391047    0.000000
      5          1           0       -1.374167   -0.409292    0.000000
      6          1           0        0.242590    1.540903    0.879198
      7          1           0        0.242590    1.540903   -0.879198
      8          1           0        2.007485   -0.033674    0.000000
 ---------------------------------------------------------------------
                    Distance matrix (angstroms):
                    1          2          3          4          5
     1  C    0.000000
     2  C    1.503594   0.000000
     3  O    1.398726   2.415842   0.000000
     4  O    2.375618   1.205555   2.697167   0.000000
     5  H    1.917477   2.304306   0.967772   2.129291   0.000000
     6  H    1.098851   2.114791   2.066822   3.073058   2.681446
     7  H    1.098851   2.114791   2.066822   3.073058   2.681446
     8  H    2.225947   1.105224   3.408202   2.017205   3.402449
                    6          7          8
     6  H    0.000000
     7  H    1.758396   0.000000
     8  H    2.523318   2.523318   0.000000
 Stoichiometry    C2H4O2
 Framework group  CS[SG(C2H2O2),X(H2)]
 Deg. of freedom    12
 Full point group                 CS      NOp   2
 Largest Abelian subgroup         CS      NOp   2
 Largest concise Abelian subgroup CS      NOp   2
                         Standard orientation:                         
 ---------------------------------------------------------------------
 Center     Atomic      Atomic             Coordinates (Angstroms)
 Number     Number       Type             X           Y           Z
 ---------------------------------------------------------------------
      1          6           0        0.000000    0.928013    0.000000
      2          6           0        0.925120   -0.257292    0.000000
      3          8           0       -1.348939    0.558151    0.000000
      4          8           0        0.515287   -1.391047    0.000000
      5          1           0       -1.374167   -0.409292    0.000000
      6          1           0        0.242590    1.540903    0.879198
      7          1           0        0.242590    1.540903   -0.879198
      8          1           0        2.007485   -0.033674    0.000000
 ---------------------------------------------------------------------
 Rotational constants (GHZ):          18.6018519           6.5178954           4.9747314
 General basis read from cards:  (5D, 7F)
 There are   133 symmetry adapted cartesian basis functions of A'  symmetry.
 There are    67 symmetry adapted cartesian basis functions of A"  symmetry.
 There are   114 symmetry adapted basis functions of A'  symmetry.
 There are    62 symmetry adapted basis functions of A"  symmetry.
   176 basis functions,   276 primitive gaussians,   200 cartesian basis functions
    16 alpha electrons       16 beta electrons
       nuclear repulsion energy       119.6023251754 Hartrees.
 NAtoms=    8 NActive=    8 NUniq=    7 SFac= 1.31D+00 NAtFMM=   60 NAOKFM=F Big=F
 Integral buffers will be    131072 words long.
 Raffenetti 2 integral format.
 Two-electron integral symmetry is turned on.
 One-electron integrals computed using PRISM.
 NBasis=   176 RedAO= T EigKep=  5.81D-04  NBF=   114    62
 NBsUse=   176 1.00D-06 EigRej= -1.00D+00 NBFU=   114    62
 ExpMin= 7.42D-02 ExpMax= 1.36D+04 ExpMxC= 4.64D+02 IAcc=3 IRadAn=         5 AccDes= 0.00D+00
 Harris functional with IExCor=  402 and IRadAn=       5 diagonalized for initial guess.
 HarFok:  IExCor=  402 AccDes= 0.00D+00 IRadAn=         5 IDoV= 1 UseB2=F ITyADJ=14
 ICtDFT=  3500011 ScaDFX=  1.000000  1.000000  1.000000  1.000000
 FoFCou: FMM=F IPFlag=           0 FMFlag=      100000 FMFlg1=           0
         NFxFlg=           0 DoJE=T BraDBF=F KetDBF=T FulRan=T
         wScrn=  0.000000 ICntrl=       500 IOpCl=  0 I1Cent=   200000004 NGrid=           0
         NMat0=    1 NMatS0=      1 NMatT0=    0 NMatD0=    1 NMtDS0=    0 NMtDT0=    0
 Petite list used in FoFCou.
 Initial guess orbital symmetries:
       Occupied  (A') (A') (A') (A') (A') (A') (A') (A') (A') (A')
                 (A") (A') (A") (A') (A") (A')
       Virtual   (A") (A') (A') (A') (A") (A') (A') (A') (A") (A')
                 (A') (A") (A') (A') (A") (A') (A') (A') (A') (A')
                 (A") (A') (A") (A') (A') (A') (A") (A') (A') (A")
                 (A') (A") (A') (A') (A") (A') (A") (A') (A") (A')
                 (A") (A') (A') (A") (A') (A") (A') (A') (A") (A')
                 (A') (A') (A') (A") (A') (A") (A') (A') (A") (A')
                 (A") (A') (A') (A") (A') (A') (A') (A') (A") (A')
                 (A") (A') (A") (A') (A') (A') (A") (A') (A') (A")
                 (A') (A") (A") (A') (A') (A") (A') (A') (A") (A')
                 (A") (A") (A') (A") (A') (A") (A') (A") (A') (A')
                 (A") (A') (A') (A") (A') (A") (A') (A') (A") (A')
                 (A") (A') (A") (A') (A") (A') (A') (A") (A') (A")
                 (A") (A') (A') (A') (A') (A") (A') (A') (A") (A')
                 (A') (A') (A") (A') (A") (A") (A') (A') (A') (A')
                 (A") (A") (A") (A') (A") (A') (A") (A') (A") (A')
                 (A') (A") (A') (A') (A") (A') (A') (A') (A') (A')
 The electronic state of the initial guess is 1-A'.
 Keep R1 ints in memory in symmetry-blocked form, NReq=182527667.
 Requested convergence on RMS density matrix=1.00D-08 within 128 cycles.
 Requested convergence on MAX density matrix=1.00D-06.
 Requested convergence on             energy=1.00D-06.
 No special actions if energy rises.
 Integral accuracy reduced to 1.0D-05 until final iterations.
 Initial convergence to 1.0D-05 achieved.  Increase integral accuracy.
 SCF Done:  E(RB3LYP) =  -229.146816444     A.U. after   13 cycles
            NFock= 13  Conv=0.40D-08     -V/T= 2.0032

 **********************************************************************

            Population analysis using the SCF Density.

 **********************************************************************

 Orbital symmetries:
       Occupied  (A') (A') (A') (A') (A') (A') (A') (A') (A') (A')
                 (A") (A') (A") (A') (A") (A')
       Virtual   (A") (A') (A') (A') (A") (A') (A') (A') (A") (A')
                 (A") (A') (A') (A') (A') (A") (A') (A') (A') (A')
                 (A") (A") (A') (A') (A') (A') (A") (A') (A") (A')
                 (A') (A") (A') (A') (A") (A') (A") (A') (A") (A')
                 (A") (A') (A') (A") (A') (A") (A') (A') (A") (A')
                 (A') (A') (A') (A") (A') (A') (A") (A') (A") (A')
                 (A") (A') (A') (A") (A') (A') (A') (A') (A") (A')
                 (A") (A') (A") (A') (A') (A') (A") (A') (A") (A')
                 (A') (A") (A") (A') (A') (A") (A') (A') (A") (A')
                 (A") (A") (A') (A") (A') (A") (A') (A") (A') (A')
                 (A") (A') (A') (A") (A') (A") (A') (A') (A") (A')
                 (A") (A') (A") (A') (A") (A') (A') (A") (A') (A")
                 (A") (A') (A') (A') (A') (A") (A') (A') (A") (A')
                 (A') (A') (A") (A") (A') (A") (A') (A') (A') (A')
                 (A") (A") (A") (A') (A") (A') (A") (A') (A') (A")
                 (A') (A") (A') (A') (A") (A') (A') (A') (A') (A')
 The electronic state is 1-A'.
 Alpha  occ. eigenvalues --  -19.15184 -19.13623 -10.28526 -10.24626  -1.08657
 Alpha  occ. eigenvalues --   -1.03740  -0.75230  -0.60763  -0.53934  -0.50017
 Alpha  occ. eigenvalues --   -0.49269  -0.44600  -0.40354  -0.37662  -0.29925
 Alpha  occ. eigenvalues --   -0.29262
 Alpha virt. eigenvalues --   -0.05445   0.01048   0.02990   0.05206   0.05703
 Alpha virt. eigenvalues --    0.10428   0.13147   0.15000   0.18303   0.21657
 Alpha virt. eigenvalues --    0.22876   0.26433   0.29836   0.30197   0.30293
 Alpha virt. eigenvalues --    0.31373   0.33296   0.34517   0.36983   0.39000
 Alpha virt. eigenvalues --    0.41780   0.45650   0.47483   0.49433   0.51921
 Alpha virt. eigenvalues --    0.56562   0.64606   0.68670   0.77482   0.78002
 Alpha virt. eigenvalues --    0.81207   0.84407   0.89614   0.94413   0.95190
 Alpha virt. eigenvalues --    0.98650   1.02278   1.02727   1.09420   1.12161
 Alpha virt. eigenvalues --    1.12235   1.15596   1.18970   1.25726   1.26385
 Alpha virt. eigenvalues --    1.29295   1.30920   1.37430   1.40523   1.45920
 Alpha virt. eigenvalues --    1.52445   1.58368   1.64654   1.65182   1.67292
 Alpha virt. eigenvalues --    1.80532   1.80628   1.88612   1.88667   1.90855
 Alpha virt. eigenvalues --    1.91570   1.92862   1.95549   2.04763   2.09268
 Alpha virt. eigenvalues --    2.13768   2.21273   2.27866   2.35041   2.38932
 Alpha virt. eigenvalues --    2.49374   2.49505   2.60576   2.67541   2.79998
 Alpha virt. eigenvalues --    2.95913   3.05448   3.07473   3.17553   3.18900
 Alpha virt. eigenvalues --    3.25610   3.31239   3.38946   3.44854   3.49256
 Alpha virt. eigenvalues --    3.50755   3.53655   3.61395   3.62851   3.66778
 Alpha virt. eigenvalues --    3.71707   3.73687   3.78285   3.85193   3.86772
 Alpha virt. eigenvalues --    3.91064   3.93494   3.96964   3.98978   4.02773
 Alpha virt. eigenvalues --    4.04574   4.11307   4.14605   4.15882   4.18230
 Alpha virt. eigenvalues --    4.24007   4.26439   4.28978   4.31079   4.33940
 Alpha virt. eigenvalues --    4.37965   4.44014   4.47698   4.48330   4.49361
 Alpha virt. eigenvalues --    4.55477   4.59596   4.62154   4.62512   4.65922
 Alpha virt. eigenvalues --    4.71466   4.75224   4.80079   4.83642   4.91549
 Alpha virt. eigenvalues --    4.93950   5.00348   5.06908   5.07227   5.08678
 Alpha virt. eigenvalues --    5.28551   5.31074   5.33510   5.46148   5.46220
 Alpha virt. eigenvalues --    5.56661   5.59625   5.67134   5.73444   5.76664
 Alpha virt. eigenvalues --    5.78741   5.83084   5.93476   5.98930   6.08563
 Alpha virt. eigenvalues --    6.11718   6.13154   6.18808   6.26782   6.31377
 Alpha virt. eigenvalues --    6.36243   6.43066   6.46172   6.56836   6.64102
 Alpha virt. eigenvalues --    6.78467   6.85872   7.10336   7.17947   7.52725
          Condensed to atoms (all electrons):
               1          2          3          4          5          6
     1  C    4.575662   0.299137   0.304939  -0.090449  -0.046247   0.395148
     2  C    0.299137   4.586291  -0.039082   0.549342  -0.017984  -0.022522
     3  O    0.304939  -0.039082   7.922073  -0.010670   0.345507  -0.055551
     4  O   -0.090449   0.549342  -0.010670   7.973880   0.035667   0.000017
     5  H   -0.046247  -0.017984   0.345507   0.035667   0.467766   0.005208
     6  H    0.395148  -0.022522  -0.055551   0.000017   0.005208   0.718320
     7  H    0.395148  -0.022522  -0.055551   0.000017   0.005208  -0.071223
     8  H   -0.122467   0.412344   0.006091  -0.064801   0.005600   0.004059
               7          8
     1  C    0.395148  -0.122467
     2  C   -0.022522   0.412344
     3  O   -0.055551   0.006091
     4  O    0.000017  -0.064801
     5  H    0.005208   0.005600
     6  H   -0.071223   0.004059
     7  H    0.718320   0.004059
     8  H    0.004059   0.740844
 Mulliken charges:
               1
     1  C    0.289130
     2  C    0.254996
     3  O   -0.417755
     4  O   -0.393004
     5  H    0.199274
     6  H    0.026545
     7  H    0.026545
     8  H    0.014270
 Sum of Mulliken charges =  -0.00000
 Mulliken charges with hydrogens summed into heavy atoms:
               1
     1  C    0.342219
     2  C    0.269266
     3  O   -0.218481
     4  O   -0.393004
 Electronic spatial extent (au):  <R**2>=            262.0241
 Charge=             -0.0000 electrons
 Dipole moment (field-independent basis, Debye):
    X=              1.9574    Y=              1.5212    Z=             -0.0000  Tot=              2.4790
 Quadrupole moment (field-independent basis, Debye-Ang):
   XX=            -24.5143   YY=            -26.6692   ZZ=            -23.3702
   XY=              4.0353   XZ=             -0.0000   YZ=              0.0000
 Traceless Quadrupole moment (field-independent basis, Debye-Ang):
   XX=              0.3369   YY=             -1.8180   ZZ=              1.4810
   XY=              4.0353   XZ=             -0.0000   YZ=              0.0000
 Octapole moment (field-independent basis, Debye-Ang**2):
  XXX=              3.6781  YYY=              5.4319  ZZZ=              0.0000  XYY=             -2.6640
  XXY=             -5.5592  XXZ=             -0.0000  XZZ=             -0.0249  YZZ=             -0.1819
  YYZ=              0.0000  XYZ=              0.0000
 Hexadecapole moment (field-independent basis, Debye-Ang**3):
 XXXX=           -142.9312 YYYY=           -155.4718 ZZZZ=            -28.5374 XXXY=             33.8716
 XXXZ=             -0.0000 YYYX=             30.4873 YYYZ=              0.0000 ZZZX=              0.0000
 ZZZY=              0.0000 XXYY=            -52.2499 XXZZ=            -30.2853 YYZZ=            -27.5808
 XXYZ=             -0.0000 YYXZ=             -0.0000 ZZXY=              9.0882
 N-N= 1.196023251754D+02 E-N=-7.774326074808D+02  KE= 2.284062048636D+02
 Symmetry A'   KE= 2.179396642369D+02
 Symmetry A"   KE= 1.046654062673D+01
 Calling FoFJK, ICntrl=      2127 FMM=F ISym2X=1 I1Cent= 0 IOpClX= 0 NMat=1 NMatS=1 NMatT=0.
 ***** Axes restored to original set *****
 -------------------------------------------------------------------
 Center     Atomic                   Forces (Hartrees/Bohr)
 Number     Number              X              Y              Z
 -------------------------------------------------------------------
      1        6           0.000071408   -0.000195220    0.000000000
      2        6          -0.000275615   -0.000079635    0.000000000
      3        8          -0.000041238    0.000020714    0.000000000
      4        8           0.000046179    0.000008233   -0.000000000
      5        1           0.000043355    0.000052911   -0.000000000
      6        1           0.000000634    0.000053287    0.000066127
      7        1           0.000000634    0.000053287   -0.000066127
      8        1           0.000154643    0.000086424    0.000000000
 -------------------------------------------------------------------
 Cartesian Forces:  Max     0.000275615 RMS     0.000086683

 GradGradGradGradGradGradGradGradGradGradGradGradGradGradGradGradGradGrad
 Berny optimization.
 FormGI is forming the generalized inverse of G from B-inverse, IUseBI=4.
 Internal  Forces:  Max     0.000168916 RMS     0.000056539
 Search for a local minimum.
 Step number   1 out of a maximum of   36
 All quantities printed in internal units (Hartrees-Bohrs-Radians)
 Mixed Optimization -- En-DIIS/RFO-DIIS
 Second derivative matrix not updated -- first step.
 ITU=  0
     Eigenvalues ---    0.00718   0.00718   0.01709   0.06058   0.07619
     Eigenvalues ---    0.11722   0.14183   0.16000   0.16000   0.22000
     Eigenvalues ---    0.22058   0.32003   0.33111   0.33810   0.33810
     Eigenvalues ---    0.45832   0.53835   1.02081
 RFO step:  Lambda=-3.24550902D-07 EMin= 7.18405617D-03
 Linear search not attempted -- first point.
 Iteration  1 RMS(Cart)=  0.00031492 RMS(Int)=  0.00000008
 Iteration  2 RMS(Cart)=  0.00000009 RMS(Int)=  0.00000001
 ClnCor:  largest displacement from symmetrization is 2.34D-13 for atom     4.
 Variable       Old X    -DE/DX   Delta X   Delta X   Delta X     New X
                                 (Linear)    (Quad)   (Total)
    R1        2.84138  -0.00006   0.00000  -0.00018  -0.00018   2.84120
    R2        2.64321  -0.00002   0.00000  -0.00005  -0.00005   2.64316
    R3        2.07653   0.00008   0.00000   0.00024   0.00024   2.07677
    R4        2.07653   0.00008   0.00000   0.00024   0.00024   2.07677
    R5        2.27817  -0.00002   0.00000  -0.00002  -0.00002   2.27815
    R6        2.08857   0.00017   0.00000   0.00051   0.00051   2.08908
    R7        1.82882  -0.00005   0.00000  -0.00010  -0.00010   1.82872
    A1        1.96592   0.00006   0.00000   0.00030   0.00030   1.96622
    A2        1.87953  -0.00000   0.00000   0.00007   0.00007   1.87961
    A3        1.87953  -0.00000   0.00000   0.00007   0.00007   1.87961
    A4        1.93949  -0.00003   0.00000  -0.00020  -0.00020   1.93929
    A5        1.93949  -0.00003   0.00000  -0.00020  -0.00020   1.93929
    A6        1.85495   0.00000   0.00000  -0.00006  -0.00006   1.85489
    A7        2.13199   0.00010   0.00000   0.00045   0.00045   2.13244
    A8        2.02979  -0.00011   0.00000  -0.00057  -0.00057   2.02922
    A9        2.12140   0.00001   0.00000   0.00012   0.00012   2.12152
   A10        1.86448  -0.00008   0.00000  -0.00048  -0.00048   1.86400
    D1        0.00000  -0.00000   0.00000   0.00000   0.00000   0.00000
    D2        3.14159  -0.00000   0.00000   0.00000   0.00000   3.14159
    D3        2.14465  -0.00000   0.00000  -0.00000  -0.00000   2.14465
    D4       -0.99694  -0.00000   0.00000  -0.00000  -0.00000  -0.99694
    D5       -2.14465   0.00000   0.00000   0.00000   0.00000  -2.14465
    D6        0.99694   0.00000   0.00000   0.00000   0.00000   0.99694
    D7        0.00000  -0.00000   0.00000  -0.00000   0.00000   0.00000
    D8       -2.11072  -0.00002   0.00000  -0.00016  -0.00016  -2.11088
    D9        2.11072   0.00002   0.00000   0.00016   0.00016   2.11088
         Item               Value     Threshold  Converged?
 Maximum Force            0.000169     0.000450     YES
 RMS     Force            0.000057     0.000300     YES
 Maximum Displacement     0.000753     0.001800     YES
 RMS     Displacement     0.000315     0.001200     YES
 Predicted change in Energy=-1.622739D-07
 Optimization completed.
    -- Stationary point found.
                           ----------------------------
                           !   Optimized Parameters   !
                           ! (Angstroms and Degrees)  !
 --------------------------                            --------------------------
 ! Name  Definition              Value          Derivative Info.                !
 --------------------------------------------------------------------------------
 ! R1    R(1,2)                  1.5036         -DE/DX =   -0.0001              !
 ! R2    R(1,3)                  1.3987         -DE/DX =    0.0                 !
 ! R3    R(1,6)                  1.0989         -DE/DX =    0.0001              !
 ! R4    R(1,7)                  1.0989         -DE/DX =    0.0001              !
 ! R5    R(2,4)                  1.2056         -DE/DX =    0.0                 !
 ! R6    R(2,8)                  1.1052         -DE/DX =    0.0002              !
 ! R7    R(3,5)                  0.9678         -DE/DX =   -0.0001              !
 ! A1    A(2,1,3)              112.6388         -DE/DX =    0.0001              !
 ! A2    A(2,1,6)              107.6893         -DE/DX =    0.0                 !
 ! A3    A(2,1,7)              107.6893         -DE/DX =    0.0                 !
 ! A4    A(3,1,6)              111.1245         -DE/DX =    0.0                 !
 ! A5    A(3,1,7)              111.1245         -DE/DX =    0.0                 !
 ! A6    A(6,1,7)              106.2806         -DE/DX =    0.0                 !
 ! A7    A(1,2,4)              122.1542         -DE/DX =    0.0001              !
 ! A8    A(1,2,8)              116.2986         -DE/DX =   -0.0001              !
 ! A9    A(4,2,8)              121.5472         -DE/DX =    0.0                 !
 ! A10   A(1,3,5)              106.8267         -DE/DX =   -0.0001              !
 ! D1    D(3,1,2,4)              0.0            -DE/DX =    0.0                 !
 ! D2    D(3,1,2,8)            180.0            -DE/DX =    0.0                 !
 ! D3    D(6,1,2,4)            122.8795         -DE/DX =    0.0                 !
 ! D4    D(6,1,2,8)            -57.1205         -DE/DX =    0.0                 !
 ! D5    D(7,1,2,4)           -122.8795         -DE/DX =    0.0                 !
 ! D6    D(7,1,2,8)             57.1205         -DE/DX =    0.0                 !
 ! D7    D(2,1,3,5)              0.0            -DE/DX =    0.0                 !
 ! D8    D(6,1,3,5)           -120.9354         -DE/DX =    0.0                 !
 ! D9    D(7,1,3,5)            120.9354         -DE/DX =    0.0                 !
 --------------------------------------------------------------------------------
 GradGradGradGradGradGradGradGradGradGradGradGradGradGradGradGradGradGrad

                          Input orientation:                          
 ---------------------------------------------------------------------
 Center     Atomic      Atomic             Coordinates (Angstroms)
 Number     Number       Type             X           Y           Z
 ---------------------------------------------------------------------
      1          6           0        0.000000    0.928013    0.000000
      2          6           0        0.925120   -0.257292    0.000000
      3          8           0       -1.348939    0.558151    0.000000
      4          8           0        0.515287   -1.391047    0.000000
      5          1           0       -1.374167   -0.409292    0.000000
      6          1           0        0.242590    1.540903    0.879198
      7          1           0        0.242590    1.540903   -0.879198
      8          1           0        2.007485   -0.033674    0.000000
 ---------------------------------------------------------------------
                    Distance matrix (angstroms):
                    1          2          3          4          5
     1  C    0.000000
     2  C    1.503594   0.000000
     3  O    1.398726   2.415842   0.000000
     4  O    2.375618   1.205555   2.697167   0.000000
     5  H    1.917477   2.304306   0.967772   2.129291   0.000000
     6  H    1.098851   2.114791   2.066822   3.073058   2.681446
     7  H    1.098851   2.114791   2.066822   3.073058   2.681446
     8  H    2.225947   1.105224   3.408202   2.017205   3.402449
                    6          7          8
     6  H    0.000000
     7  H    1.758396   0.000000
     8  H    2.523318   2.523318   0.000000
 Stoichiometry    C2H4O2
 Framework group  CS[SG(C2H2O2),X(H2)]
 Deg. of freedom    12
 Full point group                 CS      NOp   2
 Largest Abelian subgroup         CS      NOp   2
 Largest concise Abelian subgroup CS      NOp   2
                         Standard orientation:                         
 ---------------------------------------------------------------------
 Center     Atomic      Atomic             Coordinates (Angstroms)
 Number     Number       Type             X           Y           Z
 ---------------------------------------------------------------------
      1          6           0        0.000000    0.928013    0.000000
      2          6           0        0.925120   -0.257292    0.000000
      3          8           0       -1.348939    0.558151    0.000000
      4          8           0        0.515287   -1.391047    0.000000
      5          1           0       -1.374167   -0.409292    0.000000
      6          1           0        0.242590    1.540903    0.879198
      7          1           0        0.242590    1.540903   -0.879198
      8          1           0        2.007485   -0.033674    0.000000
 ---------------------------------------------------------------------
 Rotational constants (GHZ):          18.6018519           6.5178954           4.9747314
 1\1\GINC-GAMBA\FOpt\RB3LYP\Gen\C2H4O2\IRIKURA\29-Sep-2023\0\\# b3lyp/g
 en opt freq CPHF(Grid=OneStep)\\hydroxyacetaldehyde, B3LYP/pcseg-2\\0,
 1\C,0.,0.928013,0.\C,0.92512,-0.257292,0.\O,-1.348939,0.558151,0.\O,0.
 515287,-1.391047,0.\H,-1.374167,-0.409292,0.\H,0.24259,1.540903,0.8791
 98\H,0.24259,1.540903,-0.879198\H,2.007485,-0.033674,0.\\Version=ES64L
 -G16RevB.01\State=1-A'\HF=-229.1468164\RMSD=4.004e-09\RMSF=8.668e-05\D
 ipole=0.7701061,0.5984732,0.\Quadrupole=0.2504972,-1.3516202,1.1011229
 ,3.000174,0.,0.\PG=CS [SG(C2H2O2),X(H2)]\\@


 YOU CANNOT THROW TO THE GROUND THE LETTERS OF
 THE GREEK ALPHABET AND PICK UP THE ILIAD.
        - RUFUS CHOATE, 1799-1859
 Job cpu time:       0 days  0 hours  1 minutes 10.6 seconds.
 Elapsed time:       0 days  0 hours  0 minutes 18.2 seconds.
 File lengths (MBytes):  RWF=     19 Int=      0 D2E=      0 Chk=      3 Scr=      1
 Normal termination of Gaussian 16 at Fri Sep 29 18:47:36 2023.
 Link1:  Proceeding to internal job step number  2.
 ------------------------------------------------------------------
 #N Geom=AllCheck Guess=TCheck SCRF=Check GenChk RB3LYP/ChkBas Freq
 ------------------------------------------------------------------
 1/10=4,29=7,30=1,38=1,40=1/1,3;
 2/12=2,40=1/2;
 3/5=7,6=2,11=2,14=-4,25=1,30=1,67=1,70=2,71=2,74=-5,82=7,116=1,140=1/1,2,3;
 4/5=101/1;
 5/5=2,38=6,98=1/2;
 8/6=4,10=90,11=11/1;
 11/6=1,8=1,9=11,15=111,16=1/1,2,10;
 10/6=1,60=-420/2;
 6/7=2,8=2,9=2,10=2,28=1/1;
 7/8=1,10=1,25=1/1,2,3,16;
 1/10=4,30=1/3;
 99//99;
 Structure from the checkpoint file:  "hcoch2oh.chk"
 ----------------------------------
 hydroxyacetaldehyde, B3LYP/pcseg-2
 ----------------------------------
 Charge =  0 Multiplicity = 1
 Redundant internal coordinates found in file.  (old form).
 C,0,0.,0.928013,0.
 C,0,0.92512,-0.257292,0.
 O,0,-1.348939,0.558151,0.
 O,0,0.515287,-1.391047,0.
 H,0,-1.374167,-0.409292,0.
 H,0,0.24259,1.540903,0.879198
 H,0,0.24259,1.540903,-0.879198
 H,0,2.007485,-0.033674,0.
 Recover connectivity data from disk.

 GradGradGradGradGradGradGradGradGradGradGradGradGradGradGradGradGradGrad
 Berny optimization.
 Initialization pass.
                           ----------------------------
                           !    Initial Parameters    !
                           ! (Angstroms and Degrees)  !
 --------------------------                            --------------------------
 ! Name  Definition              Value          Derivative Info.                !
 --------------------------------------------------------------------------------
 ! R1    R(1,2)                  1.5036         calculate D2E/DX2 analytically  !
 ! R2    R(1,3)                  1.3987         calculate D2E/DX2 analytically  !
 ! R3    R(1,6)                  1.0989         calculate D2E/DX2 analytically  !
 ! R4    R(1,7)                  1.0989         calculate D2E/DX2 analytically  !
 ! R5    R(2,4)                  1.2056         calculate D2E/DX2 analytically  !
 ! R6    R(2,8)                  1.1052         calculate D2E/DX2 analytically  !
 ! R7    R(3,5)                  0.9678         calculate D2E/DX2 analytically  !
 ! A1    A(2,1,3)              112.6388         calculate D2E/DX2 analytically  !
 ! A2    A(2,1,6)              107.6893         calculate D2E/DX2 analytically  !
 ! A3    A(2,1,7)              107.6893         calculate D2E/DX2 analytically  !
 ! A4    A(3,1,6)              111.1245         calculate D2E/DX2 analytically  !
 ! A5    A(3,1,7)              111.1245         calculate D2E/DX2 analytically  !
 ! A6    A(6,1,7)              106.2806         calculate D2E/DX2 analytically  !
 ! A7    A(1,2,4)              122.1542         calculate D2E/DX2 analytically  !
 ! A8    A(1,2,8)              116.2986         calculate D2E/DX2 analytically  !
 ! A9    A(4,2,8)              121.5472         calculate D2E/DX2 analytically  !
 ! A10   A(1,3,5)              106.8267         calculate D2E/DX2 analytically  !
 ! D1    D(3,1,2,4)              0.0            calculate D2E/DX2 analytically  !
 ! D2    D(3,1,2,8)            180.0            calculate D2E/DX2 analytically  !
 ! D3    D(6,1,2,4)            122.8795         calculate D2E/DX2 analytically  !
 ! D4    D(6,1,2,8)            -57.1205         calculate D2E/DX2 analytically  !
 ! D5    D(7,1,2,4)           -122.8795         calculate D2E/DX2 analytically  !
 ! D6    D(7,1,2,8)             57.1205         calculate D2E/DX2 analytically  !
 ! D7    D(2,1,3,5)              0.0            calculate D2E/DX2 analytically  !
 ! D8    D(6,1,3,5)           -120.9354         calculate D2E/DX2 analytically  !
 ! D9    D(7,1,3,5)            120.9354         calculate D2E/DX2 analytically  !
 --------------------------------------------------------------------------------
 Trust Radius=3.00D-01 FncErr=1.00D-07 GrdErr=1.00D-07 EigMax=2.50D+02 EigMin=1.00D-04
 Number of steps in this run=      2 maximum allowed number of steps=      2.
 GradGradGradGradGradGradGradGradGradGradGradGradGradGradGradGradGradGrad

                          Input orientation:                          
 ---------------------------------------------------------------------
 Center     Atomic      Atomic             Coordinates (Angstroms)
 Number     Number       Type             X           Y           Z
 ---------------------------------------------------------------------
      1          6           0        0.000000    0.928013    0.000000
      2          6           0        0.925120   -0.257292    0.000000
      3          8           0       -1.348939    0.558151    0.000000
      4          8           0        0.515287   -1.391047    0.000000
      5          1           0       -1.374167   -0.409292    0.000000
      6          1           0        0.242590    1.540903    0.879198
      7          1           0        0.242590    1.540903   -0.879198
      8          1           0        2.007485   -0.033674    0.000000
 ---------------------------------------------------------------------
                    Distance matrix (angstroms):
                    1          2          3          4          5
     1  C    0.000000
     2  C    1.503594   0.000000
     3  O    1.398726   2.415842   0.000000
     4  O    2.375618   1.205555   2.697167   0.000000
     5  H    1.917477   2.304306   0.967772   2.129291   0.000000
     6  H    1.098851   2.114791   2.066822   3.073058   2.681446
     7  H    1.098851   2.114791   2.066822   3.073058   2.681446
     8  H    2.225947   1.105224   3.408202   2.017205   3.402449
                    6          7          8
     6  H    0.000000
     7  H    1.758396   0.000000
     8  H    2.523318   2.523318   0.000000
 Stoichiometry    C2H4O2
 Framework group  CS[SG(C2H2O2),X(H2)]
 Deg. of freedom    12
 Full point group                 CS      NOp   2
 Largest Abelian subgroup         CS      NOp   2
 Largest concise Abelian subgroup CS      NOp   2
                         Standard orientation:                         
 ---------------------------------------------------------------------
 Center     Atomic      Atomic             Coordinates (Angstroms)
 Number     Number       Type             X           Y           Z
 ---------------------------------------------------------------------
      1          6           0        0.000000    0.928013    0.000000
      2          6           0        0.925120   -0.257292    0.000000
      3          8           0       -1.348939    0.558151    0.000000
      4          8           0        0.515287   -1.391047    0.000000
      5          1           0       -1.374167   -0.409292    0.000000
      6          1           0        0.242590    1.540903    0.879198
      7          1           0        0.242590    1.540903   -0.879198
      8          1           0        2.007485   -0.033674    0.000000
 ---------------------------------------------------------------------
 Rotational constants (GHZ):          18.6018519           6.5178954           4.9747314
 Basis read from chk: "hcoch2oh.chk" (5D, 7F)
 There are   133 symmetry adapted cartesian basis functions of A'  symmetry.
 There are    67 symmetry adapted cartesian basis functions of A"  symmetry.
 There are   114 symmetry adapted basis functions of A'  symmetry.
 There are    62 symmetry adapted basis functions of A"  symmetry.
   176 basis functions,   276 primitive gaussians,   200 cartesian basis functions
    16 alpha electrons       16 beta electrons
       nuclear repulsion energy       119.6023251754 Hartrees.
 NAtoms=    8 NActive=    8 NUniq=    7 SFac= 1.31D+00 NAtFMM=   60 NAOKFM=F Big=F
 Integral buffers will be    131072 words long.
 Raffenetti 2 integral format.
 Two-electron integral symmetry is turned on.
 One-electron integrals computed using PRISM.
 NBasis=   176 RedAO= T EigKep=  5.81D-04  NBF=   114    62
 NBsUse=   176 1.00D-06 EigRej= -1.00D+00 NBFU=   114    62
 Initial guess from the checkpoint file:  "hcoch2oh.chk"
 B after Tr=    -0.000000   -0.000000   -0.000000
         Rot=    1.000000    0.000000    0.000000    0.000000 Ang=   0.00 deg.
 Initial guess orbital symmetries:
       Occupied  (A') (A') (A') (A') (A') (A') (A') (A') (A') (A')
                 (A") (A') (A") (A') (A") (A')
       Virtual   (A") (A') (A') (A') (A") (A') (A') (A') (A") (A')
                 (A") (A') (A') (A') (A') (A") (A') (A') (A') (A')
                 (A") (A") (A') (A') (A') (A') (A") (A') (A") (A')
                 (A') (A") (A') (A') (A") (A') (A") (A') (A") (A')
                 (A") (A') (A') (A") (A') (A") (A') (A') (A") (A')
                 (A') (A') (A') (A") (A') (A') (A") (A') (A") (A')
                 (A") (A') (A') (A") (A') (A') (A') (A') (A") (A')
                 (A") (A') (A") (A') (A') (A') (A") (A') (A") (A')
                 (A') (A") (A") (A') (A') (A") (A') (A') (A") (A')
                 (A") (A") (A') (A") (A') (A") (A') (A") (A') (A')
                 (A") (A') (A') (A") (A') (A") (A') (A') (A") (A')
                 (A") (A') (A") (A') (A") (A') (A') (A") (A') (A")
                 (A") (A') (A') (A') (A') (A") (A') (A') (A") (A')
                 (A') (A') (A") (A") (A') (A") (A') (A') (A') (A')
                 (A") (A") (A") (A') (A") (A') (A") (A') (A') (A")
                 (A') (A") (A') (A') (A") (A') (A') (A') (A') (A')
 Keep R1 ints in memory in symmetry-blocked form, NReq=182527667.
 Requested convergence on RMS density matrix=1.00D-08 within 128 cycles.
 Requested convergence on MAX density matrix=1.00D-06.
 Requested convergence on             energy=1.00D-06.
 No special actions if energy rises.
 SCF Done:  E(RB3LYP) =  -229.146816444     A.U. after    1 cycles
            NFock=  1  Conv=0.29D-08     -V/T= 2.0032
 DoSCS=F DFT=T ScalE2(SS,OS)=  1.000000  1.000000
 Range of M.O.s used for correlation:     1   176
 NBasis=   176 NAE=    16 NBE=    16 NFC=     0 NFV=     0
 NROrb=    176 NOA=    16 NOB=    16 NVA=   160 NVB=   160

 **** Warning!!: The largest alpha MO coefficient is  0.10345773D+02

 Symmetrizing basis deriv contribution to polar:
 IMax=3 JMax=2 DiffMx= 0.00D+00
 G2DrvN: will do     9 centers at a time, making    1 passes.
 Calling FoFCou, ICntrl=  3107 FMM=F I1Cent=   0 AccDes= 0.00D+00.
 End of G2Drv F.D. properties file   721 does not exist.
 End of G2Drv F.D. properties file   722 does not exist.
 End of G2Drv F.D. properties file   788 does not exist.
          IDoAtm=11111111
          Differentiating once with respect to electric field.
                with respect to dipole field.
          Differentiating once with respect to nuclear coordinates.
 Keep R1 ints in memory in symmetry-blocked form, NReq=182532668.
          There are    24 degrees of freedom in the 1st order CPHF.  IDoFFX=4 NUNeed=    24.
     24 vectors produced by pass  0 Test12= 1.07D-14 4.17D-09 XBig12= 3.05D+01 3.27D+00.
 AX will form    24 AO Fock derivatives at one time.
     24 vectors produced by pass  1 Test12= 1.07D-14 4.17D-09 XBig12= 8.58D+00 6.72D-01.
     24 vectors produced by pass  2 Test12= 1.07D-14 4.17D-09 XBig12= 9.07D-02 6.43D-02.
     24 vectors produced by pass  3 Test12= 1.07D-14 4.17D-09 XBig12= 7.50D-04 5.43D-03.
     24 vectors produced by pass  4 Test12= 1.07D-14 4.17D-09 XBig12= 2.53D-06 3.46D-04.
     20 vectors produced by pass  5 Test12= 1.07D-14 4.17D-09 XBig12= 3.76D-09 1.04D-05.
      4 vectors produced by pass  6 Test12= 1.07D-14 4.17D-09 XBig12= 3.03D-12 2.42D-07.
      2 vectors produced by pass  7 Test12= 1.07D-14 4.17D-09 XBig12= 2.53D-15 6.64D-09.
 InvSVY:  IOpt=1 It=  1 EMax= 2.66D-15
 Solved reduced A of dimension   146 with    24 vectors.
 Isotropic polarizability for W=    0.000000       32.59 Bohr**3.
 End of Minotr F.D. properties file   721 does not exist.
 End of Minotr F.D. properties file   722 does not exist.
 End of Minotr F.D. properties file   788 does not exist.

 **********************************************************************

            Population analysis using the SCF Density.

 **********************************************************************

 Orbital symmetries:
       Occupied  (A') (A') (A') (A') (A') (A') (A') (A') (A') (A')
                 (A") (A') (A") (A') (A") (A')
       Virtual   (A") (A') (A') (A') (A") (A') (A') (A') (A") (A')
                 (A") (A') (A') (A') (A') (A") (A') (A') (A') (A')
                 (A") (A") (A') (A') (A') (A') (A") (A') (A") (A')
                 (A') (A") (A') (A') (A") (A') (A") (A') (A") (A')
                 (A") (A') (A') (A") (A') (A") (A') (A') (A") (A')
                 (A') (A') (A') (A") (A') (A') (A") (A') (A") (A')
                 (A") (A') (A') (A") (A') (A') (A') (A') (A") (A')
                 (A") (A') (A") (A') (A') (A') (A") (A') (A") (A')
                 (A') (A") (A") (A') (A') (A") (A') (A') (A") (A')
                 (A") (A") (A') (A") (A') (A") (A') (A") (A') (A')
                 (A") (A') (A') (A") (A') (A") (A') (A') (A") (A')
                 (A") (A') (A") (A') (A") (A') (A') (A") (A') (A")
                 (A") (A') (A') (A') (A') (A") (A') (A') (A") (A')
                 (A') (A') (A") (A") (A') (A") (A') (A') (A') (A')
                 (A") (A") (A") (A') (A") (A') (A") (A') (A') (A")
                 (A') (A") (A') (A') (A") (A') (A') (A') (A') (A')
 The electronic state is 1-A'.
 Alpha  occ. eigenvalues --  -19.15185 -19.13623 -10.28526 -10.24626  -1.08657
 Alpha  occ. eigenvalues --   -1.03740  -0.75230  -0.60763  -0.53934  -0.50017
 Alpha  occ. eigenvalues --   -0.49269  -0.44600  -0.40354  -0.37662  -0.29925
 Alpha  occ. eigenvalues --   -0.29262
 Alpha virt. eigenvalues --   -0.05445   0.01048   0.02990   0.05206   0.05703
 Alpha virt. eigenvalues --    0.10428   0.13147   0.15000   0.18303   0.21657
 Alpha virt. eigenvalues --    0.22876   0.26433   0.29836   0.30197   0.30293
 Alpha virt. eigenvalues --    0.31373   0.33296   0.34517   0.36983   0.39000
 Alpha virt. eigenvalues --    0.41780   0.45650   0.47483   0.49433   0.51921
 Alpha virt. eigenvalues --    0.56562   0.64606   0.68670   0.77482   0.78002
 Alpha virt. eigenvalues --    0.81207   0.84407   0.89614   0.94413   0.95190
 Alpha virt. eigenvalues --    0.98650   1.02278   1.02727   1.09420   1.12161
 Alpha virt. eigenvalues --    1.12235   1.15596   1.18970   1.25726   1.26385
 Alpha virt. eigenvalues --    1.29295   1.30920   1.37430   1.40523   1.45920
 Alpha virt. eigenvalues --    1.52445   1.58368   1.64654   1.65182   1.67292
 Alpha virt. eigenvalues --    1.80532   1.80628   1.88612   1.88667   1.90855
 Alpha virt. eigenvalues --    1.91570   1.92862   1.95549   2.04763   2.09268
 Alpha virt. eigenvalues --    2.13768   2.21273   2.27866   2.35041   2.38932
 Alpha virt. eigenvalues --    2.49374   2.49505   2.60576   2.67541   2.79998
 Alpha virt. eigenvalues --    2.95913   3.05448   3.07473   3.17553   3.18900
 Alpha virt. eigenvalues --    3.25610   3.31239   3.38946   3.44854   3.49256
 Alpha virt. eigenvalues --    3.50755   3.53655   3.61395   3.62851   3.66778
 Alpha virt. eigenvalues --    3.71707   3.73687   3.78285   3.85193   3.86772
 Alpha virt. eigenvalues --    3.91064   3.93494   3.96964   3.98978   4.02773
 Alpha virt. eigenvalues --    4.04574   4.11307   4.14605   4.15882   4.18230
 Alpha virt. eigenvalues --    4.24007   4.26439   4.28978   4.31079   4.33940
 Alpha virt. eigenvalues --    4.37965   4.44014   4.47698   4.48330   4.49361
 Alpha virt. eigenvalues --    4.55477   4.59596   4.62154   4.62512   4.65922
 Alpha virt. eigenvalues --    4.71466   4.75224   4.80079   4.83642   4.91549
 Alpha virt. eigenvalues --    4.93950   5.00348   5.06908   5.07227   5.08678
 Alpha virt. eigenvalues --    5.28551   5.31074   5.33510   5.46148   5.46220
 Alpha virt. eigenvalues --    5.56661   5.59625   5.67134   5.73444   5.76664
 Alpha virt. eigenvalues --    5.78741   5.83084   5.93476   5.98930   6.08563
 Alpha virt. eigenvalues --    6.11718   6.13154   6.18808   6.26782   6.31377
 Alpha virt. eigenvalues --    6.36243   6.43066   6.46172   6.56836   6.64102
 Alpha virt. eigenvalues --    6.78467   6.85872   7.10336   7.17947   7.52725
          Condensed to atoms (all electrons):
               1          2          3          4          5          6
     1  C    4.575662   0.299137   0.304939  -0.090449  -0.046247   0.395148
     2  C    0.299137   4.586291  -0.039082   0.549342  -0.017984  -0.022522
     3  O    0.304939  -0.039082   7.922072  -0.010670   0.345508  -0.055551
     4  O   -0.090449   0.549342  -0.010670   7.973881   0.035667   0.000017
     5  H   -0.046247  -0.017984   0.345508   0.035667   0.467766   0.005208
     6  H    0.395148  -0.022522  -0.055551   0.000017   0.005208   0.718319
     7  H    0.395148  -0.022522  -0.055551   0.000017   0.005208  -0.071223
     8  H   -0.122467   0.412344   0.006091  -0.064801   0.005600   0.004059
               7          8
     1  C    0.395148  -0.122467
     2  C   -0.022522   0.412344
     3  O   -0.055551   0.006091
     4  O    0.000017  -0.064801
     5  H    0.005208   0.005600
     6  H   -0.071223   0.004059
     7  H    0.718319   0.004059
     8  H    0.004059   0.740844
 Mulliken charges:
               1
     1  C    0.289129
     2  C    0.254996
     3  O   -0.417755
     4  O   -0.393004
     5  H    0.199274
     6  H    0.026545
     7  H    0.026545
     8  H    0.014270
 Sum of Mulliken charges =   0.00000
 Mulliken charges with hydrogens summed into heavy atoms:
               1
     1  C    0.342219
     2  C    0.269266
     3  O   -0.218481
     4  O   -0.393004
 APT charges:
               1
     1  C    0.298668
     2  C    0.717663
     3  O   -0.575549
     4  O   -0.653386
     5  H    0.294738
     6  H   -0.013724
     7  H   -0.013724
     8  H   -0.054686
 Sum of APT charges =  -0.00000
 APT charges with hydrogens summed into heavy atoms:
               1
     1  C    0.271221
     2  C    0.662977
     3  O   -0.280812
     4  O   -0.653386
 Electronic spatial extent (au):  <R**2>=            262.0241
 Charge=              0.0000 electrons
 Dipole moment (field-independent basis, Debye):
    X=              1.9574    Y=              1.5212    Z=             -0.0000  Tot=              2.4790
 Quadrupole moment (field-independent basis, Debye-Ang):
   XX=            -24.5143   YY=            -26.6692   ZZ=            -23.3702
   XY=              4.0353   XZ=              0.0000   YZ=              0.0000
 Traceless Quadrupole moment (field-independent basis, Debye-Ang):
   XX=              0.3369   YY=             -1.8180   ZZ=              1.4810
   XY=              4.0353   XZ=              0.0000   YZ=              0.0000
 Octapole moment (field-independent basis, Debye-Ang**2):
  XXX=              3.6781  YYY=              5.4319  ZZZ=             -0.0000  XYY=             -2.6640
  XXY=             -5.5592  XXZ=             -0.0000  XZZ=             -0.0249  YZZ=             -0.1819
  YYZ=             -0.0000  XYZ=              0.0000
 Hexadecapole moment (field-independent basis, Debye-Ang**3):
 XXXX=           -142.9312 YYYY=           -155.4718 ZZZZ=            -28.5374 XXXY=             33.8716
 XXXZ=             -0.0000 YYYX=             30.4873 YYYZ=             -0.0000 ZZZX=             -0.0000
 ZZZY=              0.0000 XXYY=            -52.2499 XXZZ=            -30.2853 YYZZ=            -27.5808
 XXYZ=             -0.0000 YYXZ=             -0.0000 ZZXY=              9.0882
 N-N= 1.196023251754D+02 E-N=-7.774326114461D+02  KE= 2.284062062172D+02
 Symmetry A'   KE= 2.179396652380D+02
 Symmetry A"   KE= 1.046654097920D+01
  Exact polarizability:  35.260   0.984  38.134  -0.000   0.000  24.377
 Approx polarizability:  45.637   4.523  56.987   0.000  -0.000  33.770
 Calling FoFJK, ICntrl=    100127 FMM=F ISym2X=1 I1Cent= 0 IOpClX= 0 NMat=1 NMatS=1 NMatT=0.
 Full mass-weighted force constant matrix:
 Low frequencies ---  -13.3590   -6.2983   -5.1848   -0.0013    0.0003    0.0014
 Low frequencies ---  214.8173  281.7644  400.6489
 Diagonal vibrational polarizability:
       13.3370729       2.6893562      18.3111459
 Harmonic frequencies (cm**-1), IR intensities (KM/Mole), Raman scattering
 activities (A**4/AMU), depolarization ratios for plane and unpolarized
 incident light, reduced masses (AMU), force constants (mDyne/A),
 and normal coordinates:
                      1                      2                      3
                     A"                     A'                     A"
 Frequencies --    214.8171               281.7644               400.6489
 Red. masses --      1.8711                 6.2276                 1.1123
 Frc consts  --      0.0509                 0.2913                 0.1052
 IR Inten    --      4.2622                23.7473                93.8200
  Atom  AN      X      Y      Z        X      Y      Z        X      Y      Z
     1   6    -0.00   0.00  -0.12    -0.08  -0.10  -0.00     0.00   0.00  -0.00
     2   6    -0.00   0.00   0.17    -0.03  -0.09   0.00     0.00   0.00   0.05
     3   8     0.00  -0.00   0.11    -0.22   0.34  -0.00    -0.00  -0.00  -0.04
     4   8     0.00  -0.00  -0.11     0.35  -0.22  -0.00    -0.00   0.00  -0.06
     5   1    -0.00   0.00  -0.35    -0.64   0.36   0.00    -0.00  -0.00   0.96
     6   1    -0.00   0.34  -0.37     0.04  -0.13  -0.01     0.04   0.07  -0.06
     7   1     0.00  -0.34  -0.37     0.04  -0.13   0.01    -0.04  -0.07  -0.06
     8   1    -0.00  -0.00   0.55    -0.09   0.24   0.00     0.00  -0.00   0.21
                      4                      5                      6
                     A"                     A'                     A'
 Frequencies --    719.3938               763.2212               863.3954
 Red. masses --      1.2224                 5.0099                 3.1648
 Frc consts  --      0.3727                 1.7194                 1.3900
 IR Inten    --      0.0287                 9.8979                55.1424
  Atom  AN      X      Y      Z        X      Y      Z        X      Y      Z
     1   6    -0.00   0.00  -0.12    -0.06   0.34   0.00    -0.02   0.26  -0.00
     2   6    -0.00   0.00  -0.05    -0.33  -0.03   0.00     0.26  -0.15   0.00
     3   8     0.00  -0.00   0.04     0.17  -0.04  -0.00    -0.15  -0.01   0.00
     4   8     0.00  -0.00   0.02     0.11  -0.23  -0.00    -0.02  -0.07   0.00
     5   1    -0.00  -0.00   0.01     0.60  -0.06   0.00     0.13  -0.02  -0.00
     6   1     0.15  -0.46   0.19     0.01   0.29   0.02    -0.30   0.31   0.02
     7   1    -0.15   0.46   0.19     0.01   0.29  -0.02    -0.30   0.31  -0.02
     8   1    -0.00  -0.00   0.66    -0.36   0.09  -0.00     0.34  -0.56   0.00
                      7                      8                      9
                     A"                     A'                     A"
 Frequencies --   1105.2873              1128.2057              1251.5862
 Red. masses --      1.8084                 3.1145                 1.1022
 Frc consts  --      1.3016                 2.3357                 1.0173
 IR Inten    --      0.1780                82.4618                 2.2137
  Atom  AN      X      Y      Z        X      Y      Z        X      Y      Z
     1   6    -0.00  -0.00   0.17    -0.28  -0.07  -0.00    -0.00  -0.00   0.03
     2   6     0.00  -0.00  -0.20     0.09  -0.03   0.00     0.00  -0.00   0.08
     3   8     0.00   0.00  -0.03     0.25   0.08   0.00    -0.00   0.00  -0.04
     4   8     0.00   0.00   0.05    -0.02  -0.01  -0.00    -0.00   0.00  -0.01
     5   1    -0.00   0.00  -0.10    -0.37   0.11   0.00     0.00  -0.00  -0.09
     6   1     0.21   0.37  -0.17    -0.57   0.10  -0.02     0.68  -0.08  -0.08
     7   1    -0.21  -0.37  -0.17    -0.57   0.10   0.02    -0.68   0.08  -0.08
     8   1     0.00  -0.00   0.71     0.09  -0.08  -0.00     0.00   0.00  -0.20
                     10                     11                     12
                     A'                     A'                     A'
 Frequencies --   1292.6711              1393.5131              1432.9907
 Red. masses --      1.4508                 1.1976                 1.3701
 Frc consts  --      1.4284                 1.3703                 1.6576
 IR Inten    --     46.0081                25.8446                42.7725
  Atom  AN      X      Y      Z        X      Y      Z        X      Y      Z
     1   6    -0.17  -0.01  -0.00     0.06  -0.02   0.00     0.06  -0.14  -0.00
     2   6     0.08  -0.03  -0.00     0.06  -0.03  -0.00    -0.06   0.04  -0.00
     3   8    -0.01   0.05   0.00    -0.01   0.01   0.00    -0.03   0.06   0.00
     4   8    -0.02   0.00   0.00    -0.06  -0.05   0.00     0.03   0.01  -0.00
     5   1     0.78  -0.01   0.00     0.13   0.00  -0.00     0.67   0.01   0.00
     6   1     0.32  -0.24   0.03    -0.18   0.20  -0.08    -0.34   0.23  -0.16
     7   1     0.32  -0.24  -0.03    -0.18   0.20   0.08    -0.34   0.23   0.16
     8   1     0.05   0.16   0.00    -0.11   0.89   0.00     0.00  -0.36   0.00
                     13                     14                     15
                     A'                     A'                     A'
 Frequencies --   1473.9380              1791.9365              2928.9138
 Red. masses --      1.0747                 9.6171                 1.0840
 Frc consts  --      1.3756                18.1945                 5.4787
 IR Inten    --     19.4972               163.3648                66.9828
  Atom  AN      X      Y      Z        X      Y      Z        X      Y      Z
     1   6    -0.06  -0.04  -0.00     0.00  -0.02   0.00     0.00   0.01   0.00
     2   6     0.01   0.00  -0.00     0.19   0.67   0.00    -0.08  -0.01   0.00
     3   8     0.00  -0.02   0.00    -0.01   0.00  -0.00     0.00  -0.00   0.00
     4   8    -0.00  -0.00   0.00    -0.15  -0.44  -0.00    -0.00  -0.00   0.00
     5   1    -0.15  -0.01   0.00    -0.10  -0.01  -0.00     0.01   0.01  -0.00
     6   1     0.36   0.43  -0.41     0.08  -0.16   0.09    -0.03  -0.07  -0.12
     7   1     0.36   0.43   0.41     0.08  -0.16  -0.09    -0.03  -0.07   0.12
     8   1     0.03  -0.08   0.00     0.34  -0.30  -0.00     0.96   0.18  -0.00
                     16                     17                     18
                     A'                     A"                     A'
 Frequencies --   2979.4100              2991.9036              3712.5210
 Red. masses --      1.0588                 1.1012                 1.0651
 Frc consts  --      5.5375                 5.8078                 8.6495
 IR Inten    --     59.3612                17.6610                64.0344
  Atom  AN      X      Y      Z        X      Y      Z        X      Y      Z
     1   6    -0.02  -0.06  -0.00     0.00   0.00  -0.09    -0.00  -0.00  -0.00
     2   6    -0.02  -0.00   0.00     0.00  -0.00  -0.00     0.00   0.00   0.00
     3   8    -0.00   0.00  -0.00     0.00  -0.00   0.00    -0.00  -0.06  -0.00
     4   8     0.00   0.00   0.00     0.00   0.00  -0.00    -0.00  -0.00  -0.00
     5   1     0.01  -0.02  -0.00     0.00   0.00  -0.01     0.07   1.00   0.00
     6   1     0.13   0.37   0.57     0.14   0.41   0.56     0.01   0.00   0.01
     7   1     0.13   0.37  -0.57    -0.14  -0.41   0.56     0.01   0.00  -0.01
     8   1     0.20   0.03  -0.00    -0.00  -0.00   0.00    -0.01  -0.01  -0.00

 -------------------
 - Thermochemistry -
 -------------------
 Temperature   298.150 Kelvin.  Pressure   1.00000 Atm.
 Atom     1 has atomic number  6 and mass  12.00000
 Atom     2 has atomic number  6 and mass  12.00000
 Atom     3 has atomic number  8 and mass  15.99491
 Atom     4 has atomic number  8 and mass  15.99491
 Atom     5 has atomic number  1 and mass   1.00783
 Atom     6 has atomic number  1 and mass   1.00783
 Atom     7 has atomic number  1 and mass   1.00783
 Atom     8 has atomic number  1 and mass   1.00783
 Molecular mass:    60.02113 amu.
 Principal axes and moments of inertia in atomic units:
                           1         2         3
     Eigenvalues --    97.01944 276.89018 362.78164
           X           -0.69135   0.72252   0.00000
           Y            0.72252   0.69135   0.00000
           Z           -0.00000   0.00000   1.00000
 This molecule is an asymmetric top.
 Rotational symmetry number  1.
 Rotational temperatures (Kelvin)      0.89275     0.31281     0.23875
 Rotational constants (GHZ):          18.60185     6.51790     4.97473
 Zero-point vibrational energy     159857.7 (Joules/Mol)
                                   38.20690 (Kcal/Mol)
 Warning -- explicit consideration of   3 degrees of freedom as
           vibrations may cause significant error
 Vibrational temperatures:    309.07   405.40   576.44  1035.05  1098.11
          (Kelvin)           1242.23  1590.26  1623.24  1800.75  1859.87
                             2004.95  2061.75  2120.67  2578.20  4214.05
                             4286.71  4304.68  5341.49
 
 Zero-point correction=                           0.060887 (Hartree/Particle)
 Thermal correction to Energy=                    0.065359
 Thermal correction to Enthalpy=                  0.066303
 Thermal correction to Gibbs Free Energy=         0.034285
 Sum of electronic and zero-point Energies=           -229.085930
 Sum of electronic and thermal Energies=              -229.081458
 Sum of electronic and thermal Enthalpies=            -229.080513
 Sum of electronic and thermal Free Energies=         -229.112531
 
                     E (Thermal)             CV                S
                      KCal/Mol        Cal/Mol-Kelvin    Cal/Mol-Kelvin
 Total                   41.013             14.183             67.388
 Electronic               0.000              0.000              0.000
 Translational            0.889              2.981             38.196
 Rotational               0.889              2.981             23.792
 Vibrational             39.236              8.221              5.399
 Vibration     1          0.645              1.818              2.002
 Vibration     2          0.681              1.707              1.523
 Vibration     3          0.766              1.469              0.960
                       Q            Log10(Q)             Ln(Q)
 Total Bot       0.169835D-15        -15.769972        -36.311703
 Total V=0       0.172141D+13         12.235884         28.174163
 Vib (Bot)       0.262946D-27        -27.580134        -63.505605
 Vib (Bot)    1  0.922779D+00         -0.034902         -0.080365
 Vib (Bot)    2  0.681712D+00         -0.166399         -0.383148
 Vib (Bot)    3  0.444657D+00         -0.351975         -0.810452
 Vib (V=0)       0.266515D+01          0.425722          0.980261
 Vib (V=0)    1  0.154953D+01          0.190201          0.437954
 Vib (V=0)    2  0.134542D+01          0.128857          0.296705
 Vib (V=0)    3  0.116912D+01          0.067859          0.156250
 Electronic      0.100000D+01          0.000000          0.000000
 Translational   0.182772D+08          7.261910         16.721166
[...]
 There are   215 symmetry adapted cartesian basis functions of A'  symmetry.
 There are   109 symmetry adapted cartesian basis functions of A"  symmetry.
 There are   184 symmetry adapted basis functions of A'  symmetry.
 There are   100 symmetry adapted basis functions of A"  symmetry.
   284 basis functions,   396 primitive gaussians,   324 cartesian basis functions
    16 alpha electrons       16 beta electrons
       nuclear repulsion energy       119.6023251754 Hartrees.
 NAtoms=    8 NActive=    8 NUniq=    7 SFac= 1.31D+00 NAtFMM=   60 NAOKFM=F Big=F
 Integral buffers will be    131072 words long.
 Raffenetti 2 integral format.
 Two-electron integral symmetry is turned on.
 One-electron integrals computed using PRISM.
 NBasis=   284 RedAO= T EigKep=  5.84D-05  NBF=   184   100
 NBsUse=   284 1.00D-06 EigRej= -1.00D+00 NBFU=   184   100
 Initial guess from the checkpoint file:  "hcoch2oh.chk"
 B after Tr=    -0.000000    0.000000    0.000000
         Rot=    1.000000    0.000000   -0.000000   -0.000000 Ang=   0.00 deg.
 Initial guess orbital symmetries:
       Occupied  (A') (A') (A') (A') (A') (A') (A') (A') (A') (A')
                 (A") (A') (A") (A') (A") (A')
       Virtual   (A") (A') (A') (A') (A") (A') (A') (A') (A") (A')
                 (A") (A') (A') (A') (A') (A") (A') (A') (A') (A')
                 (A") (A") (A') (A') (A') (A') (A") (A') (A") (A')
                 (A') (A") (A') (A') (A") (A') (A") (A') (A") (A')
                 (A") (A') (A') (A") (A') (A") (A') (A') (A") (A')
                 (A') (A') (A') (A") (A') (A') (A") (A') (A") (A')
                 (A") (A') (A') (A") (A') (A') (A') (A') (A") (A')
                 (A") (A') (A") (A') (A') (A') (A") (A') (A") (A')
                 (A') (A") (A") (A') (A') (A") (A') (A') (A") (A')
                 (A") (A") (A') (A") (A') (A") (A') (A") (A') (A')
                 (A") (A') (A') (A") (A') (A") (A') (A') (A") (A')
                 (A") (A') (A") (A') (A") (A') (A') (A") (A') (A")
                 (A") (A') (A') (A') (A') (A") (A') (A') (A") (A')
                 (A') (A') (A") (A") (A') (A") (A') (A') (A') (A')
                 (A") (A") (A") (A') (A") (A') (A") (A') (A') (A")
                 (A') (A") (A') (A') (A") (A') (A') (A') (A') (A')
                 (A') (A') (A') (A') (A') (A') (A') (A') (A') (A')
                 (A') (A') (A') (A') (A') (A') (A') (A') (A') (A')
                 (A') (A') (A') (A') (A') (A') (A') (A') (A') (A')
                 (A') (A') (A') (A') (A') (A') (A') (A') (A') (A')
                 (A') (A') (A') (A') (A') (A') (A') (A') (A') (A')
                 (A') (A') (A') (A') (A') (A') (A') (A') (A') (A')
                 (A') (A') (A') (A') (A') (A') (A') (A') (A') (A')
                 (A") (A") (A") (A") (A") (A") (A") (A") (A") (A")
                 (A") (A") (A") (A") (A") (A") (A") (A") (A") (A")
                 (A") (A") (A") (A") (A") (A") (A") (A") (A") (A")
                 (A") (A") (A") (A") (A") (A") (A") (A")
 Requested convergence on RMS density matrix=1.00D-08 within 128 cycles.
 Requested convergence on MAX density matrix=1.00D-06.
 Requested convergence on             energy=1.00D-06.
 No special actions if energy rises.
 SCF Done:  E(ROHF) =  -227.874841355     A.U. after   12 cycles
            NFock= 12  Conv=0.40D-08     -V/T= 2.0011
 <Sx>= 0.0000 <Sy>= 0.0000 <Sz>= 0.0000 <S**2>=-0.0000 S=-0.0000
 <L.S>=  0.00000000000    
 Annihilation of the first spin contaminant:
 S**2 before annihilation    -0.0000,   after    -0.0000

 **********************************************************************

            Population analysis using the SCF Density.

 **********************************************************************

 Orbital symmetries:
       Occupied  (A') (A') (A') (A') (A') (A') (A') (A') (A') (A')
                 (A") (A') (A') (A") (A") (A')
       Virtual   (A') (A') (A") (A') (A") (A') (A') (A") (A') (A')
                 (A") (A') (A') (A') (A") (A") (A') (A') (A') (A')
                 (A') (A') (A') (A") (A') (A") (A') (A") (A') (A')
                 (A') (A") (A') (A") (A') (A") (A') (A') (A') (A')
                 (A') (A") (A") (A') (A") (A') (A') (A') (A') (A")
                 (A') (A') (A") (A') (A') (A') (A") (A") (A') (A")
                 (A') (A') (A') (A') (A") (A') (A") (A') (A") (A')
                 (A') (A") (A') (A") (A') (A") (A") (A') (A') (A')
                 (A') (A") (A") (A') (A") (A') (A") (A') (A") (A')
                 (A') (A') (A') (A") (A") (A') (A') (A') (A') (A")
                 (A') (A") (A') (A") (A") (A') (A') (A") (A") (A')
                 (A') (A") (A') (A") (A') (A') (A') (A') (A") (A')
                 (A") (A') (A") (A') (A") (A') (A") (A') (A') (A")
                 (A') (A") (A') (A') (A') (A") (A') (A") (A") (A')
                 (A') (A') (A") (A') (A") (A') (A") (A') (A") (A')
                 (A') (A') (A') (A') (A') (A") (A") (A') (A') (A")
                 (A") (A') (A') (A") (A') (A") (A') (A') (A') (A")
                 (A') (A') (A") (A') (A') (A") (A') (A') (A") (A')
                 (A") (A") (A') (A') (A') (A") (A") (A') (A') (A")
                 (A') (A") (A') (A') (A') (A") (A') (A') (A") (A')
                 (A") (A') (A') (A') (A') (A") (A') (A") (A') (A')
                 (A") (A') (A") (A") (A') (A") (A") (A') (A') (A')
                 (A") (A') (A") (A') (A") (A') (A') (A") (A') (A')
                 (A') (A') (A') (A") (A') (A') (A") (A") (A') (A')
                 (A') (A') (A") (A") (A') (A") (A") (A') (A') (A')
                 (A') (A') (A") (A') (A") (A') (A') (A') (A') (A')
                 (A") (A") (A') (A') (A') (A') (A') (A')
 The electronic state is 1-A'.
 Alpha  occ. eigenvalues --  -20.57947 -20.56743 -11.35124 -11.30335  -1.42626
 Alpha  occ. eigenvalues --   -1.37205  -1.00677  -0.81737  -0.73330  -0.68562
 Alpha  occ. eigenvalues --   -0.66364  -0.61290  -0.55660  -0.54114  -0.46506
 Alpha  occ. eigenvalues --   -0.44854
 Alpha virt. eigenvalues --    0.04367   0.05302   0.06334   0.06691   0.08706
 Alpha virt. eigenvalues --    0.09386   0.09768   0.12701   0.14416   0.16465
 Alpha virt. eigenvalues --    0.17589   0.19167   0.19799   0.21454   0.22636
 Alpha virt. eigenvalues --    0.23435   0.23788   0.24343   0.25750   0.29759
 Alpha virt. eigenvalues --    0.31513   0.34279   0.37354   0.39899   0.41490
 Alpha virt. eigenvalues --    0.42569   0.46548   0.46551   0.48412   0.50036
 Alpha virt. eigenvalues --    0.51949   0.51954   0.54439   0.56292   0.57406
 Alpha virt. eigenvalues --    0.57615   0.60781   0.64299   0.65261   0.69282
 Alpha virt. eigenvalues --    0.70760   0.70774   0.73737   0.74077   0.75687
 Alpha virt. eigenvalues --    0.76549   0.78218   0.83053   0.85018   0.86528
 Alpha virt. eigenvalues --    0.88528   0.89852   0.93532   0.93562   0.97943
 Alpha virt. eigenvalues --    1.00441   1.00551   1.05769   1.07362   1.11044
 Alpha virt. eigenvalues --    1.12007   1.14925   1.18992   1.25777   1.28587
 Alpha virt. eigenvalues --    1.29741   1.34794   1.37532   1.41134   1.43132
 Alpha virt. eigenvalues --    1.47229   1.49811   1.50217   1.57149   1.57493
 Alpha virt. eigenvalues --    1.58408   1.59421   1.61761   1.62847   1.67025
 Alpha virt. eigenvalues --    1.71887   1.71888   1.75398   1.76795   1.77292
 Alpha virt. eigenvalues --    1.79182   1.80885   1.81699   1.83322   1.84014
 Alpha virt. eigenvalues --    1.86576   1.88556   1.91054   1.92355   1.95038
 Alpha virt. eigenvalues --    1.95696   1.96886   1.97901   2.04746   2.06439
 Alpha virt. eigenvalues --    2.07052   2.10691   2.14475   2.15254   2.17278
 Alpha virt. eigenvalues --    2.18659   2.21309   2.23297   2.25221   2.25510
 Alpha virt. eigenvalues --    2.30231   2.31517   2.35143   2.37700   2.38975
 Alpha virt. eigenvalues --    2.40772   2.43273   2.48518   2.49955   2.52225
 Alpha virt. eigenvalues --    2.53597   2.53838   2.64024   2.67552   2.67929
 Alpha virt. eigenvalues --    2.71373   2.72315   2.77080   2.83844   2.87584
 Alpha virt. eigenvalues --    2.89719   2.89934   2.93050   2.95276   2.99866
 Alpha virt. eigenvalues --    3.00109   3.08393   3.10900   3.12537   3.13251
 Alpha virt. eigenvalues --    3.15787   3.19533   3.27781   3.31493   3.37685
 Alpha virt. eigenvalues --    3.39253   3.43704   3.45321   3.48231   3.50078
 Alpha virt. eigenvalues --    3.55745   3.60734   3.68312   3.74186   3.82434
 Alpha virt. eigenvalues --    3.86595   3.89282   3.93115   3.93670   3.98599
 Alpha virt. eigenvalues --    4.04832   4.05502   4.10546   4.12030   4.15429
 Alpha virt. eigenvalues --    4.15950   4.18032   4.20961   4.29192   4.32941
 Alpha virt. eigenvalues --    4.38085   4.52314   4.56219   4.66781   4.71445
 Alpha virt. eigenvalues --    4.76699   4.82560   4.99193   5.01351   5.03545
 Alpha virt. eigenvalues --    5.05634   5.15838   5.15861   5.28536   5.42018
 Alpha virt. eigenvalues --    5.42877   5.49206   5.55265   5.62906   5.69427
 Alpha virt. eigenvalues --    5.83873   5.85654   5.87137   6.00835   6.06974
 Alpha virt. eigenvalues --    6.07015   6.14222   6.16205   6.23182   6.25087
 Alpha virt. eigenvalues --    6.28702   6.34491   6.58192   6.71111   6.86861
 Alpha virt. eigenvalues --    6.98088   7.01507   7.06820   7.09599   7.13017
 Alpha virt. eigenvalues --    7.14920   7.21842   7.23986   7.37154   7.37230
 Alpha virt. eigenvalues --    7.41938   7.47530   7.63818   7.69023   7.75291
 Alpha virt. eigenvalues --    8.05717   8.19799   8.27985   8.33537   8.54085
 Alpha virt. eigenvalues --    8.54577   8.64380   8.76379   8.79991   8.92395
 Alpha virt. eigenvalues --    9.22351   9.35506   9.55236   9.60855   9.61265
 Alpha virt. eigenvalues --    9.75536  10.08504  10.33943  10.51351  10.63113
 Alpha virt. eigenvalues --   10.79511  10.96779  11.26176  11.38276  11.45231
 Alpha virt. eigenvalues --   11.57629  11.62505  11.65072  11.85655  11.99398
 Alpha virt. eigenvalues --   12.51180  12.60051  20.75945  21.40041  21.50813
 Alpha virt. eigenvalues --   21.78360  21.91177  22.18852  23.21859  24.42451
 Alpha virt. eigenvalues --   37.65642  37.86092  37.98949  38.08506  38.26417
 Alpha virt. eigenvalues --   38.32462  43.25770  43.54796
          Condensed to atoms (all electrons):
               1          2          3          4          5          6
     1  C    4.561360   0.385900   0.200341  -0.085616  -0.006072   0.427867
     2  C    0.385900   4.440791  -0.026763   0.494815  -0.023923  -0.033133
     3  O    0.200341  -0.026763   8.410407  -0.013173   0.240662  -0.051472
     4  O   -0.085616   0.494815  -0.013173   8.182578   0.018165   0.000664
     5  H   -0.006072  -0.023923   0.240662   0.018165   0.322176   0.002489
     6  H    0.427867  -0.033133  -0.051472   0.000664   0.002489   0.629317
     7  H    0.427867  -0.033133  -0.051472   0.000664   0.002489  -0.064778
     8  H   -0.045342   0.402908   0.003175  -0.038568   0.001223  -0.001381
               7          8
     1  C    0.427867  -0.045342
     2  C   -0.033133   0.402908
     3  O   -0.051472   0.003175
     4  O    0.000664  -0.038568
     5  H    0.002489   0.001223
     6  H   -0.064778  -0.001381
     7  H    0.629317  -0.001381
     8  H   -0.001381   0.558013
          Atomic-Atomic Spin Densities.
               1          2          3          4          5          6
     1  C    0.000000   0.000000   0.000000   0.000000   0.000000   0.000000
     2  C    0.000000   0.000000   0.000000   0.000000   0.000000   0.000000
     3  O    0.000000   0.000000   0.000000   0.000000   0.000000   0.000000
     4  O    0.000000   0.000000   0.000000   0.000000   0.000000   0.000000
     5  H    0.000000   0.000000   0.000000   0.000000   0.000000   0.000000
     6  H    0.000000   0.000000   0.000000   0.000000   0.000000   0.000000
     7  H    0.000000   0.000000   0.000000   0.000000   0.000000   0.000000
     8  H    0.000000   0.000000   0.000000   0.000000   0.000000   0.000000
               7          8
     1  C    0.000000   0.000000
     2  C    0.000000   0.000000
     3  O    0.000000   0.000000
     4  O    0.000000   0.000000
     5  H    0.000000   0.000000
     6  H    0.000000   0.000000
     7  H    0.000000   0.000000
     8  H    0.000000   0.000000
 Mulliken charges and spin densities:
               1          2
     1  C    0.133694   0.000000
     2  C    0.392539   0.000000
     3  O   -0.711702   0.000000
     4  O   -0.559528   0.000000
     5  H    0.442789   0.000000
     6  H    0.090428   0.000000
     7  H    0.090428   0.000000
     8  H    0.121353   0.000000
 Sum of Mulliken charges =  -0.00000   0.00000
 Mulliken charges and spin densities with hydrogens summed into heavy atoms:
               1          2
     1  C    0.314550   0.000000
     2  C    0.513892   0.000000
     3  O   -0.268913   0.000000
     4  O   -0.559528   0.000000
 Electronic spatial extent (au):  <R**2>=            261.6820
 Charge=             -0.0000 electrons
 Dipole moment (field-independent basis, Debye):
    X=              2.2068    Y=              1.7898    Z=             -0.0000  Tot=              2.8414
 Quadrupole moment (field-independent basis, Debye-Ang):
   XX=            -24.0143   YY=            -26.8468   ZZ=            -23.2324
   XY=              4.3380   XZ=              0.0000   YZ=             -0.0000
 Traceless Quadrupole moment (field-independent basis, Debye-Ang):
   XX=              0.6836   YY=             -2.1490   ZZ=              1.4654
   XY=              4.3380   XZ=              0.0000   YZ=             -0.0000
 Octapole moment (field-independent basis, Debye-Ang**2):
  XXX=              4.9262  YYY=              6.2334  ZZZ=             -0.0000  XYY=             -3.1254
  XXY=             -5.4864  XXZ=              0.0000  XZZ=              0.0156  YZZ=              0.1363
  YYZ=             -0.0000  XYZ=             -0.0000
 Hexadecapole moment (field-independent basis, Debye-Ang**3):
 XXXX=           -137.8075 YYYY=           -153.2533 ZZZZ=            -27.3539 XXXY=             34.1805
 XXXZ=              0.0000 YYYX=             30.7313 YYYZ=             -0.0000 ZZZX=             -0.0000
 ZZZY=             -0.0000 XXYY=            -51.3499 XXZZ=            -29.5015 YYZZ=            -27.1091
 XXYZ=              0.0000 YYXZ=             -0.0000 ZZXY=              9.1210
 N-N= 1.196023251754D+02 E-N=-7.763136710884D+02  KE= 2.276208614310D+02
 Symmetry A'   KE= 2.174840388451D+02
 Symmetry A"   KE= 1.013682258598D+01
 Symmetry A'   SP= 0.000000000000D+00
 Symmetry A"   SP= 0.000000000000D+00
                          Isotropic Fermi Contact Couplings
        Atom                 a.u.       MegaHertz       Gauss      10(-4) cm-1
     1  C(13)              0.00000       0.00000       0.00000       0.00000
     2  C(13)              0.00000       0.00000       0.00000       0.00000
     3  O(17)              0.00000      -0.00000      -0.00000      -0.00000
     4  O(17)              0.00000      -0.00000      -0.00000      -0.00000
     5  H(1)               0.00000       0.00000       0.00000       0.00000
     6  H(1)               0.00000       0.00000       0.00000       0.00000
     7  H(1)               0.00000       0.00000       0.00000       0.00000
     8  H(1)               0.00000       0.00000       0.00000       0.00000
 --------------------------------------------------------
       Center         ----  Spin Dipole Couplings  ----
                      3XX-RR        3YY-RR        3ZZ-RR
 --------------------------------------------------------
     1   Atom        0.000000      0.000000      0.000000
     2   Atom        0.000000      0.000000      0.000000
     3   Atom        0.000000      0.000000      0.000000
     4   Atom        0.000000      0.000000      0.000000
     5   Atom        0.000000      0.000000      0.000000
     6   Atom        0.000000      0.000000      0.000000
     7   Atom        0.000000      0.000000      0.000000
     8   Atom        0.000000      0.000000      0.000000
 --------------------------------------------------------
                        XY            XZ            YZ
 --------------------------------------------------------
     1   Atom        0.000000      0.000000      0.000000
     2   Atom        0.000000      0.000000      0.000000
     3   Atom        0.000000      0.000000      0.000000
     4   Atom        0.000000      0.000000      0.000000
     5   Atom        0.000000      0.000000      0.000000
     6   Atom        0.000000      0.000000      0.000000
     7   Atom        0.000000      0.000000      0.000000
     8   Atom        0.000000      0.000000      0.000000
 --------------------------------------------------------


 ---------------------------------------------------------------------------------
              Anisotropic Spin Dipole Couplings in Principal Axis System
 ---------------------------------------------------------------------------------

       Atom             a.u.   MegaHertz   Gauss  10(-4) cm-1        Axes

              Baa     0.0000     0.000     0.000     0.000  1.0000  0.0000  0.0000
     1 C(13)  Bbb     0.0000     0.000     0.000     0.000 -0.0000  1.0000  0.0000
              Bcc     0.0000     0.000     0.000     0.000  0.0000  0.0000  1.0000
 
              Baa     0.0000     0.000     0.000     0.000  1.0000  0.0000  0.0000
     2 C(13)  Bbb     0.0000     0.000     0.000     0.000 -0.0000  1.0000  0.0000
              Bcc     0.0000     0.000     0.000     0.000  0.0000  0.0000  1.0000
 
              Baa     0.0000    -0.000    -0.000    -0.000  1.0000  0.0000  0.0000
     3 O(17)  Bbb     0.0000    -0.000    -0.000    -0.000 -0.0000  1.0000  0.0000
              Bcc     0.0000    -0.000    -0.000    -0.000  0.0000  0.0000  1.0000
 
              Baa     0.0000    -0.000    -0.000    -0.000  1.0000  0.0000  0.0000
     4 O(17)  Bbb     0.0000    -0.000    -0.000    -0.000 -0.0000  1.0000  0.0000
              Bcc     0.0000    -0.000    -0.000    -0.000  0.0000  0.0000  1.0000
 
              Baa     0.0000     0.000     0.000     0.000  1.0000  0.0000  0.0000
     5 H(1)   Bbb     0.0000     0.000     0.000     0.000 -0.0000  1.0000  0.0000
              Bcc     0.0000     0.000     0.000     0.000  0.0000  0.0000  1.0000
 
              Baa     0.0000     0.000     0.000     0.000  1.0000  0.0000  0.0000
     6 H(1)   Bbb     0.0000     0.000     0.000     0.000 -0.0000  1.0000  0.0000
              Bcc     0.0000     0.000     0.000     0.000  0.0000  0.0000  1.0000
 
              Baa     0.0000     0.000     0.000     0.000  1.0000  0.0000  0.0000
     7 H(1)   Bbb     0.0000     0.000     0.000     0.000 -0.0000  1.0000  0.0000
              Bcc     0.0000     0.000     0.000     0.000  0.0000  0.0000  1.0000
 
              Baa     0.0000     0.000     0.000     0.000  1.0000  0.0000  0.0000
     8 H(1)   Bbb     0.0000     0.000     0.000     0.000 -0.0000  1.0000  0.0000
              Bcc     0.0000     0.000     0.000     0.000  0.0000  0.0000  1.0000
 

 ---------------------------------------------------------------------------------

 1\1\GINC-GAMBA\SP\ROHF\Gen\C2H4O2\IRIKURA\29-Sep-2023\0\\# rohf/gen ge
 om=check guess=check\\hydroxyacetaldehyde, ROHF/cc-pVTZ-F12\\0,1\C,0,0
 .,0.928013,0.\C,0,0.92512,-0.257292,0.\O,0,-1.348939,0.558151,0.\O,0,0
 .515287,-1.391047,0.\H,0,-1.374167,-0.409292,0.\H,0,0.24259,1.540903,0
 .879198\H,0,0.24259,1.540903,-0.879198\H,0,2.007485,-0.033674,0.\\Vers
 ion=ES64L-G16RevB.01\State=1-A'\HF=-227.8748414\RMSD=3.991e-09\Dipole=
 0.8682212,0.7041613,0.\Quadrupole=0.508211,-1.5977056,1.0894946,3.2251
 881,0.,0.\PG=CS [SG(C2H2O2),X(H2)]\\@


 WHEN YOU'VE SEEN ONE NUCLEAR WAR YOU'VE SEEN THEM ALL.
 Job cpu time:       0 days  0 hours  4 minutes 40.4 seconds.
 Elapsed time:       0 days  0 hours  1 minutes 10.2 seconds.
 File lengths (MBytes):  RWF=     61 Int=      0 D2E=      0 Chk=      8 Scr=      1
 Normal termination of Gaussian 16 at Fri Sep 29 18:51:29 2023.
