 Entering Gaussian System, Link 0=g16
 AtFile(1): pcseg2.gbs
            -H     0
            S   4   1.00
                  0.754732D+02           0.427821D-02
                  0.113575D+02           0.328672D-01
                  0.260081D+01           0.159578D+00
                  0.735503D+00           0.500000D+00
            S   1   1.00
                  0.231761D+00           1.0000000
            S   1   1.00
                  0.741675D-01           1.0000000
            P   1   1.00
                  0.160000D+01           1.0000000
            P   1   1.00
                  0.450000D+00           1.0000000
            D   1   1.00
                  0.125000D+01           1.0000000
            ****
            -C     0
            S   7   1.00
                  0.731999D+04           0.695369D-03
                  0.109818D+04           0.537138D-02
                  0.250014D+03           0.274734D-01
                  0.707586D+02           0.105078D+00
                  0.228595D+02           0.291262D+00
                  0.803936D+01           0.500000D+00
                  0.289309D+01           0.362224D+00
            S   2   1.00
                  0.521640D+01          -0.957844D-01
                  0.556124D+00           0.500000D+00
            S   1   1.00
                  0.228813D+00           1.0000000
            S   1   1.00
                  0.936338D-01           1.0000000
            P   4   1.00
                  0.339855D+02           0.818395D-02
                  0.772957D+01           0.586921D-01
                  0.224954D+01           0.222514D+00
                  0.767681D+00           0.500000D+00
            P   1   1.00
                  0.263283D+00           1.0000000
            P   1   1.00
                  0.848744D-01           1.0000000
            D   1   1.00
                  0.140000D+01           1.0000000
            D   1   1.00
                  0.450000D+00           1.0000000
            F   1   1.00
                  0.950000D+00           1.0000000
            ****
            -O     0
            S   7   1.00
                  0.135887D+05           0.665492D-03
                  0.203847D+04           0.514222D-02
                  0.464041D+03           0.263472D-01
                  0.131339D+03           0.101500D+00
                  0.425340D+02           0.285877D+00
                  0.150429D+02           0.500000D+00
                  0.546616D+01           0.368211D+00
            S   2   1.00
                  0.100915D+02          -0.100084D+00
                  0.110429D+01           0.500000D+00
            S   1   1.00
                  0.448082D+00           1.0000000
            S   1   1.00
                  0.175325D+00           1.0000000
            P   4   1.00
                  0.608220D+02           0.908253D-02
                  0.140332D+02           0.645878D-01
                  0.418244D+01           0.241502D+00
                  0.142490D+01           0.500000D+00
            P   1   1.00
                  0.478741D+00           1.0000000
            P   1   1.00
                  0.146257D+00           1.0000000
            D   1   1.00
                  0.220000D+01           1.0000000
            D   1   1.00
                  0.650000D+00           1.0000000
            F   1   1.00
                  0.110000D+01           1.0000000
            ****
            -N     0
            S   7   1.00
                  0.101643D+05           0.682757D-03
                  0.152481D+04           0.527488D-02
                  0.347119D+03           0.270037D-01
                  0.982389D+02           0.103673D+00
                  0.317799D+02           0.289575D+00
                  0.112240D+02           0.500000D+00
                  0.406611D+01           0.364621D+00
            S   2   1.00
                  0.747898D+01          -0.975681D-01
                  0.805040D+00           0.500000D+00
            S   1   1.00
                  0.324626D+00           1.0000000
            S   1   1.00
                  0.128132D+00           1.0000000
            P   4   1.00
                  0.482704D+02           0.829547D-02
                  0.110815D+02           0.596223D-01
                  0.326643D+01           0.227889D+00
                  0.111680D+01           0.500000D+00
            P   1   1.00
                  0.382049D+00           1.0000000
            P   1   1.00
                  0.121222D+00           1.0000000
            D   1   1.00
                  0.180000D+01           1.0000000
            D   1   1.00
                  0.550000D+00           1.0000000
            F   1   1.00
                  0.102000D+01           1.0000000
            ****
            -F     0
            S   7   1.00
                  0.174507D+05           0.655972D-03
                  0.261768D+04           0.506944D-02
                  0.595857D+03           0.259899D-01
                  0.168651D+03           0.100353D+00
                  0.546654D+02           0.284095D+00
                  0.193717D+02           0.500000D+00
                  0.706202D+01           0.370721D+00
            S   2   1.00
                  0.131197D+02          -0.101997D+00
                  0.145046D+01           0.500000D+00
            S   1   1.00
                  0.588255D+00           1.0000000
            S   1   1.00
                  0.227960D+00           1.0000000
            P   4   1.00
                  0.779407D+02           0.931135D-02
                  0.180425D+02           0.663964D-01
                  0.542342D+01           0.246386D+00
                  0.184876D+01           0.500000D+00
            P   1   1.00
                  0.617455D+00           1.0000000
            P   1   1.00
                  0.185496D+00           1.0000000
            D   1   1.00
                  0.280000D+01           1.0000000
            D   1   1.00
                  0.800000D+00           1.0000000
            F   1   1.00
                  0.120000D+01           1.0000000
            ****
            -Cl     0
            S   8   1.00
                  0.154272D+06           0.222473D-03
                  0.231232D+05           0.172590D-02
                  0.526257D+04           0.899286D-02
                  0.148995D+04           0.367724D-01
                  0.485417D+03           0.121446D+00
                  0.174634D+03           0.304148D+00
                  0.672393D+02           0.500000D+00
                  0.265780D+02           0.360252D+00
            S   3   1.00
                  0.131826D+03          -0.531330D-01
                  0.400703D+02          -0.233346D+00
                  0.789448D+01           0.500000D+00
            S   2   1.00
                  0.427711D+01           0.500000D+00
                  0.196233D+01           0.370517D+00
            S   1   1.00
                  0.520793D+00           1.0000000
            S   1   1.00
                  0.181633D+00           1.0000000
            P   7   1.00
                  0.124440D+04           0.988206D-03
                  0.295109D+03           0.829674D-02
                  0.947224D+02           0.430906D-01
                  0.352588D+02           0.148443D+00
                  0.144211D+02           0.344744D+00
                  0.610371D+01           0.500000D+00
                  0.258886D+01           0.348278D+00
            P   2   1.00
                  0.109447D+02          -0.196768D-01
                  0.104413D+01           0.500000D+00
            P   1   1.00
                  0.376184D+00           1.0000000
            P   1   1.00
                  0.120613D+00           1.0000000
            D   1   1.00
                  0.231000D+01           1.0000000
            D   1   1.00
                  0.520000D+00           1.0000000
            F   1   1.00
                  0.720000D+00           1.0000000
            ****
            -S     0
            S   8   1.00
                  0.134700D+06           0.226231D-03
                  0.201904D+05           0.175488D-02
                  0.459528D+04           0.914190D-02
                  0.130109D+04           0.373551D-01
                  0.423902D+03           0.123121D+00
                  0.152485D+03           0.306801D+00
                  0.586925D+02           0.500000D+00
                  0.231461D+02           0.354358D+00
            S   3   1.00
                  0.116327D+03          -0.491772D-01
                  0.352841D+02          -0.215962D+00
                  0.677831D+01           0.500000D+00
            S   2   1.00
                  0.360404D+01           0.500000D+00
                  0.164871D+01           0.366278D+00
            S   1   1.00
                  0.421821D+00           1.0000000
            S   1   1.00
                  0.147554D+00           1.0000000
            P   7   1.00
                  0.104863D+04           0.105273D-02
                  0.248717D+03           0.879338D-02
                  0.797887D+02           0.453358D-01
                  0.296023D+02           0.154476D+00
                  0.120627D+02           0.352366D+00
                  0.507628D+01           0.500000D+00
                  0.213375D+01           0.346429D+00
            P   2   1.00
                  0.928958D+01          -0.185932D-01
                  0.837819D+00           0.500000D+00
            P   1   1.00
                  0.301495D+00           1.0000000
            P   1   1.00
                  0.974740D-01           1.0000000
            D   1   1.00
                  0.210000D+01           1.0000000
            D   1   1.00
                  0.480000D+00           1.0000000
            F   1   1.00
                  0.660000D+00           1.0000000
            ****
            -Br     0
            S    10   1.00
                  0.233625D+07           0.532336D-04
                  0.349961D+06           0.413715D-03
                  0.796444D+05           0.217123D-02
                  0.225555D+05           0.910109D-02
                  0.735546D+04           0.323789D-01
                  0.265352D+04           0.988755D-01
                  0.103517D+04           0.248138D+00
                  0.422205D+03           0.474328D+00
                  0.180035D+03           0.500000D+00
                  0.793308D+02           0.187769D+00
            S    4   1.00
                  0.620834D+03          -0.226511D-01
                  0.190829D+03          -0.109497D+00
                  0.312505D+02           0.500000D+00
                  0.135270D+02           0.492812D+00
            S    2   1.00
                  0.216097D+02          -0.165418D+00
                  0.372566D+01           0.500000D+00
            S    1   1.00
                  0.169770D+01           1.0000000
            S    1   1.00
                  0.489332D+00           1.0000000
            S    1   1.00
                  0.175712D+00           1.0000000
            P    8   1.00
                  0.960829D+04           0.478974D-03
                  0.227618D+04           0.417853D-02
                  0.736723D+03           0.229315D-01
                  0.281579D+03           0.892653D-01
                  0.118395D+03           0.255288D+00
                  0.527481D+02           0.479074D+00
                  0.245098D+02           0.500000D+00
                  0.112009D+02           0.200944D+00
            P    4   1.00
                  0.587849D+02          -0.189674D-01
                  0.918962D+01           0.264104D+00
                  0.413895D+01           0.500000D+00
                  0.184225D+01           0.319316D+00
            P    1   1.00
                  0.713862D+00           1.0000000
            P    1   1.00
                  0.274232D+00           1.0000000
            P    1   1.00
                  0.944411D-01           1.0000000
            D    7   1.00
                  0.398470D+03           0.204066D-02
                  0.118967D+03           0.175171D-01
                  0.450197D+02           0.829708D-01
                  0.190320D+02           0.236284D+00
                  0.855686D+01           0.428468D+00
                  0.382950D+01           0.500000D+00
                  0.166291D+01           0.349360D+00
            D    1   1.00
                  0.672953D+00           1.0000000
            D    1   1.00
                  0.252000D+00           1.0000000
            F    1   1.00
                  0.530000D+00           1.0000000
            ****
            -Si     0
            S    8   1.00
                  0.996133D+05           0.235546D-03
                  0.149311D+05           0.182707D-02
                  0.339820D+04           0.951425D-02
                  0.962140D+03           0.388172D-01
                  0.313430D+03           0.127328D+00
                  0.112683D+03           0.313522D+00
                  0.433372D+02           0.500000D+00
                  0.170029D+02           0.340347D+00
            S    3   1.00
                  0.884208D+02          -0.404451D-01
                  0.266756D+02          -0.178059D+00
                  0.479640D+01           0.500000D+00
            S    2   1.00
                  0.239385D+01           0.500000D+00
                  0.108333D+01           0.338016D+00
            S    1   1.00
                  0.252420D+00           1.0000000
            S    1   1.00
                  0.891210D-01           1.0000000
            P    7   1.00
                  0.709901D+03           0.123028D-02
                  0.168426D+03           0.101366D-01
                  0.539946D+02           0.511840D-01
                  0.198646D+02           0.169967D+00
                  0.801369D+01           0.370717D+00
                  0.331870D+01           0.500000D+00
                  0.136112D+01           0.344128D+00
            P    2   1.00
                  0.622158D+01          -0.166609D-01
                  0.503049D+00           0.500000D+00
            P    1   1.00
                  0.179848D+00           1.0000000
            P    1   1.00
                  0.591912D-01           1.0000000
            D    1   1.00
                  0.168000D+01           1.0000000
            D    1   1.00
                  0.380000D+00           1.0000000
            F    1   1.00
                  0.540000D+00           1.0000000
            ****
            -P     0
            S    8   1.00
                  0.116416D+06           0.230715D-03
                  0.174500D+05           0.178960D-02
                  0.397149D+04           0.932116D-02
                  0.112447D+04           0.380591D-01
                  0.366347D+03           0.125148D+00
                  0.131757D+03           0.310022D+00
                  0.506988D+02           0.500000D+00
                  0.199436D+02           0.347528D+00
            S    3   1.00
                  0.101878D+03          -0.446755D-01
                  0.308249D+02          -0.196376D+00
                  0.573688D+01           0.500000D+00
            S    2   1.00
                  0.296868D+01           0.500000D+00
                  0.135315D+01           0.355098D+00
            S    1   1.00
                  0.332196D+00           1.0000000
            S    1   1.00
                  0.116229D+00           1.0000000
            P    7   1.00
                  0.873928D+03           0.112375D-02
                  0.207298D+03           0.933330D-02
                  0.664628D+02           0.477213D-01
                  0.245665D+02           0.160733D+00
                  0.996820D+01           0.359760D+00
                  0.416536D+01           0.500000D+00
                  0.173022D+01           0.346593D+00
            P    2   1.00
                  0.772530D+01          -0.175718D-01
                  0.657252D+00           0.500000D+00
            P    1   1.00
                  0.239903D+00           1.0000000
            P    1   1.00
                  0.800988D-01           1.0000000
            D    1   1.00
                  0.189000D+01           1.0000000
            D    1   1.00
                  0.430000D+00           1.0000000
            F    1   1.00
                  0.600000D+00           1.0000000
            ****
            
 Initial command:
 /usr/local/apps/g16_b01_avx/g16/l1.exe "/wrk/irikura/Gau-185201.inp" -scrdir="/wrk/irikura/"
 Entering Link 1 = /usr/local/apps/g16_b01_avx/g16/l1.exe PID=    185203.
  
 Copyright (c) 1988-2017, Gaussian, Inc.  All Rights Reserved.
  
 This is part of the Gaussian(R) 16 program.  It is based on
 the Gaussian(R) 09 system (copyright 2009, Gaussian, Inc.),
 the Gaussian(R) 03 system (copyright 2003, Gaussian, Inc.),
 the Gaussian(R) 98 system (copyright 1998, Gaussian, Inc.),
 the Gaussian(R) 94 system (copyright 1995, Gaussian, Inc.),
 the Gaussian 92(TM) system (copyright 1992, Gaussian, Inc.),
 the Gaussian 90(TM) system (copyright 1990, Gaussian, Inc.),
 the Gaussian 88(TM) system (copyright 1988, Gaussian, Inc.),
 the Gaussian 86(TM) system (copyright 1986, Carnegie Mellon
 University), and the Gaussian 82(TM) system (copyright 1983,
 Carnegie Mellon University). Gaussian is a federally registered
 trademark of Gaussian, Inc.
  
 This software contains proprietary and confidential information,
 including trade secrets, belonging to Gaussian, Inc.
  
 This software is provided under written license and may be
 used, copied, transmitted, or stored only in accord with that
 written license.
  
 The following legend is applicable only to US Government
 contracts under FAR:
  
                    RESTRICTED RIGHTS LEGEND
  
 Use, reproduction and disclosure by the US Government is
 subject to restrictions as set forth in subparagraphs (a)
 and (c) of the Commercial Computer Software - Restricted
 Rights clause in FAR 52.227-19.
  
 Gaussian, Inc.
 340 Quinnipiac St., Bldg. 40, Wallingford CT 06492
  
  
 ---------------------------------------------------------------
 Warning -- This program may not be used in any manner that
 competes with the business of Gaussian, Inc. or will provide
 assistance to any competitor of Gaussian, Inc.  The licensee
 of this program is prohibited from giving any competitor of
 Gaussian, Inc. access to this program.  By using this program,
 the user acknowledges that Gaussian, Inc. is engaged in the
 business of creating and licensing software in the field of
 computational chemistry and represents and warrants to the
 licensee that it is not a competitor of Gaussian, Inc. and that
 it will not use this program in any manner prohibited above.
 ---------------------------------------------------------------
  

 Cite this work as:
 Gaussian 16, Revision B.01,
 M. J. Frisch, G. W. Trucks, H. B. Schlegel, G. E. Scuseria, 
 M. A. Robb, J. R. Cheeseman, G. Scalmani, V. Barone, 
 G. A. Petersson, H. Nakatsuji, X. Li, M. Caricato, A. V. Marenich, 
 J. Bloino, B. G. Janesko, R. Gomperts, B. Mennucci, H. P. Hratchian, 
 J. V. Ortiz, A. F. Izmaylov, J. L. Sonnenberg, D. Williams-Young, 
 F. Ding, F. Lipparini, F. Egidi, J. Goings, B. Peng, A. Petrone, 
 T. Henderson, D. Ranasinghe, V. G. Zakrzewski, J. Gao, N. Rega, 
 G. Zheng, W. Liang, M. Hada, M. Ehara, K. Toyota, R. Fukuda, 
 J. Hasegawa, M. Ishida, T. Nakajima, Y. Honda, O. Kitao, H. Nakai, 
 T. Vreven, K. Throssell, J. A. Montgomery, Jr., J. E. Peralta, 
 F. Ogliaro, M. J. Bearpark, J. J. Heyd, E. N. Brothers, K. N. Kudin, 
 V. N. Staroverov, T. A. Keith, R. Kobayashi, J. Normand, 
 K. Raghavachari, A. P. Rendell, J. C. Burant, S. S. Iyengar, 
 J. Tomasi, M. Cossi, J. M. Millam, M. Klene, C. Adamo, R. Cammi, 
 J. W. Ochterski, R. L. Martin, K. Morokuma, O. Farkas, 
 J. B. Foresman, and D. J. Fox, Gaussian, Inc., Wallingford CT, 2016.
 
 ******************************************
 Gaussian 16:  ES64L-G16RevB.01 20-Dec-2017
                28-Sep-2023 
 ******************************************
 %chk=hcooh.chk
 %mem=500mw
 %nprocs=4
 Will use up to    4 processors via shared memory.
 ---------------------------------------
 # b3lyp/gen opt freq CPHF(Grid=OneStep)
 ---------------------------------------
 1/18=20,19=15,26=3,38=1/1,3;
 2/9=110,12=2,17=6,18=5,40=1/2;
 3/5=7,11=2,25=1,30=1,71=1,74=-5/1,2,3;
 4//1;
 5/5=2,38=5/2;
 6/7=2,8=2,9=2,10=2,28=1/1;
 7//1,2,3,16;
 1/18=20,19=15,26=3/3(2);
 2/9=110/2;
 99//99;
 2/9=110/2;
 3/5=7,6=1,11=2,25=1,30=1,71=1,74=-5,82=7/1,2,3;
 4/5=5,16=3,69=1/1;
 5/5=2,38=5/2;
 7//1,2,3,16;
 1/18=20,19=15,26=3/3(-5);
 2/9=110/2;
 6/7=2,8=2,9=2,10=2,19=2,28=1/1;
 99/9=1/99;
 --------------------------
 formic acid, B3LYP/pcseg-2
 --------------------------
 Symbolic Z-matrix:
 Charge =  0 Multiplicity = 1
 C                     0.        0.42086   0. 
 O                    -1.02709  -0.44695   0. 
 O                     1.15763   0.11841   0. 
 H                    -0.38479   1.44682   0. 
 H                    -0.65947  -1.34369   0. 
 

 GradGradGradGradGradGradGradGradGradGradGradGradGradGradGradGradGradGrad
 Berny optimization.
 Initialization pass.
                           ----------------------------
                           !    Initial Parameters    !
                           ! (Angstroms and Degrees)  !
 --------------------------                            --------------------------
 ! Name  Definition              Value          Derivative Info.                !
 --------------------------------------------------------------------------------
 ! R1    R(1,2)                  1.3446         estimate D2E/DX2                !
 ! R2    R(1,3)                  1.1965         estimate D2E/DX2                !
 ! R3    R(1,4)                  1.0957         estimate D2E/DX2                !
 ! R4    R(2,5)                  0.9692         estimate D2E/DX2                !
 ! A1    A(2,1,3)              125.1624         estimate D2E/DX2                !
 ! A2    A(2,1,4)              109.6365         estimate D2E/DX2                !
 ! A3    A(3,1,4)              125.2011         estimate D2E/DX2                !
 ! A4    A(1,2,5)              107.9038         estimate D2E/DX2                !
 ! D1    D(3,1,2,5)              0.0            estimate D2E/DX2                !
 ! D2    D(4,1,2,5)            180.0            estimate D2E/DX2                !
 ! D3    D(2,1,3,4)            180.0            estimate D2E/DX2                !
 --------------------------------------------------------------------------------
 Trust Radius=3.00D-01 FncErr=1.00D-07 GrdErr=1.00D-06 EigMax=2.50D+02 EigMin=1.00D-04
 Number of steps in this run=     21 maximum allowed number of steps=    100.
 GradGradGradGradGradGradGradGradGradGradGradGradGradGradGradGradGradGrad

                          Input orientation:                          
 ---------------------------------------------------------------------
 Center     Atomic      Atomic             Coordinates (Angstroms)
 Number     Number       Type             X           Y           Z
 ---------------------------------------------------------------------
      1          6           0        0.000000    0.420864    0.000000
      2          8           0       -1.027094   -0.446949    0.000000
      3          8           0        1.157626    0.118410    0.000000
      4          1           0       -0.384787    1.446819    0.000000
      5          1           0       -0.659473   -1.343689    0.000000
 ---------------------------------------------------------------------
                    Distance matrix (angstroms):
                    1          2          3          4          5
     1  C    0.000000
     2  O    1.344627   0.000000
     3  O    1.196485   2.256686   0.000000
     4  H    1.095739   1.999729   2.035610   0.000000
     5  H    1.883760   0.969169   2.332291   2.803995   0.000000
 Stoichiometry    CH2O2
 Framework group  CS[SG(CH2O2)]
 Deg. of freedom     7
 Full point group                 CS      NOp   2
 Largest Abelian subgroup         CS      NOp   2
 Largest concise Abelian subgroup C1      NOp   1
                         Standard orientation:                         
 ---------------------------------------------------------------------
 Center     Atomic      Atomic             Coordinates (Angstroms)
 Number     Number       Type             X           Y           Z
 ---------------------------------------------------------------------
      1          6           0        0.000000    0.420864    0.000000
      2          8           0       -1.027094   -0.446949    0.000000
      3          8           0        1.157626    0.118410    0.000000
      4          1           0       -0.384787    1.446819    0.000000
      5          1           0       -0.659472   -1.343689    0.000000
 ---------------------------------------------------------------------
 Rotational constants (GHZ):          78.1335188          12.0678093          10.4532874
 General basis read from cards:  (5D, 7F)
 There are    94 symmetry adapted cartesian basis functions of A'  symmetry.
 There are    41 symmetry adapted cartesian basis functions of A"  symmetry.
 There are    80 symmetry adapted basis functions of A'  symmetry.
 There are    38 symmetry adapted basis functions of A"  symmetry.
   118 basis functions,   189 primitive gaussians,   135 cartesian basis functions
    12 alpha electrons       12 beta electrons
       nuclear repulsion energy        70.2789624891 Hartrees.
 NAtoms=    5 NActive=    5 NUniq=    5 SFac= 1.00D+00 NAtFMM=   60 NAOKFM=F Big=F
 Integral buffers will be    131072 words long.
 Raffenetti 2 integral format.
 Two-electron integral symmetry is turned on.
 One-electron integrals computed using PRISM.
 NBasis=   118 RedAO= T EigKep=  1.68D-03  NBF=    80    38
 NBsUse=   118 1.00D-06 EigRej= -1.00D+00 NBFU=    80    38
 ExpMin= 7.42D-02 ExpMax= 1.36D+04 ExpMxC= 4.64D+02 IAcc=3 IRadAn=         5 AccDes= 0.00D+00
 Harris functional with IExCor=  402 and IRadAn=       5 diagonalized for initial guess.
 HarFok:  IExCor=  402 AccDes= 0.00D+00 IRadAn=         5 IDoV= 1 UseB2=F ITyADJ=14
 ICtDFT=  3500011 ScaDFX=  1.000000  1.000000  1.000000  1.000000
 FoFCou: FMM=F IPFlag=           0 FMFlag=      100000 FMFlg1=           0
         NFxFlg=           0 DoJE=T BraDBF=F KetDBF=T FulRan=T
         wScrn=  0.000000 ICntrl=       500 IOpCl=  0 I1Cent=   200000004 NGrid=           0
         NMat0=    1 NMatS0=      1 NMatT0=    0 NMatD0=    1 NMtDS0=    0 NMtDT0=    0
 Petite list used in FoFCou.
 Initial guess orbital symmetries:
       Occupied  (A') (A') (A') (A') (A') (A') (A') (A') (A") (A')
                 (A") (A')
       Virtual   (A") (A') (A') (A') (A') (A") (A') (A') (A') (A')
                 (A') (A") (A') (A") (A') (A') (A') (A') (A') (A")
                 (A") (A') (A') (A") (A') (A') (A") (A') (A") (A')
                 (A') (A') (A') (A") (A') (A") (A') (A') (A') (A")
                 (A') (A") (A') (A') (A") (A') (A") (A') (A') (A')
                 (A') (A") (A') (A") (A') (A') (A") (A') (A") (A')
                 (A") (A') (A') (A") (A') (A") (A') (A') (A") (A")
                 (A') (A') (A") (A') (A") (A') (A") (A') (A') (A")
                 (A') (A') (A') (A") (A') (A') (A') (A") (A') (A")
                 (A') (A") (A') (A") (A') (A") (A') (A') (A") (A")
                 (A') (A') (A') (A') (A') (A')
 The electronic state of the initial guess is 1-A'.
 Keep R1 ints in memory in symmetry-blocked form, NReq=37215875.
 Requested convergence on RMS density matrix=1.00D-08 within 128 cycles.
 Requested convergence on MAX density matrix=1.00D-06.
 Requested convergence on             energy=1.00D-06.
 No special actions if energy rises.
 Integral accuracy reduced to 1.0D-05 until final iterations.
 Initial convergence to 1.0D-05 achieved.  Increase integral accuracy.
 SCF Done:  E(RB3LYP) =  -189.849355020     A.U. after   12 cycles
            NFock= 12  Conv=0.70D-08     -V/T= 2.0030

 **********************************************************************

            Population analysis using the SCF Density.

 **********************************************************************

 Orbital symmetries:
       Occupied  (A') (A') (A') (A') (A') (A') (A') (A') (A") (A')
                 (A") (A')
       Virtual   (A") (A') (A') (A') (A') (A") (A') (A') (A') (A')
                 (A') (A") (A') (A") (A') (A') (A') (A') (A') (A")
                 (A") (A') (A') (A") (A') (A') (A") (A') (A") (A')
                 (A') (A') (A') (A") (A') (A") (A') (A') (A") (A')
                 (A') (A') (A") (A') (A") (A') (A") (A') (A') (A')
                 (A') (A") (A") (A') (A') (A') (A") (A') (A") (A')
                 (A") (A') (A') (A") (A') (A") (A') (A") (A') (A")
                 (A') (A') (A") (A') (A") (A') (A') (A") (A') (A")
                 (A') (A') (A') (A") (A') (A') (A') (A") (A') (A")
                 (A') (A") (A") (A') (A') (A") (A') (A') (A") (A')
                 (A") (A') (A') (A') (A') (A')
 The electronic state is 1-A'.
 Alpha  occ. eigenvalues --  -19.19333 -19.13647 -10.32203  -1.12984  -1.04463
 Alpha  occ. eigenvalues --   -0.68085  -0.53640  -0.50487  -0.46671  -0.42331
 Alpha  occ. eigenvalues --   -0.35000  -0.30825
 Alpha virt. eigenvalues --   -0.02125   0.00828   0.03731   0.11264   0.14332
 Alpha virt. eigenvalues --    0.15318   0.21805   0.28646   0.29736   0.31350
 Alpha virt. eigenvalues --    0.35125   0.36512   0.39369   0.42603   0.43934
 Alpha virt. eigenvalues --    0.47760   0.50403   0.67611   0.72197   0.74295
 Alpha virt. eigenvalues --    0.78154   0.86053   0.94019   1.00271   1.00431
 Alpha virt. eigenvalues --    1.08859   1.17736   1.19826   1.24356   1.27623
 Alpha virt. eigenvalues --    1.33661   1.47276   1.54829   1.56673   1.63687
 Alpha virt. eigenvalues --    1.74555   1.75590   1.80816   1.90181   1.90798
 Alpha virt. eigenvalues --    1.98333   2.02470   2.03299   2.23861   2.32622
 Alpha virt. eigenvalues --    2.39035   2.44126   2.45330   2.67429   2.88936
 Alpha virt. eigenvalues --    2.98471   3.15947   3.26594   3.28076   3.44166
 Alpha virt. eigenvalues --    3.49293   3.57019   3.57902   3.64524   3.64560
 Alpha virt. eigenvalues --    3.71892   3.81204   3.90025   3.94070   3.94209
 Alpha virt. eigenvalues --    3.97758   4.04740   4.04877   4.05105   4.14824
 Alpha virt. eigenvalues --    4.21995   4.26744   4.29668   4.31203   4.44765
 Alpha virt. eigenvalues --    4.50078   4.60509   4.60635   4.61450   4.75373
 Alpha virt. eigenvalues --    4.76122   4.81383   4.89990   5.03767   5.05844
 Alpha virt. eigenvalues --    5.34165   5.38559   5.47865   5.58164   5.65536
 Alpha virt. eigenvalues --    5.79680   6.03003   6.09393   6.13256   6.17722
 Alpha virt. eigenvalues --    6.18031   6.27096   6.40978   6.42508   6.47342
 Alpha virt. eigenvalues --    6.50770   6.76075   6.94669   6.98860   7.31052
 Alpha virt. eigenvalues --    7.49245
          Condensed to atoms (all electrons):
               1          2          3          4          5
     1  C    4.219558   0.303962   0.602488   0.420080  -0.010877
     2  O    0.303962   7.901190  -0.106025  -0.082899   0.307242
     3  O    0.602488  -0.106025   7.946367  -0.059149   0.011628
     4  H    0.420080  -0.082899  -0.059149   0.672647   0.012017
     5  H   -0.010877   0.307242   0.011628   0.012017   0.463306
 Mulliken charges:
               1
     1  C    0.464789
     2  O   -0.323468
     3  O   -0.395309
     4  H    0.037305
     5  H    0.216684
 Sum of Mulliken charges =  -0.00000
 Mulliken charges with hydrogens summed into heavy atoms:
               1
     1  C    0.502093
     2  O   -0.106784
     3  O   -0.395309
 Electronic spatial extent (au):  <R**2>=            133.3520
 Charge=              0.0000 electrons
 Dipole moment (field-independent basis, Debye):
    X=             -1.5114    Y=             -0.2961    Z=              0.0000  Tot=              1.5401
 Quadrupole moment (field-independent basis, Debye-Ang):
   XX=            -22.4618   YY=            -12.9165   ZZ=            -17.1084
   XY=             -0.0834   XZ=              0.0000   YZ=             -0.0000
 Traceless Quadrupole moment (field-independent basis, Debye-Ang):
   XX=             -4.9662   YY=              4.5791   ZZ=              0.3872
   XY=             -0.0834   XZ=              0.0000   YZ=             -0.0000
 Octapole moment (field-independent basis, Debye-Ang**2):
  XXX=             -1.4214  YYY=             -4.8271  ZZZ=              0.0000  XYY=             -3.1552
  XXY=             -0.7996  XXZ=              0.0000  XZZ=              0.1491  YZZ=             -0.4101
  YYZ=              0.0000  XYZ=              0.0000
 Hexadecapole moment (field-independent basis, Debye-Ang**3):
 XXXX=           -108.0494 YYYY=            -30.8037 ZZZZ=            -14.9696 XXXY=            -11.5818
 XXXZ=              0.0000 YYYX=             -7.4149 YYYZ=             -0.0000 ZZZX=              0.0000
 ZZZY=             -0.0000 XXYY=            -22.6455 XXZZ=            -19.5622 YYZZ=             -9.5640
 XXYZ=             -0.0000 YYXZ=              0.0000 ZZXY=             -3.4842
 N-N= 7.027896248912D+01 E-N=-5.877821820647D+02  KE= 1.892835515492D+02
 Symmetry A'   KE= 1.808955290564D+02
 Symmetry A"   KE= 8.388022492828D+00
 Calling FoFJK, ICntrl=      2127 FMM=F ISym2X=1 I1Cent= 0 IOpClX= 0 NMat=1 NMatS=1 NMatT=0.
 ***** Axes restored to original set *****
 -------------------------------------------------------------------
 Center     Atomic                   Forces (Hartrees/Bohr)
 Number     Number              X              Y              Z
 -------------------------------------------------------------------
      1        6          -0.000294050   -0.000140164   -0.000000000
      2        8           0.000203593    0.000147782    0.000000000
      3        8           0.000141769   -0.000087357    0.000000000
      4        1          -0.000050250    0.000133764   -0.000000000
      5        1          -0.000001062   -0.000054024   -0.000000000
 -------------------------------------------------------------------
 Cartesian Forces:  Max     0.000294050 RMS     0.000121235

 GradGradGradGradGradGradGradGradGradGradGradGradGradGradGradGradGradGrad
 Berny optimization.
 FormGI is forming the generalized inverse of G from B-inverse, IUseBI=4.
 Internal  Forces:  Max     0.000215175 RMS     0.000097328
 Search for a local minimum.
 Step number   1 out of a maximum of   21
 All quantities printed in internal units (Hartrees-Bohrs-Radians)
 Mixed Optimization -- En-DIIS/RFO-DIIS
 Second derivative matrix not updated -- first step.
 The second derivative matrix:
                          R1        R2        R3        R4        A1
           R1           0.56181
           R2           0.00000   1.06609
           R3           0.00000   0.00000   0.34158
           R4           0.00000   0.00000   0.00000   0.53547
           A1           0.00000   0.00000   0.00000   0.00000   0.25000
           A2           0.00000   0.00000   0.00000   0.00000   0.00000
           A3           0.00000   0.00000   0.00000   0.00000   0.00000
           A4           0.00000   0.00000   0.00000   0.00000   0.00000
           D1           0.00000   0.00000   0.00000   0.00000   0.00000
           D2           0.00000   0.00000   0.00000   0.00000   0.00000
           D3           0.00000   0.00000   0.00000   0.00000   0.00000
                          A2        A3        A4        D1        D2
           A2           0.16000
           A3           0.00000   0.16000
           A4           0.00000   0.00000   0.16000
           D1           0.00000   0.00000   0.00000   0.02424
           D2           0.00000   0.00000   0.00000   0.00000   0.02424
           D3           0.00000   0.00000   0.00000   0.00000   0.00000
                          D3
           D3           0.04384
 ITU=  0
     Eigenvalues ---    0.02424   0.03848   0.16000   0.16000   0.22000
     Eigenvalues ---    0.34158   0.53547   0.56181   1.06609
 RFO step:  Lambda=-2.17141002D-07 EMin= 2.42426040D-02
 Linear search not attempted -- first point.
 Iteration  1 RMS(Cart)=  0.00024765 RMS(Int)=  0.00000002
 Iteration  2 RMS(Cart)=  0.00000002 RMS(Int)=  0.00000000
 ClnCor:  largest displacement from symmetrization is 1.89D-13 for atom     1.
 Variable       Old X    -DE/DX   Delta X   Delta X   Delta X     New X
                                 (Linear)    (Quad)   (Total)
    R1        2.54098  -0.00022   0.00000  -0.00038  -0.00038   2.54059
    R2        2.26103   0.00016   0.00000   0.00015   0.00015   2.26118
    R3        2.07065   0.00014   0.00000   0.00042   0.00042   2.07107
    R4        1.83146   0.00005   0.00000   0.00009   0.00009   1.83156
    A1        2.18450  -0.00007   0.00000  -0.00033  -0.00033   2.18416
    A2        1.91352   0.00004   0.00000   0.00017   0.00017   1.91368
    A3        2.18517   0.00004   0.00000   0.00017   0.00017   2.18534
    A4        1.88328   0.00004   0.00000   0.00025   0.00025   1.88352
    D1        0.00000   0.00000   0.00000  -0.00000  -0.00000   0.00000
    D2        3.14159  -0.00000   0.00000  -0.00000   0.00000   3.14159
    D3        3.14159  -0.00000   0.00000  -0.00000   0.00000   3.14159
         Item               Value     Threshold  Converged?
 Maximum Force            0.000215     0.000450     YES
 RMS     Force            0.000097     0.000300     YES
 Maximum Displacement     0.000472     0.001800     YES
 RMS     Displacement     0.000248     0.001200     YES
 Predicted change in Energy=-1.085705D-07
 Optimization completed.
    -- Stationary point found.
                           ----------------------------
                           !   Optimized Parameters   !
                           ! (Angstroms and Degrees)  !
 --------------------------                            --------------------------
 ! Name  Definition              Value          Derivative Info.                !
 --------------------------------------------------------------------------------
 ! R1    R(1,2)                  1.3446         -DE/DX =   -0.0002              !
 ! R2    R(1,3)                  1.1965         -DE/DX =    0.0002              !
 ! R3    R(1,4)                  1.0957         -DE/DX =    0.0001              !
 ! R4    R(2,5)                  0.9692         -DE/DX =    0.0                 !
 ! A1    A(2,1,3)              125.1624         -DE/DX =   -0.0001              !
 ! A2    A(2,1,4)              109.6365         -DE/DX =    0.0                 !
 ! A3    A(3,1,4)              125.2011         -DE/DX =    0.0                 !
 ! A4    A(1,2,5)              107.9038         -DE/DX =    0.0                 !
 ! D1    D(3,1,2,5)              0.0            -DE/DX =    0.0                 !
 ! D2    D(4,1,2,5)            180.0            -DE/DX =    0.0                 !
 ! D3    D(2,1,3,4)            180.0            -DE/DX =    0.0                 !
 --------------------------------------------------------------------------------
 GradGradGradGradGradGradGradGradGradGradGradGradGradGradGradGradGradGrad

                          Input orientation:                          
 ---------------------------------------------------------------------
 Center     Atomic      Atomic             Coordinates (Angstroms)
 Number     Number       Type             X           Y           Z
 ---------------------------------------------------------------------
      1          6           0       -0.000000    0.420864    0.000000
      2          8           0       -1.027094   -0.446949   -0.000000
      3          8           0        1.157626    0.118410    0.000000
      4          1           0       -0.384787    1.446819   -0.000000
      5          1           0       -0.659473   -1.343689   -0.000000
 ---------------------------------------------------------------------
                    Distance matrix (angstroms):
                    1          2          3          4          5
     1  C    0.000000
     2  O    1.344627   0.000000
     3  O    1.196485   2.256686   0.000000
     4  H    1.095739   1.999729   2.035610   0.000000
     5  H    1.883760   0.969169   2.332291   2.803995   0.000000
 Stoichiometry    CH2O2
 Framework group  CS[SG(CH2O2)]
 Deg. of freedom     7
 Full point group                 CS      NOp   2
 Largest Abelian subgroup         CS      NOp   2
 Largest concise Abelian subgroup C1      NOp   1
                         Standard orientation:                         
 ---------------------------------------------------------------------
 Center     Atomic      Atomic             Coordinates (Angstroms)
 Number     Number       Type             X           Y           Z
 ---------------------------------------------------------------------
      1          6           0        0.000000    0.420864    0.000000
      2          8           0       -1.027094   -0.446949   -0.000000
      3          8           0        1.157626    0.118410    0.000000
      4          1           0       -0.384787    1.446819   -0.000000
      5          1           0       -0.659472   -1.343689   -0.000000
 ---------------------------------------------------------------------
 Rotational constants (GHZ):          78.1335188          12.0678093          10.4532874
 1\1\GINC-GAMBA\FOpt\RB3LYP\Gen\C1H2O2\IRIKURA\28-Sep-2023\0\\# b3lyp/g
 en opt freq CPHF(Grid=OneStep)\\formic acid, B3LYP/pcseg-2\\0,1\C,0.,0
 .420864,0.\O,-1.027094,-0.446949,0.\O,1.157626,0.11841,0.\H,-0.384787,
 1.446819,0.\H,-0.659473,-1.343689,0.\\Version=ES64L-G16RevB.01\State=1
 -A'\HF=-189.849355\RMSD=7.015e-09\RMSF=1.212e-04\Dipole=-0.594635,-0.1
 164986,0.\Quadrupole=-3.6922803,3.4044394,0.2878409,-0.0619783,0.,0.\P
 G=CS [SG(C1H2O2)]\\@


 CONFIDENCE: THAT QUIET ASSURED FEELING YOU HAVE
 JUST BEFORE YOU FALL FLAT ON YOUR FACE.
 Job cpu time:       0 days  0 hours  0 minutes 27.9 seconds.
 Elapsed time:       0 days  0 hours  0 minutes  7.1 seconds.
 File lengths (MBytes):  RWF=     10 Int=      0 D2E=      0 Chk=      2 Scr=      1
 Normal termination of Gaussian 16 at Thu Sep 28 22:13:48 2023.
 Link1:  Proceeding to internal job step number  2.
 ------------------------------------------------------------------
 #N Geom=AllCheck Guess=TCheck SCRF=Check GenChk RB3LYP/ChkBas Freq
 ------------------------------------------------------------------
 1/10=4,29=7,30=1,38=1,40=1/1,3;
 2/12=2,40=1/2;
 3/5=7,6=2,11=2,14=-4,25=1,30=1,67=1,70=2,71=2,74=-5,82=7,116=1,140=1/1,2,3;
 4/5=101/1;
 5/5=2,38=6,98=1/2;
 8/6=4,10=90,11=11/1;
 11/6=1,8=1,9=11,15=111,16=1/1,2,10;
 10/6=1,60=-420/2;
 6/7=2,8=2,9=2,10=2,28=1/1;
 7/8=1,10=1,25=1/1,2,3,16;
 1/10=4,30=1/3;
 99//99;
 Structure from the checkpoint file:  "hcooh.chk"
 --------------------------
 formic acid, B3LYP/pcseg-2
 --------------------------
 Charge =  0 Multiplicity = 1
 Redundant internal coordinates found in file.  (old form).
 C,0,0.,0.420864,0.
 O,0,-1.027094,-0.446949,0.
 O,0,1.157626,0.11841,0.
 H,0,-0.384787,1.446819,0.
 H,0,-0.659473,-1.343689,0.
 Recover connectivity data from disk.

 GradGradGradGradGradGradGradGradGradGradGradGradGradGradGradGradGradGrad
 Berny optimization.
 Initialization pass.
                           ----------------------------
                           !    Initial Parameters    !
                           ! (Angstroms and Degrees)  !
 --------------------------                            --------------------------
 ! Name  Definition              Value          Derivative Info.                !
 --------------------------------------------------------------------------------
 ! R1    R(1,2)                  1.3446         calculate D2E/DX2 analytically  !
 ! R2    R(1,3)                  1.1965         calculate D2E/DX2 analytically  !
 ! R3    R(1,4)                  1.0957         calculate D2E/DX2 analytically  !
 ! R4    R(2,5)                  0.9692         calculate D2E/DX2 analytically  !
 ! A1    A(2,1,3)              125.1624         calculate D2E/DX2 analytically  !
 ! A2    A(2,1,4)              109.6365         calculate D2E/DX2 analytically  !
 ! A3    A(3,1,4)              125.2011         calculate D2E/DX2 analytically  !
 ! A4    A(1,2,5)              107.9038         calculate D2E/DX2 analytically  !
 ! D1    D(3,1,2,5)              0.0            calculate D2E/DX2 analytically  !
 ! D2    D(4,1,2,5)            180.0            calculate D2E/DX2 analytically  !
 ! D3    D(2,1,3,4)            180.0            calculate D2E/DX2 analytically  !
 --------------------------------------------------------------------------------
 Trust Radius=3.00D-01 FncErr=1.00D-07 GrdErr=1.00D-07 EigMax=2.50D+02 EigMin=1.00D-04
 Number of steps in this run=      2 maximum allowed number of steps=      2.
 GradGradGradGradGradGradGradGradGradGradGradGradGradGradGradGradGradGrad

                          Input orientation:                          
 ---------------------------------------------------------------------
 Center     Atomic      Atomic             Coordinates (Angstroms)
 Number     Number       Type             X           Y           Z
 ---------------------------------------------------------------------
      1          6           0       -0.000000    0.420864    0.000000
      2          8           0       -1.027094   -0.446949   -0.000000
      3          8           0        1.157626    0.118410    0.000000
      4          1           0       -0.384787    1.446819   -0.000000
      5          1           0       -0.659473   -1.343689   -0.000000
 ---------------------------------------------------------------------
                    Distance matrix (angstroms):
                    1          2          3          4          5
     1  C    0.000000
     2  O    1.344627   0.000000
     3  O    1.196485   2.256686   0.000000
     4  H    1.095739   1.999729   2.035610   0.000000
     5  H    1.883760   0.969169   2.332291   2.803995   0.000000
 Stoichiometry    CH2O2
 Framework group  CS[SG(CH2O2)]
 Deg. of freedom     7
 Full point group                 CS      NOp   2
 Largest Abelian subgroup         CS      NOp   2
 Largest concise Abelian subgroup C1      NOp   1
                         Standard orientation:                         
 ---------------------------------------------------------------------
 Center     Atomic      Atomic             Coordinates (Angstroms)
 Number     Number       Type             X           Y           Z
 ---------------------------------------------------------------------
      1          6           0        0.000000    0.420864    0.000000
      2          8           0       -1.027094   -0.446949    0.000000
      3          8           0        1.157626    0.118410    0.000000
      4          1           0       -0.384787    1.446819    0.000000
      5          1           0       -0.659472   -1.343689    0.000000
 ---------------------------------------------------------------------
 Rotational constants (GHZ):          78.1335188          12.0678093          10.4532874
 Basis read from chk: "hcooh.chk" (5D, 7F)
 There are    94 symmetry adapted cartesian basis functions of A'  symmetry.
 There are    41 symmetry adapted cartesian basis functions of A"  symmetry.
 There are    80 symmetry adapted basis functions of A'  symmetry.
 There are    38 symmetry adapted basis functions of A"  symmetry.
   118 basis functions,   189 primitive gaussians,   135 cartesian basis functions
    12 alpha electrons       12 beta electrons
       nuclear repulsion energy        70.2789624891 Hartrees.
 NAtoms=    5 NActive=    5 NUniq=    5 SFac= 1.00D+00 NAtFMM=   60 NAOKFM=F Big=F
 Integral buffers will be    131072 words long.
 Raffenetti 2 integral format.
 Two-electron integral symmetry is turned on.
 One-electron integrals computed using PRISM.
 NBasis=   118 RedAO= T EigKep=  1.68D-03  NBF=    80    38
 NBsUse=   118 1.00D-06 EigRej= -1.00D+00 NBFU=    80    38
 Initial guess from the checkpoint file:  "hcooh.chk"
 B after Tr=    -0.000000   -0.000000    0.000000
         Rot=    1.000000   -0.000000    0.000000    0.000000 Ang=   0.00 deg.
 Initial guess orbital symmetries:
       Occupied  (A') (A') (A') (A') (A') (A') (A') (A') (A") (A')
                 (A") (A')
       Virtual   (A") (A') (A') (A') (A') (A") (A') (A') (A') (A')
                 (A') (A") (A') (A") (A') (A') (A') (A') (A') (A")
                 (A") (A') (A') (A") (A') (A') (A") (A') (A") (A')
                 (A') (A') (A') (A") (A') (A") (A') (A') (A") (A')
                 (A') (A') (A") (A') (A") (A') (A") (A') (A') (A')
                 (A') (A") (A") (A') (A') (A') (A") (A') (A") (A')
                 (A") (A') (A') (A") (A') (A") (A') (A") (A') (A")
                 (A') (A') (A") (A') (A") (A') (A') (A") (A') (A")
                 (A') (A') (A') (A") (A') (A') (A') (A") (A') (A")
                 (A') (A") (A") (A') (A') (A") (A') (A') (A") (A')
                 (A") (A') (A') (A') (A') (A')
 Keep R1 ints in memory in symmetry-blocked form, NReq=37215875.
 Requested convergence on RMS density matrix=1.00D-08 within 128 cycles.
 Requested convergence on MAX density matrix=1.00D-06.
 Requested convergence on             energy=1.00D-06.
 No special actions if energy rises.
 SCF Done:  E(RB3LYP) =  -189.849355020     A.U. after    1 cycles
            NFock=  1  Conv=0.29D-08     -V/T= 2.0030
 DoSCS=F DFT=T ScalE2(SS,OS)=  1.000000  1.000000
 Range of M.O.s used for correlation:     1   118
 NBasis=   118 NAE=    12 NBE=    12 NFC=     0 NFV=     0
 NROrb=    118 NOA=    12 NOB=    12 NVA=   106 NVB=   106
 Symmetrizing basis deriv contribution to polar:
 IMax=3 JMax=2 DiffMx= 0.00D+00
 G2DrvN: will do     6 centers at a time, making    1 passes.
 Calling FoFCou, ICntrl=  3107 FMM=F I1Cent=   0 AccDes= 0.00D+00.
 End of G2Drv F.D. properties file   721 does not exist.
 End of G2Drv F.D. properties file   722 does not exist.
 End of G2Drv F.D. properties file   788 does not exist.
          IDoAtm=11111
          Differentiating once with respect to electric field.
                with respect to dipole field.
          Differentiating once with respect to nuclear coordinates.
 Keep R1 ints in memory in symmetry-blocked form, NReq=37219105.
          There are    18 degrees of freedom in the 1st order CPHF.  IDoFFX=6 NUNeed=     3.
     15 vectors produced by pass  0 Test12= 7.07D-15 5.56D-09 XBig12= 2.18D+01 3.50D+00.
 AX will form    15 AO Fock derivatives at one time.
     15 vectors produced by pass  1 Test12= 7.07D-15 5.56D-09 XBig12= 9.39D+00 9.59D-01.
     15 vectors produced by pass  2 Test12= 7.07D-15 5.56D-09 XBig12= 1.54D-01 8.17D-02.
     15 vectors produced by pass  3 Test12= 7.07D-15 5.56D-09 XBig12= 1.14D-03 8.09D-03.
     15 vectors produced by pass  4 Test12= 7.07D-15 5.56D-09 XBig12= 4.22D-06 6.90D-04.
     14 vectors produced by pass  5 Test12= 7.07D-15 5.56D-09 XBig12= 1.09D-08 2.56D-05.
      4 vectors produced by pass  6 Test12= 7.07D-15 5.56D-09 XBig12= 1.31D-11 9.72D-07.
      1 vectors produced by pass  7 Test12= 7.07D-15 5.56D-09 XBig12= 1.06D-14 2.66D-08.
 InvSVY:  IOpt=1 It=  1 EMax= 1.44D-15
 Solved reduced A of dimension    94 with    15 vectors.
 Isotropic polarizability for W=    0.000000       20.38 Bohr**3.
 End of Minotr F.D. properties file   721 does not exist.
 End of Minotr F.D. properties file   722 does not exist.
 End of Minotr F.D. properties file   788 does not exist.

 **********************************************************************

            Population analysis using the SCF Density.

 **********************************************************************

 Orbital symmetries:
       Occupied  (A') (A') (A') (A') (A') (A') (A') (A') (A") (A')
                 (A") (A')
       Virtual   (A") (A') (A') (A') (A') (A") (A') (A') (A') (A')
                 (A') (A") (A') (A") (A') (A') (A') (A') (A') (A")
                 (A") (A') (A') (A") (A') (A') (A") (A') (A") (A')
                 (A') (A') (A') (A") (A') (A") (A') (A') (A") (A')
                 (A') (A') (A") (A') (A") (A') (A") (A') (A') (A')
                 (A') (A") (A") (A') (A') (A') (A") (A') (A") (A')
                 (A") (A') (A') (A") (A') (A") (A') (A") (A') (A")
                 (A') (A') (A") (A') (A") (A') (A') (A") (A') (A")
                 (A') (A') (A') (A") (A') (A') (A') (A") (A') (A")
                 (A') (A") (A") (A') (A') (A") (A') (A') (A") (A')
                 (A") (A') (A') (A') (A') (A')
 The electronic state is 1-A'.
 Alpha  occ. eigenvalues --  -19.19334 -19.13647 -10.32203  -1.12985  -1.04463
 Alpha  occ. eigenvalues --   -0.68085  -0.53640  -0.50487  -0.46671  -0.42331
 Alpha  occ. eigenvalues --   -0.35000  -0.30825
 Alpha virt. eigenvalues --   -0.02125   0.00828   0.03731   0.11264   0.14332
 Alpha virt. eigenvalues --    0.15318   0.21805   0.28646   0.29736   0.31350
 Alpha virt. eigenvalues --    0.35125   0.36512   0.39369   0.42603   0.43934
 Alpha virt. eigenvalues --    0.47760   0.50403   0.67611   0.72197   0.74295
 Alpha virt. eigenvalues --    0.78154   0.86053   0.94019   1.00271   1.00431
 Alpha virt. eigenvalues --    1.08859   1.17736   1.19826   1.24356   1.27623
 Alpha virt. eigenvalues --    1.33661   1.47276   1.54829   1.56673   1.63687
 Alpha virt. eigenvalues --    1.74555   1.75590   1.80816   1.90181   1.90798
 Alpha virt. eigenvalues --    1.98333   2.02470   2.03299   2.23861   2.32622
 Alpha virt. eigenvalues --    2.39035   2.44126   2.45330   2.67429   2.88936
 Alpha virt. eigenvalues --    2.98471   3.15947   3.26594   3.28076   3.44166
 Alpha virt. eigenvalues --    3.49293   3.57019   3.57902   3.64524   3.64560
 Alpha virt. eigenvalues --    3.71892   3.81204   3.90025   3.94070   3.94209
 Alpha virt. eigenvalues --    3.97758   4.04740   4.04877   4.05105   4.14824
 Alpha virt. eigenvalues --    4.21995   4.26744   4.29668   4.31203   4.44765
 Alpha virt. eigenvalues --    4.50078   4.60509   4.60635   4.61450   4.75373
 Alpha virt. eigenvalues --    4.76122   4.81383   4.89990   5.03767   5.05844
 Alpha virt. eigenvalues --    5.34165   5.38559   5.47865   5.58164   5.65536
 Alpha virt. eigenvalues --    5.79680   6.03003   6.09393   6.13256   6.17722
 Alpha virt. eigenvalues --    6.18031   6.27096   6.40978   6.42508   6.47342
 Alpha virt. eigenvalues --    6.50770   6.76075   6.94669   6.98860   7.31052
 Alpha virt. eigenvalues --    7.49245
          Condensed to atoms (all electrons):
               1          2          3          4          5
     1  C    4.219557   0.303962   0.602488   0.420081  -0.010877
     2  O    0.303962   7.901190  -0.106025  -0.082899   0.307242
     3  O    0.602488  -0.106025   7.946367  -0.059149   0.011628
     4  H    0.420081  -0.082899  -0.059149   0.672647   0.012017
     5  H   -0.010877   0.307242   0.011628   0.012017   0.463306
 Mulliken charges:
               1
     1  C    0.464789
     2  O   -0.323469
     3  O   -0.395309
     4  H    0.037304
     5  H    0.216685
 Sum of Mulliken charges =  -0.00000
 Mulliken charges with hydrogens summed into heavy atoms:
               1
     1  C    0.502094
     2  O   -0.106785
     3  O   -0.395309
 APT charges:
               1
     1  C    1.102676
     2  O   -0.683442
     3  O   -0.715307
     4  H    0.009312
     5  H    0.286761
 Sum of APT charges =  -0.00000
 APT charges with hydrogens summed into heavy atoms:
               1
     1  C    1.111988
     2  O   -0.396681
     3  O   -0.715307
 Electronic spatial extent (au):  <R**2>=            133.3520
 Charge=             -0.0000 electrons
 Dipole moment (field-independent basis, Debye):
    X=             -1.5114    Y=             -0.2961    Z=              0.0000  Tot=              1.5401
 Quadrupole moment (field-independent basis, Debye-Ang):
   XX=            -22.4618   YY=            -12.9164   ZZ=            -17.1084
   XY=             -0.0834   XZ=              0.0000   YZ=             -0.0000
 Traceless Quadrupole moment (field-independent basis, Debye-Ang):
   XX=             -4.9662   YY=              4.5791   ZZ=              0.3872
   XY=             -0.0834   XZ=              0.0000   YZ=             -0.0000
 Octapole moment (field-independent basis, Debye-Ang**2):
  XXX=             -1.4214  YYY=             -4.8271  ZZZ=              0.0000  XYY=             -3.1552
  XXY=             -0.7996  XXZ=              0.0000  XZZ=              0.1491  YZZ=             -0.4101
  YYZ=              0.0000  XYZ=              0.0000
 Hexadecapole moment (field-independent basis, Debye-Ang**3):
 XXXX=           -108.0494 YYYY=            -30.8037 ZZZZ=            -14.9696 XXXY=            -11.5818
 XXXZ=              0.0000 YYYX=             -7.4149 YYYZ=              0.0000 ZZZX=              0.0000
 ZZZY=              0.0000 XXYY=            -22.6455 XXZZ=            -19.5622 YYZZ=             -9.5640
 XXYZ=              0.0000 YYXZ=              0.0000 ZZXY=             -3.4842
 N-N= 7.027896248912D+01 E-N=-5.877821888367D+02  KE= 1.892835552393D+02
 Symmetry A'   KE= 1.808955315322D+02
 Symmetry A"   KE= 8.388023707054D+00
  Exact polarizability:  25.601   0.456  21.987  -0.000   0.000  13.567
 Approx polarizability:  39.842  -0.112  28.176  -0.000   0.000  17.990
 Calling FoFJK, ICntrl=    100127 FMM=F ISym2X=1 I1Cent= 0 IOpClX= 0 NMat=1 NMatS=1 NMatT=0.
 Full mass-weighted force constant matrix:
 Low frequencies ---  -24.1584   -4.6875    0.0005    0.0014    0.0015    9.7006
 Low frequencies ---  629.2855  679.2287 1053.7303
 Diagonal vibrational polarizability:
        6.6464365       5.5287457       8.6163313
 Harmonic frequencies (cm**-1), IR intensities (KM/Mole), Raman scattering
 activities (A**4/AMU), depolarization ratios for plane and unpolarized
 incident light, reduced masses (AMU), force constants (mDyne/A),
 and normal coordinates:
                      1                      2                      3
                     A'                     A"                     A"
 Frequencies --    629.2855               679.2287              1053.7302
 Red. masses --      3.4429                 1.2537                 1.5822
 Frc consts  --      0.8033                 0.3408                 1.0350
 IR Inten    --     43.6980               147.0496                 1.5987
  Atom  AN      X      Y      Z        X      Y      Z        X      Y      Z
     1   6    -0.09   0.21  -0.00    -0.00   0.00   0.09    -0.00  -0.00  -0.21
     2   8     0.22  -0.01   0.00     0.00  -0.00  -0.09     0.00   0.00   0.04
     3   8    -0.20  -0.18   0.00    -0.00  -0.00  -0.04    -0.00  -0.00   0.06
     4   1     0.01   0.25  -0.00    -0.00   0.00   0.20    -0.00  -0.00   0.97
     5   1     0.84   0.24  -0.00     0.00   0.00   0.97    -0.00  -0.00   0.13
                      4                      5                      6
                     A'                     A'                     A'
 Frequencies --   1121.4470              1298.6905              1404.5586
 Red. masses --      3.4591                 1.7342                 1.1322
 Frc consts  --      2.5631                 1.7233                 1.3159
 IR Inten    --    266.0604                 9.9157                 2.3108
  Atom  AN      X      Y      Z        X      Y      Z        X      Y      Z
     1   6    -0.12  -0.23   0.00    -0.09  -0.21  -0.00    -0.01  -0.03  -0.00
     2   8     0.27   0.18  -0.00    -0.03   0.09  -0.00     0.03  -0.03   0.00
     3   8    -0.11   0.02  -0.00     0.03   0.05   0.00    -0.06   0.04   0.00
     4   1    -0.39  -0.32  -0.00     0.28  -0.08   0.00     0.91   0.30  -0.00
     5   1    -0.72  -0.20   0.00     0.83   0.40   0.00    -0.24  -0.13  -0.00
                      7                      8                      9
                     A'                     A'                     A'
 Frequencies --   1815.2517              3054.1622              3728.7079
 Red. masses --      8.2432                 1.0913                 1.0638
 Frc consts  --     16.0037                 5.9979                 8.7142
 IR Inten    --    377.4903                42.5685                60.3906
  Atom  AN      X      Y      Z        X      Y      Z        X      Y      Z
     1   6     0.62  -0.14   0.00     0.03  -0.08   0.00     0.00  -0.00   0.00
     2   8    -0.06   0.01   0.00    -0.00   0.00  -0.00     0.02  -0.06  -0.00
     3   8    -0.42   0.11   0.00    -0.00   0.00  -0.00     0.00   0.00  -0.00
     4   1    -0.17  -0.49  -0.00    -0.33   0.94  -0.00    -0.01   0.02  -0.00
     5   1     0.34   0.16  -0.00     0.02  -0.02   0.00    -0.35   0.93   0.00

 -------------------
 - Thermochemistry -
 -------------------
 Temperature   298.150 Kelvin.  Pressure   1.00000 Atm.
 Atom     1 has atomic number  6 and mass  12.00000
 Atom     2 has atomic number  8 and mass  15.99491
 Atom     3 has atomic number  8 and mass  15.99491
 Atom     4 has atomic number  1 and mass   1.00783
 Atom     5 has atomic number  1 and mass   1.00783
 Molecular mass:    46.00548 amu.
 Principal axes and moments of inertia in atomic units:
                           1         2         3
     Eigenvalues --    23.09817 149.55003 172.64819
           X            0.95661  -0.29136   0.00000
           Y            0.29136   0.95661   0.00000
           Z           -0.00000   0.00000   1.00000
 This molecule is an asymmetric top.
 Rotational symmetry number  1.
 Rotational temperatures (Kelvin)      3.74982     0.57916     0.50168
 Rotational constants (GHZ):          78.13352    12.06781    10.45329
 Zero-point vibrational energy      88434.3 (Joules/Mol)
                                   21.13631 (Kcal/Mol)
 Vibrational temperatures:    905.40   977.26  1516.08  1613.51  1868.53
          (Kelvin)           2020.85  2611.74  4394.26  5364.78
 
 Zero-point correction=                           0.033683 (Hartree/Particle)
 Thermal correction to Energy=                    0.036854
 Thermal correction to Enthalpy=                  0.037798
 Thermal correction to Gibbs Free Energy=         0.009606
 Sum of electronic and zero-point Energies=           -189.815672
 Sum of electronic and thermal Energies=              -189.812501
 Sum of electronic and thermal Enthalpies=            -189.811557
 Sum of electronic and thermal Free Energies=         -189.839749
 
                     E (Thermal)             CV                S
                      KCal/Mol        Cal/Mol-Kelvin    Cal/Mol-Kelvin
 Total                   23.126              8.663             59.334
 Electronic               0.000              0.000              0.000
 Translational            0.889              2.981             37.404
 Rotational               0.889              2.981             21.016
 Vibrational             21.349              2.701              0.914
                       Q            Log10(Q)             Ln(Q)
 Total Bot       0.381362D-04         -4.418663        -10.174348
 Total V=0       0.118675D+12         11.074359         25.499654
 Vib (Bot)       0.355680D-15        -15.448940        -35.572499
 Vib (V=0)       0.110683D+01          0.044082          0.101503
 Electronic      0.100000D+01          0.000000          0.000000
 Translational   0.122650D+08          7.088668         16.322262
 Rotational      0.874196D+04          3.941609          9.075889
 ***** Axes restored to original set *****
 -------------------------------------------------------------------
 Center     Atomic                   Forces (Hartrees/Bohr)
 Number     Number              X              Y              Z
 -------------------------------------------------------------------
      1        6          -0.000294034   -0.000140124   -0.000000000
      2        8           0.000203638    0.000147820    0.000000000
      3        8           0.000141684   -0.000087350    0.000000000
      4        1          -0.000050233    0.000133718   -0.000000000
      5        1          -0.000001054   -0.000054063   -0.000000000
 -------------------------------------------------------------------
 Cartesian Forces:  Max     0.000294034 RMS     0.000121228
 FormGI is forming the generalized inverse of G from B-inverse, IUseBI=4.

 GradGradGradGradGradGradGradGradGradGradGradGradGradGradGradGradGradGrad
 Berny optimization.
 Internal  Forces:  Max     0.000215212 RMS     0.000097322
 Search for a local minimum.
 Step number   1 out of a maximum of    2
 All quantities printed in internal units (Hartrees-Bohrs-Radians)
 Second derivative matrix not updated -- analytic derivatives used.
 The second derivative matrix:
                          R1        R2        R3        R4        A1
           R1           0.39855
           R2           0.09123   0.87936
           R3           0.01499   0.02580   0.33023
           R4           0.01294  -0.00523  -0.00128   0.50044
           A1           0.01446   0.03504  -0.01423  -0.01154   0.18073
           A2           0.02180  -0.04405   0.01221   0.00874  -0.09351
           A3          -0.03626   0.00901   0.00201   0.00280  -0.08722
           A4           0.03364   0.00380   0.00365   0.02775  -0.03130
           D1           0.00000  -0.00000   0.00000   0.00000  -0.00000
           D2          -0.00000  -0.00000  -0.00000   0.00000   0.00000
           D3          -0.00000   0.00000   0.00000   0.00000   0.00000
                          A2        A3        A4        D1        D2
           A2           0.12179
           A3          -0.02828   0.11550
           A4           0.02661   0.00469   0.16866
           D1           0.00000   0.00000   0.00000   0.01711
           D2           0.00000  -0.00000  -0.00000   0.00392   0.01696
           D3          -0.00000   0.00000  -0.00000  -0.01520   0.01503
                          D3
           D3           0.03484
 ITU=  0
     Eigenvalues ---    0.02096   0.04796   0.13282   0.15193   0.27252
     Eigenvalues ---    0.33425   0.39537   0.50648   0.90187
 Angle between quadratic step and forces=  19.63 degrees.
 Linear search not attempted -- first point.
 Iteration  1 RMS(Cart)=  0.00023946 RMS(Int)=  0.00000001
 Iteration  2 RMS(Cart)=  0.00000001 RMS(Int)=  0.00000000
 ClnCor:  largest displacement from symmetrization is 4.45D-15 for atom     1.
 Variable       Old X    -DE/DX   Delta X   Delta X   Delta X     New X
                                 (Linear)    (Quad)   (Total)
    R1        2.54098  -0.00022   0.00000  -0.00065  -0.00065   2.54033
    R2        2.26103   0.00016   0.00000   0.00026   0.00026   2.26128
    R3        2.07065   0.00014   0.00000   0.00042   0.00042   2.07107
    R4        1.83146   0.00005   0.00000   0.00010   0.00010   1.83156
    A1        2.18450  -0.00007   0.00000  -0.00021  -0.00021   2.18429
    A2        1.91352   0.00004   0.00000   0.00024   0.00024   1.91375
    A3        2.18517   0.00004   0.00000  -0.00003  -0.00003   2.18514
    A4        1.88328   0.00004   0.00000   0.00026   0.00026   1.88353
    D1       -0.00000  -0.00000   0.00000   0.00000   0.00000   0.00000
    D2        3.14159  -0.00000   0.00000   0.00000   0.00000   3.14159
    D3        3.14159   0.00000   0.00000   0.00000   0.00000   3.14159
         Item               Value     Threshold  Converged?
 Maximum Force            0.000215     0.000450     YES
 RMS     Force            0.000097     0.000300     YES
 Maximum Displacement     0.000408     0.001800     YES
 RMS     Displacement     0.000239     0.001200     YES
 Predicted change in Energy=-1.391789D-07
 Optimization completed.
    -- Stationary point found.
                           ----------------------------
                           !   Optimized Parameters   !
                           ! (Angstroms and Degrees)  !
 --------------------------                            --------------------------
 ! Name  Definition              Value          Derivative Info.                !
 --------------------------------------------------------------------------------
 ! R1    R(1,2)                  1.3446         -DE/DX =   -0.0002              !
 ! R2    R(1,3)                  1.1965         -DE/DX =    0.0002              !
 ! R3    R(1,4)                  1.0957         -DE/DX =    0.0001              !
 ! R4    R(2,5)                  0.9692         -DE/DX =    0.0                 !
 ! A1    A(2,1,3)              125.1624         -DE/DX =   -0.0001              !
 ! A2    A(2,1,4)              109.6365         -DE/DX =    0.0                 !
 ! A3    A(3,1,4)              125.2011         -DE/DX =    0.0                 !
 ! A4    A(1,2,5)              107.9038         -DE/DX =    0.0                 !
 ! D1    D(3,1,2,5)              0.0            -DE/DX =    0.0                 !
 ! D2    D(4,1,2,5)            180.0            -DE/DX =    0.0                 !
 ! D3    D(2,1,3,4)            180.0            -DE/DX =    0.0                 !
 --------------------------------------------------------------------------------
 GradGradGradGradGradGradGradGradGradGradGradGradGradGradGradGradGradGrad


 ----------------------------------------------------------------------

 Electric dipole moment (input orientation):
 (Debye = 10**-18 statcoulomb cm , SI units = C m)
                  (au)            (Debye)         (10**-30 SI)
   Tot        0.605940D+00      0.154014D+01      0.513737D+01
   x         -0.594635D+00     -0.151141D+01     -0.504153D+01
   y         -0.116498D+00     -0.296109D+00     -0.987714D+00
   z          0.000000D+00      0.000000D+00      0.000000D+00

 Dipole polarizability, Alpha (input orientation).
 (esu units = cm**3 , SI units = C**2 m**2 J**-1)
 Alpha(0;0):
               (au)            (10**-24 esu)      (10**-40 SI)
   iso        0.203847D+02      0.302070D+01      0.336098D+01
   aniso      0.107240D+02      0.158913D+01      0.176815D+01
   xx         0.256006D+02      0.379362D+01      0.422097D+01
   yx         0.456307D+00      0.676177D-01      0.752349D-01
   yy         0.219865D+02      0.325807D+01      0.362509D+01
   zx         0.000000D+00      0.000000D+00      0.000000D+00
   zy         0.000000D+00      0.000000D+00      0.000000D+00
   zz         0.135670D+02      0.201042D+01      0.223689D+01

 ----------------------------------------------------------------------

 Dipole orientation:
     6         -0.15005567          0.76591943         -0.15290835
     8          0.08761131         -0.44718874          2.06710177
     8          0.03864457         -0.19725096         -2.18980478
     1         -0.54272988          2.77022091          0.18791799
     1          0.43301587         -2.21021481          1.71116288

 Electric dipole moment (dipole orientation):
 (Debye = 10**-18 statcoulomb cm , SI units = C m)
                  (au)            (Debye)         (10**-30 SI)
   Tot        0.605940D+00      0.154014D+01      0.513737D+01
   x          0.000000D+00      0.000000D+00      0.000000D+00
   y          0.000000D+00      0.000000D+00      0.000000D+00
   z          0.605940D+00      0.154014D+01      0.513737D+01

 Dipole polarizability, Alpha (dipole orientation).
 (esu units = cm**3 , SI units = C**2 m**2 J**-1)
 Alpha(0;0):
               (au)            (10**-24 esu)      (10**-40 SI)
   iso        0.203847D+02      0.302070D+01      0.336098D+01
   aniso      0.107240D+02      0.158913D+01      0.176815D+01
   xx         0.138768D+02      0.205633D+01      0.228797D+01
   yx        -0.158127D+01     -0.234319D+00     -0.260715D+00
   yy         0.216381D+02      0.320644D+01      0.356765D+01
   zx        -0.498561D-01     -0.738791D-02     -0.822015D-02
   zy         0.254477D+00      0.377096D-01      0.419576D-01
   zz         0.256392D+02      0.379934D+01      0.422734D+01

 ----------------------------------------------------------------------
 1\1\GINC-GAMBA\Freq\RB3LYP\Gen\C1H2O2\IRIKURA\28-Sep-2023\0\\#N Geom=A
 llCheck Guess=TCheck SCRF=Check GenChk RB3LYP/ChkBas Freq\\formic acid
 , B3LYP/pcseg-2\\0,1\C,0.,0.420864,0.\O,-1.027094,-0.446949,0.\O,1.157
 626,0.11841,0.\H,-0.384787,1.446819,0.\H,-0.659473,-1.343689,0.\\Versi
 on=ES64L-G16RevB.01\State=1-A'\HF=-189.849355\RMSD=2.887e-09\RMSF=1.21
 2e-04\ZeroPoint=0.0336829\Thermal=0.0368539\Dipole=-0.5946351,-0.11649
 84,0.\DipoleDeriv=1.9151545,0.3229264,0.,0.3072399,1.0984173,0.,0.,0.,
 0.2944554,-0.939844,-0.3739699,0.,-0.6461328,-0.7346665,0.,0.,0.,-0.37
 58148,-1.2241134,-0.1154041,0.,0.2147559,-0.5494807,0.,0.,0.,-0.372327
 7,0.0137464,0.0785799,0.,0.0598911,-0.0933733,0.,0.,0.,0.1075643,0.235
 0565,0.0878677,0.,0.0642459,0.2791032,0.,0.,0.,0.3461228\Polar=25.6006
 249,0.4563071,21.9865162,0.,0.,13.5669768\Quadrupole=-3.6922831,3.4044
 409,0.2878422,-0.0619788,0.,0.\PG=CS [SG(C1H2O2)]\NImag=0\\0.95204349,
 -0.17048877,0.70841986,0.,0.,0.19181123,-0.18834867,-0.06286598,0.,0.4
 0139977,-0.08629928,-0.21536126,0.,-0.03516195,0.61886051,0.,0.,-0.061
 06243,0.,0.,0.04036298,-0.70954925,0.19329262,0.,-0.09838415,-0.032555
 96,0.,0.83467269,0.17940157,-0.17896751,0.,-0.04069889,0.03479688,0.,-
 0.18254679,0.13668700,0.,0.,-0.07223662,0.,0.,0.02866139,0.,0.,0.02873
 419,-0.07488202,0.07956058,0.,0.00493287,-0.02991395,0.,-0.02438851,0.
 03740129,0.,0.09750993,0.07019362,-0.26785871,0.,0.00026505,-0.0316737
 9,0.,0.01557700,-0.00036083,0.,-0.08235998,0.30119087,0.,0.,-0.0637905
 9,0.,0.,0.01059871,0.,0.,0.02142897,0.,0.,0.02567750,0.02073646,-0.039
 49845,0.,-0.11959983,0.18393114,0.,-0.00235078,0.00644283,0.,-0.003172
 27,-0.00367569,0.,0.10438642,0.00719285,-0.04623238,0.,0.13846178,-0.4
 0662234,0.,0.00623314,0.00784445,0.,-0.00468794,-0.00129754,0.,-0.1471
 9983,0.44630780,0.,0.,0.00527840,0.,0.,-0.01856066,0.,0.,-0.00658793,0
 .,0.,0.00608541,0.,0.,0.01378478\\0.00029403,0.00014012,0.,-0.00020364
 ,-0.00014782,0.,-0.00014168,0.00008735,0.,0.00005023,-0.00013372,0.,0.
 00000105,0.00005406,0.\\\@


 ABOVE ALL I AM AN OPTIMIST FOR NUMBER THEORY,
 AND I HOLD THE HOPE THAT WE MAY NOT BE FAR FROM
 A TIME WHEN IRREFUTABLE ARITHMETIC WILL CELEBRATE
 ITS TRIUMPHS IN PHYSICS AND CHEMISTRY.
   -- HERMANN MINKOWSKI, 1905
 Job cpu time:       0 days  0 hours  3 minutes  9.9 seconds.
 Elapsed time:       0 days  0 hours  0 minutes 47.5 seconds.
 File lengths (MBytes):  RWF=     11 Int=      0 D2E=      0 Chk=      2 Scr=      1
 Normal termination of Gaussian 16 at Thu Sep 28 22:14:36 2023.
 AtFile(1): ccpvtz-f12.gbs
            -H     0
            S    3   1.00
                 82.6400000              0.0020060
                 12.4100000              0.0153430
                  2.8240000              0.0755790
            S    1   1.00
                  0.7977000              1.0000000
            S    1   1.00
                  0.2581000              1.0000000
            S    1   1.00
                  0.0898900              1.0000000
            P    1   1.00
                  1.5513000              1.0000000
            P    1   1.00
                  0.5580000              1.0000000
            P    1   1.00
                  0.2007000              1.0000000
            D    1   1.00
                  0.4648000              1.0000000
            ****
            -He     0
            S    4   1.00
                528.5000000              0.0009400
                 79.3100000              0.0072140
                 18.0500000              0.0359750
                  5.0850000              0.1277820
            S    1   1.00
                  1.6090000              1.0000000
            S    1   1.00
                  0.5363000              1.0000000
            S    1   1.00
                  0.1833000              1.0000000
            S    1   1.00
                  0.0481900              1.0000000
            P    1   1.00
                  3.7026000              1.0000000
            P    1   1.00
                  1.2284000              1.0000000
            P    1   1.00
                  0.4075000              1.0000000
            D    1   1.00
                  0.6525000              1.0000000
            ****
            -Li     0
            S    9   1.00
               6601.0000000              0.0001170
                989.7000000              0.0009110
                225.7000000              0.0047280
                 64.2900000              0.0191970
                 21.1800000              0.0630470
                  7.7240000              0.1632080
                  3.0030000              0.3148270
                  1.2120000              0.3939360
                  0.4930000              0.1969180
            S    9   1.00
               6601.0000000             -0.0000180
                989.7000000             -0.0001420
                225.7000000             -0.0007410
                 64.2900000             -0.0030200
                 21.1800000             -0.0101230
                  7.7240000             -0.0270940
                  3.0030000             -0.0573590
                  1.2120000             -0.0938950
                  0.4930000             -0.1210910
            S    1   1.00
                  0.0951500              1.0000000
            S    1   1.00
                  0.0479100              1.0000000
            S    1   1.00
                  0.0222000              1.0000000
            S    1   1.00
                  0.0064000              1.0000000
            P    2   1.00
                  6.2500000              0.0033880
                  1.3700000              0.0193160
            P    1   1.00
                  0.3672000              1.0000000
            P    1   1.00
                  0.1192000              1.0000000
            P    1   1.00
                  0.0447400              1.0000000
            P    1   1.00
                  0.0179500              1.0000000
            P    1   1.00
                  0.0075000              1.0000000
            D    1   1.00
                  0.2351180              1.0000000
            D    1   1.00
                  0.1194040              1.0000000
            D    1   1.00
                  0.0606390              1.0000000
            F    1   1.00
                  0.1637750              1.0000000
            F    1   1.00
                  0.0759100              1.0000000
            ****
            -Be     0
            S    9   1.00
              14630.0000000              0.0000920
               2191.0000000              0.0007130
                498.2000000              0.0037350
                140.9000000              0.0154680
                 45.8600000              0.0528740
                 16.4700000              0.1456940
                  6.3190000              0.3026810
                  2.5350000              0.4049360
                  1.0350000              0.2223870
            S    9   1.00
              14630.0000000             -0.0000170
               2191.0000000             -0.0001300
                498.2000000             -0.0006790
                140.9000000             -0.0028570
                 45.8600000             -0.0098130
                 16.4700000             -0.0286090
                  6.3190000             -0.0637600
                  2.5350000             -0.1172310
                  1.0350000             -0.1212020
            S    1   1.00
                  0.2528000              1.0000000
            S    1   1.00
                  0.1052000              1.0000000
            S    1   1.00
                  0.0426100              1.0000000
            S    1   1.00
                  0.0141000              1.0000000
            P    2   1.00
                 14.0300000              0.0040990
                  3.1680000              0.0256260
            P    1   1.00
                  0.9024000              1.0000000
            P    1   1.00
                  0.3036000              1.0000000
            P    1   1.00
                  0.1130000              1.0000000
            P    1   1.00
[...]
 G. Zheng, W. Liang, M. Hada, M. Ehara, K. Toyota, R. Fukuda, 
 J. Hasegawa, M. Ishida, T. Nakajima, Y. Honda, O. Kitao, H. Nakai, 
 T. Vreven, K. Throssell, J. A. Montgomery, Jr., J. E. Peralta, 
 F. Ogliaro, M. J. Bearpark, J. J. Heyd, E. N. Brothers, K. N. Kudin, 
 V. N. Staroverov, T. A. Keith, R. Kobayashi, J. Normand, 
 K. Raghavachari, A. P. Rendell, J. C. Burant, S. S. Iyengar, 
 J. Tomasi, M. Cossi, J. M. Millam, M. Klene, C. Adamo, R. Cammi, 
 J. W. Ochterski, R. L. Martin, K. Morokuma, O. Farkas, 
 J. B. Foresman, and D. J. Fox, Gaussian, Inc., Wallingford CT, 2016.
 
 ******************************************
 Gaussian 16:  ES64L-G16RevB.01 20-Dec-2017
                28-Sep-2023 
 ******************************************
 %chk=hcooh.chk
 %mem=500mw
 %nprocs=4
 Will use up to    4 processors via shared memory.
 ---------------------------------
 # rohf/gen geom=check guess=check
 ---------------------------------
 1/29=2,38=1,172=1/1;
 2/12=2,40=1/2;
 3/5=7,11=2,14=-4,25=1,30=1,116=101/1,2,3;
 4/5=1/1;
 5/5=2,38=6/2;
 6/7=2,8=2,9=2,10=2,28=1/1;
 99/5=1,9=1/99;
 -----------------------------
 formic acid, ROHF/cc-pVTZ-F12
 -----------------------------
 Structure from the checkpoint file:  "hcooh.chk"
 Charge =  0 Multiplicity = 1
 Redundant internal coordinates found in file.  (old form).
 C,0,0.,0.420864,0.
 O,0,-1.027094,-0.446949,0.
 O,0,1.157626,0.11841,0.
 H,0,-0.384787,1.446819,0.
 H,0,-0.659473,-1.343689,0.
 Recover connectivity data from disk.
                           ----------------------------
                           !    Current Parameters    !
                           ! (Angstroms and Degrees)  !
 --------------------------                            --------------------------
 ! Name  Definition              Value                                          !
 --------------------------------------------------------------------------------
 ! R1    R(1,2)                  1.3446                                         !
 ! R2    R(1,3)                  1.1965                                         !
 ! R3    R(1,4)                  1.0957                                         !
 ! R4    R(2,5)                  0.9692                                         !
 ! A1    A(2,1,3)              125.1624                                         !
 ! A2    A(2,1,4)              109.6365                                         !
 ! A3    A(3,1,4)              125.2011                                         !
 ! A4    A(1,2,5)              107.9038                                         !
 ! D1    D(3,1,2,5)              0.0                                            !
 ! D2    D(4,1,2,5)            180.0                                            !
 ! D3    D(2,1,3,4)            180.0                                            !
 --------------------------------------------------------------------------------
                          Input orientation:                          
 ---------------------------------------------------------------------
 Center     Atomic      Atomic             Coordinates (Angstroms)
 Number     Number       Type             X           Y           Z
 ---------------------------------------------------------------------
      1          6           0       -0.000000    0.420864    0.000000
      2          8           0       -1.027094   -0.446949   -0.000000
      3          8           0        1.157626    0.118410    0.000000
      4          1           0       -0.384787    1.446819   -0.000000
      5          1           0       -0.659473   -1.343689   -0.000000
 ---------------------------------------------------------------------
                    Distance matrix (angstroms):
                    1          2          3          4          5
     1  C    0.000000
     2  O    1.344627   0.000000
     3  O    1.196485   2.256686   0.000000
     4  H    1.095739   1.999729   2.035610   0.000000
     5  H    1.883760   0.969169   2.332291   2.803995   0.000000
 Stoichiometry    CH2O2
 Framework group  CS[SG(CH2O2)]
 Deg. of freedom     7
 Full point group                 CS      NOp   2
 Largest Abelian subgroup         CS      NOp   2
 Largest concise Abelian subgroup C1      NOp   1
                         Standard orientation:                         
 ---------------------------------------------------------------------
 Center     Atomic      Atomic             Coordinates (Angstroms)
 Number     Number       Type             X           Y           Z
 ---------------------------------------------------------------------
      1          6           0        0.000000    0.420864    0.000000
      2          8           0       -1.027094   -0.446949    0.000000
      3          8           0        1.157626    0.118410    0.000000
      4          1           0       -0.384787    1.446819    0.000000
      5          1           0       -0.659472   -1.343689    0.000000
 ---------------------------------------------------------------------
 Rotational constants (GHZ):          78.1335188          12.0678093          10.4532874
 General basis read from cards:  (5D, 7F)
 There are   154 symmetry adapted cartesian basis functions of A'  symmetry.
 There are    70 symmetry adapted cartesian basis functions of A"  symmetry.
 There are   131 symmetry adapted basis functions of A'  symmetry.
 There are    64 symmetry adapted basis functions of A"  symmetry.
   195 basis functions,   276 primitive gaussians,   224 cartesian basis functions
    12 alpha electrons       12 beta electrons
       nuclear repulsion energy        70.2789624891 Hartrees.
 NAtoms=    5 NActive=    5 NUniq=    5 SFac= 1.00D+00 NAtFMM=   60 NAOKFM=F Big=F
 Integral buffers will be    131072 words long.
 Raffenetti 2 integral format.
 Two-electron integral symmetry is turned on.
 One-electron integrals computed using PRISM.
 NBasis=   195 RedAO= T EigKep=  1.40D-04  NBF=   131    64
 NBsUse=   195 1.00D-06 EigRej= -1.00D+00 NBFU=   131    64
 Initial guess from the checkpoint file:  "hcooh.chk"
 B after Tr=    -0.000000    0.000000    0.000000
         Rot=    1.000000   -0.000000    0.000000    0.000000 Ang=   0.00 deg.
 Initial guess orbital symmetries:
       Occupied  (A') (A') (A') (A') (A') (A') (A') (A') (A") (A')
                 (A") (A')
       Virtual   (A") (A') (A') (A') (A') (A") (A') (A') (A') (A')
                 (A') (A") (A') (A") (A') (A') (A') (A') (A') (A")
                 (A") (A') (A') (A") (A') (A') (A") (A') (A") (A')
                 (A') (A') (A') (A") (A') (A") (A') (A') (A") (A')
                 (A') (A') (A") (A') (A") (A') (A") (A') (A') (A')
                 (A') (A") (A") (A') (A') (A') (A") (A') (A") (A')
                 (A") (A') (A') (A") (A') (A") (A') (A") (A') (A")
                 (A') (A') (A") (A') (A") (A') (A') (A") (A') (A")
                 (A') (A') (A') (A") (A') (A') (A') (A") (A') (A")
                 (A') (A") (A") (A') (A') (A") (A') (A') (A") (A')
                 (A") (A') (A') (A') (A') (A') (A') (A') (A') (A')
                 (A') (A') (A') (A') (A') (A') (A') (A') (A') (A')
                 (A') (A') (A') (A') (A') (A') (A') (A') (A') (A')
                 (A') (A') (A') (A') (A') (A') (A') (A') (A') (A')
                 (A') (A') (A') (A') (A') (A') (A') (A') (A') (A')
                 (A') (A') (A') (A') (A') (A') (A') (A") (A") (A")
                 (A") (A") (A") (A") (A") (A") (A") (A") (A") (A")
                 (A") (A") (A") (A") (A") (A") (A") (A") (A") (A")
                 (A") (A") (A")
 Keep R1 and R2 ints in memory in symmetry-blocked form, NReq=278078843.
 Requested convergence on RMS density matrix=1.00D-08 within 128 cycles.
 Requested convergence on MAX density matrix=1.00D-06.
 Requested convergence on             energy=1.00D-06.
 No special actions if energy rises.
 SCF Done:  E(ROHF) =  -188.856056973     A.U. after   12 cycles
            NFock= 12  Conv=0.48D-08     -V/T= 2.0013
 <Sx>= 0.0000 <Sy>= 0.0000 <Sz>= 0.0000 <S**2>=-0.0000 S=-0.0000
 <L.S>=  0.00000000000    
 Annihilation of the first spin contaminant:
 S**2 before annihilation    -0.0000,   after     0.0000

 **********************************************************************

            Population analysis using the SCF Density.

 **********************************************************************

 Orbital symmetries:
       Occupied  (A') (A') (A') (A') (A') (A') (A') (A') (A") (A')
                 (A") (A')
       Virtual   (A') (A') (A") (A') (A') (A") (A') (A") (A') (A")
                 (A') (A') (A') (A') (A') (A') (A") (A') (A') (A")
                 (A') (A') (A") (A') (A') (A') (A") (A') (A') (A")
                 (A') (A') (A') (A") (A') (A') (A") (A') (A') (A')
                 (A') (A") (A") (A') (A') (A") (A') (A") (A') (A")
                 (A') (A') (A') (A") (A') (A') (A') (A") (A") (A')
                 (A") (A') (A') (A") (A') (A") (A') (A') (A') (A")
                 (A') (A") (A') (A") (A') (A") (A') (A') (A") (A')
                 (A') (A") (A') (A") (A') (A') (A') (A') (A") (A')
                 (A") (A') (A") (A") (A') (A') (A') (A') (A") (A')
                 (A') (A") (A') (A") (A') (A") (A') (A') (A") (A')
                 (A') (A") (A') (A') (A') (A') (A") (A') (A") (A")
                 (A') (A") (A') (A') (A') (A") (A') (A") (A') (A')
                 (A') (A') (A') (A") (A') (A') (A") (A') (A") (A")
                 (A') (A") (A") (A') (A') (A') (A") (A') (A") (A')
                 (A') (A') (A') (A') (A') (A") (A") (A') (A') (A')
                 (A') (A") (A') (A") (A") (A') (A") (A') (A') (A')
                 (A') (A") (A') (A') (A') (A") (A") (A') (A') (A')
                 (A') (A') (A')
 The electronic state is 1-A'.
 Alpha  occ. eigenvalues --  -20.62574 -20.56543 -11.39562  -1.47789  -1.37981
 Alpha  occ. eigenvalues --   -0.89760  -0.72681  -0.71441  -0.63923  -0.60599
 Alpha  occ. eigenvalues --   -0.49927  -0.47532
 Alpha virt. eigenvalues --    0.05563   0.05623   0.06744   0.07565   0.13928
 Alpha virt. eigenvalues --    0.14871   0.15692   0.17096   0.17756   0.20764
 Alpha virt. eigenvalues --    0.20987   0.21562   0.23664   0.27872   0.28687
 Alpha virt. eigenvalues --    0.39446   0.42787   0.44280   0.45370   0.48274
 Alpha virt. eigenvalues --    0.50076   0.52977   0.53477   0.55339   0.60318
 Alpha virt. eigenvalues --    0.62449   0.69293   0.70180   0.72272   0.74859
 Alpha virt. eigenvalues --    0.75206   0.77400   0.80716   0.83351   0.86803
 Alpha virt. eigenvalues --    0.92236   0.99232   1.04144   1.07445   1.15032
 Alpha virt. eigenvalues --    1.17398   1.26722   1.31151   1.32163   1.37415
 Alpha virt. eigenvalues --    1.39554   1.45533   1.48596   1.53216   1.53904
 Alpha virt. eigenvalues --    1.56463   1.60065   1.61785   1.65694   1.69404
 Alpha virt. eigenvalues --    1.70701   1.75687   1.77685   1.78999   1.82049
 Alpha virt. eigenvalues --    1.83558   1.84915   1.86883   1.87587   1.89304
 Alpha virt. eigenvalues --    2.00385   2.02952   2.05395   2.12325   2.15619
 Alpha virt. eigenvalues --    2.16443   2.24591   2.25611   2.28225   2.31481
 Alpha virt. eigenvalues --    2.35528   2.40423   2.44097   2.48806   2.51901
 Alpha virt. eigenvalues --    2.59042   2.59726   2.66992   2.74471   2.77654
 Alpha virt. eigenvalues --    2.88098   2.91642   2.96495   2.99028   3.01832
 Alpha virt. eigenvalues --    3.14967   3.15221   3.28416   3.36601   3.40877
 Alpha virt. eigenvalues --    3.43116   3.47910   3.54160   3.57821   3.70160
 Alpha virt. eigenvalues --    3.74570   3.84221   3.94290   3.94537   3.99194
 Alpha virt. eigenvalues --    4.01197   4.02951   4.08109   4.09481   4.11266
 Alpha virt. eigenvalues --    4.18976   4.19756   4.31318   4.35024   4.41253
 Alpha virt. eigenvalues --    4.73257   4.75169   4.87621   4.93276   5.02300
 Alpha virt. eigenvalues --    5.13229   5.35402   5.42796   5.52382   5.57368
 Alpha virt. eigenvalues --    5.59541   5.73373   5.81019   5.83159   6.09852
 Alpha virt. eigenvalues --    6.35572   6.43822   6.71118   6.93303   6.94708
 Alpha virt. eigenvalues --    6.97941   7.06221   7.09000   7.09536   7.26886
 Alpha virt. eigenvalues --    7.28299   7.38296   7.46716   7.48581   7.65866
 Alpha virt. eigenvalues --    7.83687   8.08159   8.20545   8.34388   8.43774
 Alpha virt. eigenvalues --    8.56269   8.92520   9.15883   9.19855   9.46170
 Alpha virt. eigenvalues --    9.93685  10.13927  10.40042  10.55576  10.72579
 Alpha virt. eigenvalues --   11.05321  11.21882  11.26649  11.29648  11.48082
 Alpha virt. eigenvalues --   11.49800  11.63039  11.84812  11.98256  12.39387
 Alpha virt. eigenvalues --   12.68454  20.57943  21.63636  22.27576  24.42114
 Alpha virt. eigenvalues --   37.55004  37.71839  37.88069  38.03986  38.20800
 Alpha virt. eigenvalues --   38.38293  43.26935  43.44451
          Condensed to atoms (all electrons):
               1          2          3          4          5
     1  C    4.183095   0.270646   0.548454   0.448618  -0.010468
     2  O    0.270646   8.247864  -0.099155  -0.076747   0.236295
     3  O    0.548454  -0.099155   8.133610  -0.040823   0.018327
     4  H    0.448618  -0.076747  -0.040823   0.504121   0.006952
     5  H   -0.010468   0.236295   0.018327   0.006952   0.327113
          Atomic-Atomic Spin Densities.
               1          2          3          4          5
     1  C    0.000000   0.000000   0.000000   0.000000   0.000000
     2  O    0.000000   0.000000   0.000000   0.000000   0.000000
     3  O    0.000000   0.000000   0.000000   0.000000   0.000000
     4  H    0.000000   0.000000   0.000000   0.000000   0.000000
     5  H    0.000000   0.000000   0.000000   0.000000   0.000000
 Mulliken charges and spin densities:
               1          2
     1  C    0.559656   0.000000
     2  O   -0.578903   0.000000
     3  O   -0.560413   0.000000
     4  H    0.157880   0.000000
     5  H    0.421781   0.000000
 Sum of Mulliken charges =  -0.00000   0.00000
 Mulliken charges and spin densities with hydrogens summed into heavy atoms:
               1          2
     1  C    0.717535   0.000000
     2  O   -0.157122   0.000000
     3  O   -0.560413   0.000000
 Electronic spatial extent (au):  <R**2>=            133.0392
 Charge=             -0.0000 electrons
 Dipole moment (field-independent basis, Debye):
    X=             -1.7149    Y=             -0.1252    Z=              0.0000  Tot=              1.7195
 Quadrupole moment (field-independent basis, Debye-Ang):
   XX=            -22.6759   YY=            -12.4089   ZZ=            -16.9810
   XY=             -0.2697   XZ=             -0.0000   YZ=             -0.0000
 Traceless Quadrupole moment (field-independent basis, Debye-Ang):
   XX=             -5.3206   YY=              4.9464   ZZ=              0.3742
   XY=             -0.2697   XZ=             -0.0000   YZ=             -0.0000
 Octapole moment (field-independent basis, Debye-Ang**2):
  XXX=             -1.7615  YYY=             -4.8354  ZZZ=             -0.0000  XYY=             -3.3992
  XXY=             -0.7561  XXZ=             -0.0000  XZZ=             -0.0455  YZZ=             -0.3068
  YYZ=              0.0000  XYZ=             -0.0000
 Hexadecapole moment (field-independent basis, Debye-Ang**3):
 XXXX=           -106.1835 YYYY=            -27.9106 ZZZZ=            -14.2920 XXXY=            -11.7173
 XXXZ=              0.0000 YYYX=             -7.4416 YYYZ=             -0.0000 ZZZX=              0.0000
 ZZZY=             -0.0000 XXYY=            -22.0267 XXZZ=            -19.3057 YYZZ=             -9.1764
 XXYZ=             -0.0000 YYXZ=             -0.0000 ZZXY=             -3.5781
 N-N= 7.027896248912D+01 E-N=-5.868778963140D+02  KE= 1.886140570775D+02
 Symmetry A'   KE= 1.804927226992D+02
 Symmetry A"   KE= 8.121334378368D+00
 Symmetry A'   SP= 0.000000000000D+00
 Symmetry A"   SP= 0.000000000000D+00
                          Isotropic Fermi Contact Couplings
        Atom                 a.u.       MegaHertz       Gauss      10(-4) cm-1
     1  C(13)              0.00000       0.00000       0.00000       0.00000
     2  O(17)              0.00000      -0.00000      -0.00000      -0.00000
     3  O(17)              0.00000      -0.00000      -0.00000      -0.00000
     4  H(1)               0.00000       0.00000       0.00000       0.00000
     5  H(1)               0.00000       0.00000       0.00000       0.00000
 --------------------------------------------------------
       Center         ----  Spin Dipole Couplings  ----
                      3XX-RR        3YY-RR        3ZZ-RR
 --------------------------------------------------------
     1   Atom        0.000000      0.000000      0.000000
     2   Atom        0.000000      0.000000      0.000000
     3   Atom        0.000000      0.000000      0.000000
     4   Atom        0.000000      0.000000      0.000000
     5   Atom        0.000000      0.000000      0.000000
 --------------------------------------------------------
                        XY            XZ            YZ
 --------------------------------------------------------
     1   Atom        0.000000      0.000000      0.000000
     2   Atom        0.000000      0.000000      0.000000
     3   Atom        0.000000      0.000000      0.000000
     4   Atom        0.000000      0.000000      0.000000
     5   Atom        0.000000      0.000000      0.000000
 --------------------------------------------------------


 ---------------------------------------------------------------------------------
              Anisotropic Spin Dipole Couplings in Principal Axis System
 ---------------------------------------------------------------------------------

       Atom             a.u.   MegaHertz   Gauss  10(-4) cm-1        Axes

              Baa     0.0000     0.000     0.000     0.000  1.0000  0.0000  0.0000
     1 C(13)  Bbb     0.0000     0.000     0.000     0.000 -0.0000  1.0000  0.0000
              Bcc     0.0000     0.000     0.000     0.000  0.0000  0.0000  1.0000
 
              Baa     0.0000    -0.000    -0.000    -0.000  1.0000  0.0000  0.0000
     2 O(17)  Bbb     0.0000    -0.000    -0.000    -0.000 -0.0000  1.0000  0.0000
              Bcc     0.0000    -0.000    -0.000    -0.000  0.0000  0.0000  1.0000
 
              Baa     0.0000    -0.000    -0.000    -0.000  1.0000  0.0000  0.0000
     3 O(17)  Bbb     0.0000    -0.000    -0.000    -0.000 -0.0000  1.0000  0.0000
              Bcc     0.0000    -0.000    -0.000    -0.000  0.0000  0.0000  1.0000
 
              Baa     0.0000     0.000     0.000     0.000  1.0000  0.0000  0.0000
     4 H(1)   Bbb     0.0000     0.000     0.000     0.000 -0.0000  1.0000  0.0000
              Bcc     0.0000     0.000     0.000     0.000  0.0000  0.0000  1.0000
 
              Baa     0.0000     0.000     0.000     0.000  1.0000  0.0000  0.0000
     5 H(1)   Bbb     0.0000     0.000     0.000     0.000 -0.0000  1.0000  0.0000
              Bcc     0.0000     0.000     0.000     0.000  0.0000  0.0000  1.0000
 

 ---------------------------------------------------------------------------------

 1\1\GINC-GAMBA\SP\ROHF\Gen\C1H2O2\IRIKURA\28-Sep-2023\0\\# rohf/gen ge
 om=check guess=check\\formic acid, ROHF/cc-pVTZ-F12\\0,1\C,0,0.,0.4208
 64,0.\O,0,-1.027094,-0.446949,0.\O,0,1.157626,0.11841,0.\H,0,-0.384787
 ,1.446819,0.\H,0,-0.659473,-1.343689,0.\\Version=ES64L-G16RevB.01\Stat
 e=1-A'\HF=-188.856057\RMSD=4.831e-09\Dipole=-0.6747017,-0.0492699,0.\Q
 uadrupole=-3.9557469,3.6775087,0.2782381,-0.2005295,0.,0.\PG=CS [SG(C1
 H2O2)]\\@


 SEE YOU NOW,
 YOUR BAIT OF FALSEHOOD TAKES THIS CARP OF TRUTH.
 AND THUS DO WE OF WISDOM AND OF REACH...
 BY INDIRECTIONS FIND DIRECTIONS OUT.    -- HAMLET, II, 1
 Job cpu time:       0 days  0 hours  0 minutes 42.7 seconds.
 Elapsed time:       0 days  0 hours  0 minutes 11.6 seconds.
 File lengths (MBytes):  RWF=     21 Int=      0 D2E=      0 Chk=      4 Scr=      1
 Normal termination of Gaussian 16 at Thu Sep 28 22:14:48 2023.
