 Entering Gaussian System, Link 0=g16
 AtFile(1): pcseg2.gbs
            -H     0
            S   4   1.00
                  0.754732D+02           0.427821D-02
                  0.113575D+02           0.328672D-01
                  0.260081D+01           0.159578D+00
                  0.735503D+00           0.500000D+00
            S   1   1.00
                  0.231761D+00           1.0000000
            S   1   1.00
                  0.741675D-01           1.0000000
            P   1   1.00
                  0.160000D+01           1.0000000
            P   1   1.00
                  0.450000D+00           1.0000000
            D   1   1.00
                  0.125000D+01           1.0000000
            ****
            -C     0
            S   7   1.00
                  0.731999D+04           0.695369D-03
                  0.109818D+04           0.537138D-02
                  0.250014D+03           0.274734D-01
                  0.707586D+02           0.105078D+00
                  0.228595D+02           0.291262D+00
                  0.803936D+01           0.500000D+00
                  0.289309D+01           0.362224D+00
            S   2   1.00
                  0.521640D+01          -0.957844D-01
                  0.556124D+00           0.500000D+00
            S   1   1.00
                  0.228813D+00           1.0000000
            S   1   1.00
                  0.936338D-01           1.0000000
            P   4   1.00
                  0.339855D+02           0.818395D-02
                  0.772957D+01           0.586921D-01
                  0.224954D+01           0.222514D+00
                  0.767681D+00           0.500000D+00
            P   1   1.00
                  0.263283D+00           1.0000000
            P   1   1.00
                  0.848744D-01           1.0000000
            D   1   1.00
                  0.140000D+01           1.0000000
            D   1   1.00
                  0.450000D+00           1.0000000
            F   1   1.00
                  0.950000D+00           1.0000000
            ****
            -O     0
            S   7   1.00
                  0.135887D+05           0.665492D-03
                  0.203847D+04           0.514222D-02
                  0.464041D+03           0.263472D-01
                  0.131339D+03           0.101500D+00
                  0.425340D+02           0.285877D+00
                  0.150429D+02           0.500000D+00
                  0.546616D+01           0.368211D+00
            S   2   1.00
                  0.100915D+02          -0.100084D+00
                  0.110429D+01           0.500000D+00
            S   1   1.00
                  0.448082D+00           1.0000000
            S   1   1.00
                  0.175325D+00           1.0000000
            P   4   1.00
                  0.608220D+02           0.908253D-02
                  0.140332D+02           0.645878D-01
                  0.418244D+01           0.241502D+00
                  0.142490D+01           0.500000D+00
            P   1   1.00
                  0.478741D+00           1.0000000
            P   1   1.00
                  0.146257D+00           1.0000000
            D   1   1.00
                  0.220000D+01           1.0000000
            D   1   1.00
                  0.650000D+00           1.0000000
            F   1   1.00
                  0.110000D+01           1.0000000
            ****
            -N     0
            S   7   1.00
                  0.101643D+05           0.682757D-03
                  0.152481D+04           0.527488D-02
                  0.347119D+03           0.270037D-01
                  0.982389D+02           0.103673D+00
                  0.317799D+02           0.289575D+00
                  0.112240D+02           0.500000D+00
                  0.406611D+01           0.364621D+00
            S   2   1.00
                  0.747898D+01          -0.975681D-01
                  0.805040D+00           0.500000D+00
            S   1   1.00
                  0.324626D+00           1.0000000
            S   1   1.00
                  0.128132D+00           1.0000000
            P   4   1.00
                  0.482704D+02           0.829547D-02
                  0.110815D+02           0.596223D-01
                  0.326643D+01           0.227889D+00
                  0.111680D+01           0.500000D+00
            P   1   1.00
                  0.382049D+00           1.0000000
            P   1   1.00
                  0.121222D+00           1.0000000
            D   1   1.00
                  0.180000D+01           1.0000000
            D   1   1.00
                  0.550000D+00           1.0000000
            F   1   1.00
                  0.102000D+01           1.0000000
            ****
            -F     0
            S   7   1.00
                  0.174507D+05           0.655972D-03
                  0.261768D+04           0.506944D-02
                  0.595857D+03           0.259899D-01
                  0.168651D+03           0.100353D+00
                  0.546654D+02           0.284095D+00
                  0.193717D+02           0.500000D+00
                  0.706202D+01           0.370721D+00
            S   2   1.00
                  0.131197D+02          -0.101997D+00
                  0.145046D+01           0.500000D+00
            S   1   1.00
                  0.588255D+00           1.0000000
            S   1   1.00
                  0.227960D+00           1.0000000
            P   4   1.00
                  0.779407D+02           0.931135D-02
                  0.180425D+02           0.663964D-01
                  0.542342D+01           0.246386D+00
                  0.184876D+01           0.500000D+00
            P   1   1.00
                  0.617455D+00           1.0000000
            P   1   1.00
                  0.185496D+00           1.0000000
            D   1   1.00
                  0.280000D+01           1.0000000
            D   1   1.00
                  0.800000D+00           1.0000000
            F   1   1.00
                  0.120000D+01           1.0000000
            ****
            -Cl     0
            S   8   1.00
                  0.154272D+06           0.222473D-03
                  0.231232D+05           0.172590D-02
                  0.526257D+04           0.899286D-02
                  0.148995D+04           0.367724D-01
                  0.485417D+03           0.121446D+00
                  0.174634D+03           0.304148D+00
                  0.672393D+02           0.500000D+00
                  0.265780D+02           0.360252D+00
            S   3   1.00
                  0.131826D+03          -0.531330D-01
                  0.400703D+02          -0.233346D+00
                  0.789448D+01           0.500000D+00
            S   2   1.00
                  0.427711D+01           0.500000D+00
                  0.196233D+01           0.370517D+00
            S   1   1.00
                  0.520793D+00           1.0000000
            S   1   1.00
                  0.181633D+00           1.0000000
            P   7   1.00
                  0.124440D+04           0.988206D-03
                  0.295109D+03           0.829674D-02
                  0.947224D+02           0.430906D-01
                  0.352588D+02           0.148443D+00
                  0.144211D+02           0.344744D+00
                  0.610371D+01           0.500000D+00
                  0.258886D+01           0.348278D+00
            P   2   1.00
                  0.109447D+02          -0.196768D-01
                  0.104413D+01           0.500000D+00
            P   1   1.00
                  0.376184D+00           1.0000000
            P   1   1.00
                  0.120613D+00           1.0000000
            D   1   1.00
                  0.231000D+01           1.0000000
            D   1   1.00
                  0.520000D+00           1.0000000
            F   1   1.00
                  0.720000D+00           1.0000000
            ****
            -S     0
            S   8   1.00
                  0.134700D+06           0.226231D-03
                  0.201904D+05           0.175488D-02
                  0.459528D+04           0.914190D-02
                  0.130109D+04           0.373551D-01
                  0.423902D+03           0.123121D+00
                  0.152485D+03           0.306801D+00
                  0.586925D+02           0.500000D+00
                  0.231461D+02           0.354358D+00
            S   3   1.00
                  0.116327D+03          -0.491772D-01
                  0.352841D+02          -0.215962D+00
                  0.677831D+01           0.500000D+00
            S   2   1.00
                  0.360404D+01           0.500000D+00
                  0.164871D+01           0.366278D+00
            S   1   1.00
                  0.421821D+00           1.0000000
            S   1   1.00
                  0.147554D+00           1.0000000
            P   7   1.00
                  0.104863D+04           0.105273D-02
                  0.248717D+03           0.879338D-02
                  0.797887D+02           0.453358D-01
                  0.296023D+02           0.154476D+00
                  0.120627D+02           0.352366D+00
                  0.507628D+01           0.500000D+00
                  0.213375D+01           0.346429D+00
            P   2   1.00
                  0.928958D+01          -0.185932D-01
                  0.837819D+00           0.500000D+00
            P   1   1.00
                  0.301495D+00           1.0000000
            P   1   1.00
                  0.974740D-01           1.0000000
            D   1   1.00
                  0.210000D+01           1.0000000
            D   1   1.00
                  0.480000D+00           1.0000000
            F   1   1.00
                  0.660000D+00           1.0000000
            ****
            -Br     0
            S    10   1.00
                  0.233625D+07           0.532336D-04
                  0.349961D+06           0.413715D-03
                  0.796444D+05           0.217123D-02
                  0.225555D+05           0.910109D-02
                  0.735546D+04           0.323789D-01
                  0.265352D+04           0.988755D-01
                  0.103517D+04           0.248138D+00
                  0.422205D+03           0.474328D+00
                  0.180035D+03           0.500000D+00
                  0.793308D+02           0.187769D+00
            S    4   1.00
                  0.620834D+03          -0.226511D-01
                  0.190829D+03          -0.109497D+00
                  0.312505D+02           0.500000D+00
                  0.135270D+02           0.492812D+00
            S    2   1.00
                  0.216097D+02          -0.165418D+00
                  0.372566D+01           0.500000D+00
            S    1   1.00
                  0.169770D+01           1.0000000
            S    1   1.00
                  0.489332D+00           1.0000000
            S    1   1.00
                  0.175712D+00           1.0000000
            P    8   1.00
                  0.960829D+04           0.478974D-03
                  0.227618D+04           0.417853D-02
                  0.736723D+03           0.229315D-01
                  0.281579D+03           0.892653D-01
                  0.118395D+03           0.255288D+00
                  0.527481D+02           0.479074D+00
                  0.245098D+02           0.500000D+00
                  0.112009D+02           0.200944D+00
            P    4   1.00
                  0.587849D+02          -0.189674D-01
                  0.918962D+01           0.264104D+00
                  0.413895D+01           0.500000D+00
                  0.184225D+01           0.319316D+00
            P    1   1.00
                  0.713862D+00           1.0000000
            P    1   1.00
                  0.274232D+00           1.0000000
            P    1   1.00
                  0.944411D-01           1.0000000
            D    7   1.00
                  0.398470D+03           0.204066D-02
                  0.118967D+03           0.175171D-01
                  0.450197D+02           0.829708D-01
                  0.190320D+02           0.236284D+00
                  0.855686D+01           0.428468D+00
                  0.382950D+01           0.500000D+00
                  0.166291D+01           0.349360D+00
            D    1   1.00
                  0.672953D+00           1.0000000
            D    1   1.00
                  0.252000D+00           1.0000000
            F    1   1.00
                  0.530000D+00           1.0000000
            ****
            -Si     0
            S    8   1.00
                  0.996133D+05           0.235546D-03
                  0.149311D+05           0.182707D-02
                  0.339820D+04           0.951425D-02
                  0.962140D+03           0.388172D-01
                  0.313430D+03           0.127328D+00
                  0.112683D+03           0.313522D+00
                  0.433372D+02           0.500000D+00
                  0.170029D+02           0.340347D+00
            S    3   1.00
                  0.884208D+02          -0.404451D-01
                  0.266756D+02          -0.178059D+00
                  0.479640D+01           0.500000D+00
            S    2   1.00
                  0.239385D+01           0.500000D+00
                  0.108333D+01           0.338016D+00
            S    1   1.00
                  0.252420D+00           1.0000000
            S    1   1.00
                  0.891210D-01           1.0000000
            P    7   1.00
                  0.709901D+03           0.123028D-02
                  0.168426D+03           0.101366D-01
                  0.539946D+02           0.511840D-01
                  0.198646D+02           0.169967D+00
                  0.801369D+01           0.370717D+00
                  0.331870D+01           0.500000D+00
                  0.136112D+01           0.344128D+00
            P    2   1.00
                  0.622158D+01          -0.166609D-01
                  0.503049D+00           0.500000D+00
            P    1   1.00
                  0.179848D+00           1.0000000
            P    1   1.00
                  0.591912D-01           1.0000000
            D    1   1.00
                  0.168000D+01           1.0000000
            D    1   1.00
                  0.380000D+00           1.0000000
            F    1   1.00
                  0.540000D+00           1.0000000
            ****
            -P     0
            S    8   1.00
                  0.116416D+06           0.230715D-03
                  0.174500D+05           0.178960D-02
                  0.397149D+04           0.932116D-02
                  0.112447D+04           0.380591D-01
                  0.366347D+03           0.125148D+00
                  0.131757D+03           0.310022D+00
                  0.506988D+02           0.500000D+00
                  0.199436D+02           0.347528D+00
            S    3   1.00
                  0.101878D+03          -0.446755D-01
                  0.308249D+02          -0.196376D+00
                  0.573688D+01           0.500000D+00
            S    2   1.00
                  0.296868D+01           0.500000D+00
                  0.135315D+01           0.355098D+00
            S    1   1.00
                  0.332196D+00           1.0000000
            S    1   1.00
                  0.116229D+00           1.0000000
            P    7   1.00
                  0.873928D+03           0.112375D-02
                  0.207298D+03           0.933330D-02
                  0.664628D+02           0.477213D-01
                  0.245665D+02           0.160733D+00
                  0.996820D+01           0.359760D+00
                  0.416536D+01           0.500000D+00
                  0.173022D+01           0.346593D+00
            P    2   1.00
                  0.772530D+01          -0.175718D-01
                  0.657252D+00           0.500000D+00
            P    1   1.00
                  0.239903D+00           1.0000000
            P    1   1.00
                  0.800988D-01           1.0000000
            D    1   1.00
                  0.189000D+01           1.0000000
            D    1   1.00
                  0.430000D+00           1.0000000
            F    1   1.00
                  0.600000D+00           1.0000000
            ****
            
 Initial command:
 /usr/local/apps/g16_b01_avx/g16/l1.exe "/wrk/irikura/Gau-12671.inp" -scrdir="/wrk/irikura/"
 Entering Link 1 = /usr/local/apps/g16_b01_avx/g16/l1.exe PID=     12673.
  
 Copyright (c) 1988-2017, Gaussian, Inc.  All Rights Reserved.
  
 This is part of the Gaussian(R) 16 program.  It is based on
 the Gaussian(R) 09 system (copyright 2009, Gaussian, Inc.),
 the Gaussian(R) 03 system (copyright 2003, Gaussian, Inc.),
 the Gaussian(R) 98 system (copyright 1998, Gaussian, Inc.),
 the Gaussian(R) 94 system (copyright 1995, Gaussian, Inc.),
 the Gaussian 92(TM) system (copyright 1992, Gaussian, Inc.),
 the Gaussian 90(TM) system (copyright 1990, Gaussian, Inc.),
 the Gaussian 88(TM) system (copyright 1988, Gaussian, Inc.),
 the Gaussian 86(TM) system (copyright 1986, Carnegie Mellon
 University), and the Gaussian 82(TM) system (copyright 1983,
 Carnegie Mellon University). Gaussian is a federally registered
 trademark of Gaussian, Inc.
  
 This software contains proprietary and confidential information,
 including trade secrets, belonging to Gaussian, Inc.
  
 This software is provided under written license and may be
 used, copied, transmitted, or stored only in accord with that
 written license.
  
 The following legend is applicable only to US Government
 contracts under FAR:
  
                    RESTRICTED RIGHTS LEGEND
  
 Use, reproduction and disclosure by the US Government is
 subject to restrictions as set forth in subparagraphs (a)
 and (c) of the Commercial Computer Software - Restricted
 Rights clause in FAR 52.227-19.
  
 Gaussian, Inc.
 340 Quinnipiac St., Bldg. 40, Wallingford CT 06492
  
  
 ---------------------------------------------------------------
 Warning -- This program may not be used in any manner that
 competes with the business of Gaussian, Inc. or will provide
 assistance to any competitor of Gaussian, Inc.  The licensee
 of this program is prohibited from giving any competitor of
 Gaussian, Inc. access to this program.  By using this program,
 the user acknowledges that Gaussian, Inc. is engaged in the
 business of creating and licensing software in the field of
 computational chemistry and represents and warrants to the
 licensee that it is not a competitor of Gaussian, Inc. and that
 it will not use this program in any manner prohibited above.
 ---------------------------------------------------------------
  

 Cite this work as:
 Gaussian 16, Revision B.01,
 M. J. Frisch, G. W. Trucks, H. B. Schlegel, G. E. Scuseria, 
 M. A. Robb, J. R. Cheeseman, G. Scalmani, V. Barone, 
 G. A. Petersson, H. Nakatsuji, X. Li, M. Caricato, A. V. Marenich, 
 J. Bloino, B. G. Janesko, R. Gomperts, B. Mennucci, H. P. Hratchian, 
 J. V. Ortiz, A. F. Izmaylov, J. L. Sonnenberg, D. Williams-Young, 
 F. Ding, F. Lipparini, F. Egidi, J. Goings, B. Peng, A. Petrone, 
 T. Henderson, D. Ranasinghe, V. G. Zakrzewski, J. Gao, N. Rega, 
 G. Zheng, W. Liang, M. Hada, M. Ehara, K. Toyota, R. Fukuda, 
 J. Hasegawa, M. Ishida, T. Nakajima, Y. Honda, O. Kitao, H. Nakai, 
 T. Vreven, K. Throssell, J. A. Montgomery, Jr., J. E. Peralta, 
 F. Ogliaro, M. J. Bearpark, J. J. Heyd, E. N. Brothers, K. N. Kudin, 
 V. N. Staroverov, T. A. Keith, R. Kobayashi, J. Normand, 
 K. Raghavachari, A. P. Rendell, J. C. Burant, S. S. Iyengar, 
 J. Tomasi, M. Cossi, J. M. Millam, M. Klene, C. Adamo, R. Cammi, 
 J. W. Ochterski, R. L. Martin, K. Morokuma, O. Farkas, 
 J. B. Foresman, and D. J. Fox, Gaussian, Inc., Wallingford CT, 2016.
 
 ******************************************
 Gaussian 16:  ES64L-G16RevB.01 20-Dec-2017
                16-Jun-2022 
 ******************************************
 %mem=1000MW
 %nprocs=12
 Will use up to   12 processors via shared memory.
 --------------------
 # opt freq b3lyp/gen
 --------------------
 1/18=20,19=15,26=3,38=1/1,3;
 2/9=110,12=2,17=6,18=5,40=1/2;
 3/5=7,11=2,25=1,30=1,71=1,74=-5/1,2,3;
 4//1;
 5/5=2,38=5/2;
 6/7=2,8=2,9=2,10=2,28=1/1;
 7//1,2,3,16;
 1/18=20,19=15,26=3/3(2);
 2/9=110/2;
 99//99;
 2/9=110/2;
 3/5=7,6=1,11=2,25=1,30=1,71=1,74=-5,82=7/1,2,3;
 4/5=5,16=3,69=1/1;
 5/5=2,38=5/2;
 7//1,2,3,16;
 1/18=20,19=15,26=3/3(-5);
 2/9=110/2;
 6/7=2,8=2,9=2,10=2,19=2,28=1/1;
 99/9=1/99;
 ----------------------------
 1,4-hexadiyne, B3LYP/pcseg-2
 ----------------------------
 Symbolic Z-matrix:
 Charge =  0 Multiplicity = 1
 C                    -2.80071   0.8986    0. 
 C                    -1.94699   0.05449   0. 
 C                    -0.91678  -0.98674   0. 
 C                     0.45012  -0.46147   0. 
 C                     1.57445  -0.03479   0. 
 C                     2.93386   0.48586   0. 
 H                    -3.55158   1.64919   0. 
 H                    -1.06269  -1.63613  -0.87453 
 H                    -1.06269  -1.63613   0.87453 
 H                     3.48829   0.15303   0.8843 
 H                     2.93661   1.58134   0. 
 H                     3.48829   0.15303  -0.8843 
 

 GradGradGradGradGradGradGradGradGradGradGradGradGradGradGradGradGradGrad
 Berny optimization.
 Initialization pass.
                           ----------------------------
                           !    Initial Parameters    !
                           ! (Angstroms and Degrees)  !
 --------------------------                            --------------------------
 ! Name  Definition              Value          Derivative Info.                !
 --------------------------------------------------------------------------------
 ! R1    R(1,2)                  1.2006         estimate D2E/DX2                !
 ! R2    R(1,7)                  1.0617         estimate D2E/DX2                !
 ! R3    R(2,3)                  1.4647         estimate D2E/DX2                !
 ! R4    R(3,4)                  1.4643         estimate D2E/DX2                !
 ! R5    R(3,8)                  1.099          estimate D2E/DX2                !
 ! R6    R(3,9)                  1.099          estimate D2E/DX2                !
 ! R7    R(4,5)                  1.2026         estimate D2E/DX2                !
 ! R8    R(5,6)                  1.4557         estimate D2E/DX2                !
 ! R9    R(6,10)                 1.0955         estimate D2E/DX2                !
 ! R10   R(6,11)                 1.0955         estimate D2E/DX2                !
 ! R11   R(6,12)                 1.0955         estimate D2E/DX2                !
 ! A1    A(2,3,4)              113.675          estimate D2E/DX2                !
 ! A2    A(2,3,8)              109.0661         estimate D2E/DX2                !
 ! A3    A(2,3,9)              109.0661         estimate D2E/DX2                !
 ! A4    A(4,3,8)              109.6263         estimate D2E/DX2                !
 ! A5    A(4,3,9)              109.6263         estimate D2E/DX2                !
 ! A6    A(8,3,9)              105.4524         estimate D2E/DX2                !
 ! A7    A(5,6,10)             111.343          estimate D2E/DX2                !
 ! A8    A(5,6,11)             111.1003         estimate D2E/DX2                !
 ! A9    A(5,6,12)             111.343          estimate D2E/DX2                !
 ! A10   A(10,6,11)            107.61           estimate D2E/DX2                !
 ! A11   A(10,6,12)            107.6472         estimate D2E/DX2                !
 ! A12   A(11,6,12)            107.61           estimate D2E/DX2                !
 ! A13   L(2,1,7,11,-1)        179.687          estimate D2E/DX2                !
 ! A14   L(1,2,3,11,-1)        180.6286         estimate D2E/DX2                !
 ! A15   L(3,4,5,7,-1)         180.2387         estimate D2E/DX2                !
 ! A16   L(4,5,6,7,-1)         179.8251         estimate D2E/DX2                !
 ! A17   L(2,1,7,11,-2)        180.0            estimate D2E/DX2                !
 ! A18   L(1,2,3,11,-2)        180.0            estimate D2E/DX2                !
 ! A19   L(3,4,5,7,-2)         180.0            estimate D2E/DX2                !
 ! A20   L(4,5,6,7,-2)         180.0            estimate D2E/DX2                !
 ! D1    D(2,3,6,10)           119.92           estimate D2E/DX2                !
 ! D2    D(2,3,6,11)             0.0            estimate D2E/DX2                !
 ! D3    D(2,3,6,12)          -119.92           estimate D2E/DX2                !
 ! D4    D(8,3,6,10)          -117.7063         estimate D2E/DX2                !
 ! D5    D(8,3,6,11)           122.3737         estimate D2E/DX2                !
 ! D6    D(8,3,6,12)             2.4537         estimate D2E/DX2                !
 ! D7    D(9,3,6,10)            -2.4537         estimate D2E/DX2                !
 ! D8    D(9,3,6,11)          -122.3737         estimate D2E/DX2                !
 ! D9    D(9,3,6,12)           117.7063         estimate D2E/DX2                !
 --------------------------------------------------------------------------------
 Trust Radius=3.00D-01 FncErr=1.00D-07 GrdErr=1.00D-06 EigMax=2.50D+02 EigMin=1.00D-04
 Number of steps in this run=     50 maximum allowed number of steps=    100.
 GradGradGradGradGradGradGradGradGradGradGradGradGradGradGradGradGradGrad

                          Input orientation:                          
 ---------------------------------------------------------------------
 Center     Atomic      Atomic             Coordinates (Angstroms)
 Number     Number       Type             X           Y           Z
 ---------------------------------------------------------------------
      1          6           0       -2.800706    0.898602    0.000000
      2          6           0       -1.946991    0.054489    0.000000
      3          6           0       -0.916776   -0.986737    0.000000
      4          6           0        0.450124   -0.461474    0.000000
      5          6           0        1.574450   -0.034792    0.000000
      6          6           0        2.933863    0.485857    0.000000
      7          1           0       -3.551583    1.649189    0.000000
      8          1           0       -1.062687   -1.636130   -0.874534
      9          1           0       -1.062687   -1.636130    0.874534
     10          1           0        3.488290    0.153032    0.884305
     11          1           0        2.936610    1.581339    0.000000
     12          1           0        3.488290    0.153032   -0.884305
 ---------------------------------------------------------------------
                    Distance matrix (angstroms):
                    1          2          3          4          5
     1  C    0.000000
     2  C    1.200565   0.000000
     3  C    2.665276   1.464750   0.000000
     4  C    3.523876   2.452015   1.464348   0.000000
     5  C    4.473613   3.522572   2.666909   1.202566   0.000000
     6  C    5.749404   4.899879   4.122615   2.658270   1.455707
     7  H    1.061695   2.262252   3.726971   4.524219   5.395554
     8  H    3.195370   2.098808   1.099005   2.105522   3.206803
     9  H    3.195370   2.098808   1.099005   2.105522   3.206803
    10  H    6.394478   5.507630   4.635264   3.223363   2.116615
    11  H    5.777796   5.116721   4.630723   3.218027   2.113613
    12  H    6.394478   5.507630   4.635264   3.223363   2.116615
                    6          7          8          9         10
     6  C    0.000000
     7  H    6.588957   0.000000
     8  H    4.608693   4.213400   0.000000
     9  H    4.608693   4.213400   1.749068   0.000000
    10  H    1.095517   7.251227   5.196730   4.890050   0.000000
    11  H    1.095486   6.488548   5.206851   5.206851   1.768165
    12  H    1.095517   7.251227   4.890050   5.196730   1.768610
                   11         12
    11  H    0.000000
    12  H    1.768165   0.000000
 Stoichiometry    C6H6
 Framework group  CS[SG(C6H2),X(H4)]
 Deg. of freedom    19
 Full point group                 CS      NOp   2
 Largest Abelian subgroup         CS      NOp   2
 Largest concise Abelian subgroup CS      NOp   2
                         Standard orientation:                         
 ---------------------------------------------------------------------
 Center     Atomic      Atomic             Coordinates (Angstroms)
 Number     Number       Type             X           Y           Z
 ---------------------------------------------------------------------
      1          6           0       -1.377454   -2.598858    0.000000
      2          6           0       -1.355718   -1.398489    0.000000
      3          6           0       -1.345267    0.066223    0.000000
      4          6           0        0.000000    0.644647    0.000000
      5          6           0        1.102785    1.124263    0.000000
      6          6           0        2.439471    1.700761    0.000000
      7          1           0       -1.390878   -3.660468    0.000000
      8          1           0       -1.903156    0.429214    0.874534
      9          1           0       -1.903156    0.429214   -0.874534
     10          1           0        2.603966    2.326144   -0.884305
     11          1           0        3.206356    0.918472    0.000000
     12          1           0        2.603966    2.326144    0.884305
 ---------------------------------------------------------------------
 Rotational constants (GHZ):          12.4490237           1.5027330           1.3634320
 General basis read from cards:  (5D, 7F)
 There are   196 symmetry adapted cartesian basis functions of A'  symmetry.
 There are   104 symmetry adapted cartesian basis functions of A"  symmetry.
 There are   168 symmetry adapted basis functions of A'  symmetry.
 There are    96 symmetry adapted basis functions of A"  symmetry.
   264 basis functions,   414 primitive gaussians,   300 cartesian basis functions
    21 alpha electrons       21 beta electrons
       nuclear repulsion energy       174.9437060267 Hartrees.
 NAtoms=   12 NActive=   12 NUniq=   10 SFac= 1.44D+00 NAtFMM=   60 NAOKFM=F Big=F
 Integral buffers will be    131072 words long.
 Raffenetti 2 integral format.
 Two-electron integral symmetry is turned on.
 One-electron integrals computed using PRISM.
 NBasis=   264 RedAO= T EigKep=  2.33D-05  NBF=   168    96
 NBsUse=   264 1.00D-06 EigRej= -1.00D+00 NBFU=   168    96
 ExpMin= 7.42D-02 ExpMax= 7.32D+03 ExpMxC= 2.50D+02 IAcc=3 IRadAn=         5 AccDes= 0.00D+00
 Harris functional with IExCor=  402 and IRadAn=       5 diagonalized for initial guess.
 HarFok:  IExCor=  402 AccDes= 0.00D+00 IRadAn=         5 IDoV= 1 UseB2=F ITyADJ=14
 ICtDFT=  3500011 ScaDFX=  1.000000  1.000000  1.000000  1.000000
 FoFCou: FMM=F IPFlag=           0 FMFlag=      100000 FMFlg1=           0
         NFxFlg=           0 DoJE=T BraDBF=F KetDBF=T FulRan=T
         wScrn=  0.000000 ICntrl=       500 IOpCl=  0 I1Cent=   200000004 NGrid=           0
         NMat0=    1 NMatS0=      1 NMatT0=    0 NMatD0=    1 NMtDS0=    0 NMtDT0=    0
 Petite list used in FoFCou.
 Initial guess orbital symmetries:
       Occupied  (A') (A') (A') (A') (A') (A') (A') (A') (A') (A')
                 (A') (A') (A') (A') (A") (A') (A") (A') (A") (A')
                 (A")
       Virtual   (A') (A") (A") (A') (A') (A') (A') (A") (A') (A")
                 (A') (A') (A') (A') (A') (A') (A") (A') (A") (A')
                 (A') (A") (A') (A') (A") (A') (A") (A') (A') (A")
                 (A") (A') (A') (A') (A') (A") (A') (A') (A') (A')
                 (A') (A') (A') (A") (A') (A') (A") (A') (A") (A')
                 (A") (A') (A') (A") (A') (A") (A') (A") (A") (A")
                 (A') (A") (A') (A') (A') (A") (A') (A") (A') (A')
                 (A") (A') (A') (A") (A') (A') (A") (A") (A") (A')
                 (A') (A') (A") (A') (A') (A') (A') (A") (A') (A")
                 (A') (A') (A') (A") (A") (A') (A') (A") (A') (A')
                 (A') (A') (A") (A') (A') (A') (A") (A') (A') (A")
                 (A') (A') (A") (A') (A') (A") (A') (A') (A') (A")
                 (A') (A") (A") (A') (A") (A') (A') (A") (A') (A")
                 (A') (A') (A") (A") (A') (A') (A') (A") (A') (A")
                 (A") (A') (A") (A') (A') (A') (A') (A') (A") (A")
                 (A") (A') (A') (A") (A") (A") (A') (A") (A") (A')
                 (A") (A') (A") (A') (A') (A") (A') (A") (A') (A")
                 (A') (A") (A') (A") (A') (A') (A') (A") (A') (A')
                 (A") (A') (A") (A') (A') (A') (A") (A') (A') (A")
                 (A") (A") (A') (A') (A') (A") (A') (A") (A') (A")
                 (A') (A") (A') (A") (A') (A') (A') (A") (A') (A')
                 (A') (A") (A') (A') (A") (A') (A') (A") (A') (A')
                 (A') (A") (A") (A') (A') (A") (A") (A') (A") (A")
                 (A') (A') (A') (A") (A') (A") (A') (A") (A') (A')
                 (A') (A') (A')
 The electronic state of the initial guess is 1-A'.
 Keep R1 ints in memory in symmetry-blocked form, NReq=919665711.
 Requested convergence on RMS density matrix=1.00D-08 within 128 cycles.
 Requested convergence on MAX density matrix=1.00D-06.
 Requested convergence on             energy=1.00D-06.
 No special actions if energy rises.
 Integral accuracy reduced to 1.0D-05 until final iterations.
 Initial convergence to 1.0D-05 achieved.  Increase integral accuracy.
 SCF Done:  E(RB3LYP) =  -232.209020414     A.U. after   14 cycles
            NFock= 14  Conv=0.33D-08     -V/T= 2.0044

 **********************************************************************

            Population analysis using the SCF Density.

 **********************************************************************

 Orbital symmetries:
       Occupied  (A') (A') (A') (A') (A') (A') (A') (A') (A') (A')
                 (A') (A') (A') (A") (A') (A') (A") (A') (A") (A')
                 (A")
       Virtual   (A') (A') (A") (A') (A") (A') (A') (A") (A') (A')
                 (A") (A') (A') (A') (A") (A') (A") (A') (A') (A')
                 (A") (A') (A') (A') (A") (A') (A') (A") (A") (A')
                 (A") (A') (A') (A') (A") (A') (A') (A') (A') (A')
                 (A') (A') (A') (A") (A') (A") (A') (A") (A') (A')
                 (A') (A") (A") (A') (A") (A') (A') (A") (A") (A")
                 (A') (A") (A') (A") (A') (A') (A') (A") (A') (A')
                 (A") (A') (A') (A') (A") (A") (A') (A") (A') (A")
                 (A') (A') (A") (A') (A') (A') (A') (A") (A") (A')
                 (A') (A') (A') (A") (A") (A') (A') (A') (A") (A')
                 (A') (A') (A") (A') (A') (A') (A") (A') (A") (A')
                 (A') (A') (A") (A') (A') (A") (A') (A') (A') (A")
                 (A') (A") (A") (A') (A") (A') (A') (A") (A") (A')
                 (A') (A') (A") (A") (A') (A') (A') (A") (A') (A")
                 (A") (A') (A") (A') (A') (A') (A') (A") (A') (A")
                 (A") (A') (A') (A") (A") (A") (A') (A") (A") (A')
                 (A") (A") (A') (A') (A') (A") (A') (A") (A") (A')
                 (A") (A') (A') (A") (A') (A') (A') (A") (A') (A')
                 (A") (A') (A') (A") (A') (A') (A") (A') (A") (A")
                 (A') (A") (A') (A') (A') (A") (A") (A') (A") (A')
                 (A') (A") (A') (A') (A") (A') (A') (A") (A') (A')
                 (A') (A") (A') (A') (A") (A') (A') (A") (A') (A')
                 (A') (A") (A") (A') (A') (A") (A") (A") (A') (A")
                 (A') (A') (A') (A") (A') (A") (A') (A") (A') (A')
                 (A') (A') (A')
 The electronic state is 1-A'.
 Alpha  occ. eigenvalues --  -10.22618 -10.19404 -10.18074 -10.17051 -10.16735
 Alpha  occ. eigenvalues --  -10.16702  -0.81820  -0.77499  -0.73070  -0.68404
 Alpha  occ. eigenvalues --   -0.54449  -0.50312  -0.47613  -0.46100  -0.45605
 Alpha  occ. eigenvalues --   -0.43269  -0.43215  -0.28741  -0.28561  -0.26587
 Alpha  occ. eigenvalues --   -0.26154
 Alpha virt. eigenvalues --    0.00919   0.02051   0.02467   0.03238   0.04369
 Alpha virt. eigenvalues --    0.04793   0.04982   0.07177   0.08742   0.09820
 Alpha virt. eigenvalues --    0.10173   0.11395   0.14005   0.16887   0.17569
 Alpha virt. eigenvalues --    0.18087   0.19148   0.19972   0.20773   0.21821
 Alpha virt. eigenvalues --    0.23452   0.24619   0.25821   0.28220   0.29634
 Alpha virt. eigenvalues --    0.30913   0.32075   0.33080   0.33663   0.33918
 Alpha virt. eigenvalues --    0.36777   0.36992   0.37796   0.40260   0.41670
 Alpha virt. eigenvalues --    0.43222   0.46360   0.48547   0.50496   0.52993
 Alpha virt. eigenvalues --    0.54554   0.62202   0.62648   0.65373   0.70415
 Alpha virt. eigenvalues --    0.78681   0.79001   0.81367   0.81914   0.84893
 Alpha virt. eigenvalues --    0.86603   0.86745   0.90908   0.92856   0.93299
 Alpha virt. eigenvalues --    0.93941   0.95002   0.96674   0.99613   1.04611
 Alpha virt. eigenvalues --    1.05933   1.06098   1.07209   1.10976   1.11170
 Alpha virt. eigenvalues --    1.11633   1.12892   1.13443   1.14463   1.19563
 Alpha virt. eigenvalues --    1.21058   1.21623   1.22521   1.24478   1.25944
 Alpha virt. eigenvalues --    1.28518   1.28866   1.30294   1.31913   1.32775
 Alpha virt. eigenvalues --    1.35207   1.36423   1.39547   1.39952   1.47558
 Alpha virt. eigenvalues --    1.49772   1.50603   1.50958   1.56245   1.56956
 Alpha virt. eigenvalues --    1.60741   1.65320   1.65893   1.67257   1.69196
 Alpha virt. eigenvalues --    1.69284   1.70401   1.76122   1.76809   1.79330
 Alpha virt. eigenvalues --    1.82914   1.84616   1.86330   1.88141   2.02286
 Alpha virt. eigenvalues --    2.13474   2.17908   2.27251   2.30787   2.32270
 Alpha virt. eigenvalues --    2.34491   2.44242   2.48448   2.52776   2.56360
 Alpha virt. eigenvalues --    2.56657   2.65271   2.87182   3.00265   3.03647
 Alpha virt. eigenvalues --    3.08463   3.13123   3.17391   3.17634   3.18616
 Alpha virt. eigenvalues --    3.20438   3.22369   3.26001   3.27307   3.27673
 Alpha virt. eigenvalues --    3.28241   3.31723   3.33872   3.36840   3.39808
 Alpha virt. eigenvalues --    3.43806   3.48065   3.50112   3.53546   3.57162
 Alpha virt. eigenvalues --    3.57784   3.58305   3.60752   3.64018   3.65689
 Alpha virt. eigenvalues --    3.68665   3.73132   3.74546   3.75927   3.76708
 Alpha virt. eigenvalues --    3.81297   3.81688   3.82324   3.82586   3.83699
 Alpha virt. eigenvalues --    3.85584   3.93205   3.95256   3.96192   3.97080
 Alpha virt. eigenvalues --    3.97212   3.98138   4.00109   4.00267   4.03096
 Alpha virt. eigenvalues --    4.07081   4.08203   4.10860   4.13401   4.13691
 Alpha virt. eigenvalues --    4.15597   4.18065   4.19118   4.21653   4.22449
 Alpha virt. eigenvalues --    4.25869   4.28632   4.29358   4.34843   4.36307
 Alpha virt. eigenvalues --    4.36852   4.42647   4.45360   4.45485   4.46226
 Alpha virt. eigenvalues --    4.54731   4.55448   4.58115   4.60963   4.61729
 Alpha virt. eigenvalues --    4.61803   4.63756   4.65302   4.66331   4.67615
 Alpha virt. eigenvalues --    4.70141   4.72236   4.72347   4.73779   4.75150
 Alpha virt. eigenvalues --    4.81443   4.82725   4.86036   4.87273   4.87906
 Alpha virt. eigenvalues --    4.91964   4.98981   5.01147   5.03113   5.04241
 Alpha virt. eigenvalues --    5.16765   5.20799   5.33826   5.35793   5.38211
 Alpha virt. eigenvalues --    5.45734   5.52028   5.60118   5.64111   5.67469
 Alpha virt. eigenvalues --    5.72917   5.74045   5.77704   5.78986   5.80579
 Alpha virt. eigenvalues --    5.80581   5.84015   5.84623   5.85123   5.88597
 Alpha virt. eigenvalues --    5.96345   5.98244   5.99256   5.99810   6.00471
 Alpha virt. eigenvalues --    6.04367   6.12495   6.13226   6.48582   6.93595
 Alpha virt. eigenvalues --    7.11178   8.10669   8.34369
          Condensed to atoms (all electrons):
               1          2          3          4          5          6
     1  C    5.197521   0.739556  -0.079003  -0.013903  -0.018071  -0.000626
     2  C    0.739556   4.940755   0.380530  -0.045737  -0.023726  -0.001739
     3  C   -0.079003   0.380530   4.506456   0.354523  -0.040047   0.003969
     4  C   -0.013903  -0.045737   0.354523   5.030991   0.916264  -0.067950
     5  C   -0.018071  -0.023726  -0.040047   0.916264   5.069245   0.309144
     6  C   -0.000626  -0.001739   0.003969  -0.067950   0.309144   4.561463
     7  H    0.515154  -0.094907  -0.001934  -0.000795  -0.000345   0.000002
     8  H   -0.003053  -0.052156   0.437359  -0.055469  -0.002245   0.000011
     9  H   -0.003053  -0.052156   0.437359  -0.055469  -0.002245   0.000011
    10  H   -0.000029  -0.000215   0.000037  -0.002584  -0.050888   0.427838
    11  H    0.000046   0.000540   0.000156  -0.001024  -0.051088   0.426596
    12  H   -0.000029  -0.000215   0.000037  -0.002584  -0.050888   0.427838
               7          8          9         10         11         12
     1  C    0.515154  -0.003053  -0.003053  -0.000029   0.000046  -0.000029
     2  C   -0.094907  -0.052156  -0.052156  -0.000215   0.000540  -0.000215
     3  C   -0.001934   0.437359   0.437359   0.000037   0.000156   0.000037
     4  C   -0.000795  -0.055469  -0.055469  -0.002584  -0.001024  -0.002584
     5  C   -0.000345  -0.002245  -0.002245  -0.050888  -0.051088  -0.050888
     6  C    0.000002   0.000011   0.000011   0.427838   0.426596   0.427838
     7  H    0.547127  -0.000146  -0.000146  -0.000001   0.000004  -0.000001
     8  H   -0.000146   0.654309  -0.043985  -0.000154  -0.000100   0.000438
     9  H   -0.000146  -0.043985   0.654309   0.000438  -0.000100  -0.000154
    10  H   -0.000001  -0.000154   0.000438   0.634366  -0.029182  -0.030434
    11  H    0.000004  -0.000100  -0.000100  -0.029182   0.628903  -0.029182
    12  H   -0.000001   0.000438  -0.000154  -0.030434  -0.029182   0.634366
 Mulliken charges:
               1
     1  C   -0.334510
     2  C    0.209469
     3  C    0.000557
     4  C   -0.056264
     5  C   -0.055109
     6  C   -0.086557
     7  H    0.035988
     8  H    0.065191
     9  H    0.065191
    10  H    0.050806
    11  H    0.054431
    12  H    0.050806
 Sum of Mulliken charges =  -0.00000
 Mulliken charges with hydrogens summed into heavy atoms:
               1
     1  C   -0.298522
     2  C    0.209469
     3  C    0.130938
     4  C   -0.056264
     5  C   -0.055109
     6  C    0.069487
 Electronic spatial extent (au):  <R**2>=            851.5695
 Charge=             -0.0000 electrons
 Dipole moment (field-independent basis, Debye):
    X=              0.3750    Y=              0.7577    Z=              0.0000  Tot=              0.8455
 Quadrupole moment (field-independent basis, Debye-Ang):
   XX=            -31.3420   YY=            -31.8886   ZZ=            -37.2767
   XY=              1.7931   XZ=              0.0000   YZ=              0.0000
 Traceless Quadrupole moment (field-independent basis, Debye-Ang):
   XX=              2.1604   YY=              1.6138   ZZ=             -3.7743
   XY=              1.7931   XZ=              0.0000   YZ=              0.0000
 Octapole moment (field-independent basis, Debye-Ang**2):
  XXX=             15.7865  YYY=            -20.8786  ZZZ=             -0.0000  XYY=              1.4266
  XXY=             12.9135  XXZ=             -0.0000  XZZ=              1.0323  YZZ=              4.8868
  YYZ=             -0.0000  XYZ=              0.0000
 Hexadecapole moment (field-independent basis, Debye-Ang**3):
 XXXX=           -568.9140 YYYY=           -448.5399 ZZZZ=            -57.2339 XXXY=           -213.5873
 XXXZ=             -0.0000 YYYX=           -164.6572 YYYZ=             -0.0000 ZZZX=             -0.0000
 ZZZY=              0.0000 XXYY=           -180.5633 XXZZ=           -105.1507 YYZZ=           -110.0738
 XXYZ=              0.0000 YYXZ=              0.0000 ZZXY=            -72.9318
 N-N= 1.749437060267D+02 E-N=-8.882479782717D+02  KE= 2.311970386262D+02
 Symmetry A'   KE= 2.225648618494D+02
 Symmetry A"   KE= 8.632176776858D+00
 Calling FoFJK, ICntrl=      2127 FMM=F ISym2X=1 I1Cent= 0 IOpClX= 0 NMat=1 NMatS=1 NMatT=0.
 ***** Axes restored to original set *****
 -------------------------------------------------------------------
 Center     Atomic                   Forces (Hartrees/Bohr)
 Number     Number              X              Y              Z
 -------------------------------------------------------------------
      1        6           0.003596466   -0.003604129   -0.000000000
      2        6          -0.003751864    0.003135063    0.000000000
      3        6          -0.000692268   -0.002931149    0.000000000
      4        6           0.005501688    0.001880910    0.000000000
      5        6          -0.004879959   -0.002106511   -0.000000000
      6        6           0.002990723    0.001212000    0.000000000
      7        1           0.000257379   -0.000230765   -0.000000000
      8        1           0.000380123    0.002026971    0.001837970
      9        1           0.000380123    0.002026971   -0.001837970
     10        1          -0.001697057    0.000634991   -0.002052917
     11        1          -0.000388298   -0.002679344   -0.000000000
     12        1          -0.001697057    0.000634991    0.002052917
 -------------------------------------------------------------------
 Cartesian Forces:  Max     0.005501688 RMS     0.002167169

 GradGradGradGradGradGradGradGradGradGradGradGradGradGradGradGradGradGrad
 Berny optimization.
 FormGI is forming the generalized inverse of G from B-inverse, IUseBI=4.
 Internal  Forces:  Max     0.006119878 RMS     0.001636893
 Search for a local minimum.
 Step number   1 out of a maximum of   50
 All quantities printed in internal units (Hartrees-Bohrs-Radians)
 Mixed Optimization -- RFO/linear search
 Second derivative matrix not updated -- first step.
 ITU=  0
     Eigenvalues ---    0.00230   0.00609   0.00609   0.01020   0.01176
     Eigenvalues ---    0.01232   0.01232   0.03414   0.03490   0.05491
     Eigenvalues ---    0.05929   0.07319   0.08455   0.16000   0.16000
     Eigenvalues ---    0.16000   0.16000   0.16000   0.22307   0.33792
     Eigenvalues ---    0.33792   0.34183   0.34183   0.34186   0.36376
     Eigenvalues ---    0.36425   0.37507   0.38300   1.03544   1.04539
 RFO step:  Lambda=-1.94505819D-04 EMin= 2.30000000D-03
 Linear search not attempted -- first point.
 Iteration  1 RMS(Cart)=  0.00994159 RMS(Int)=  0.00004723
 Iteration  2 RMS(Cart)=  0.00007923 RMS(Int)=  0.00000184
 Iteration  3 RMS(Cart)=  0.00000000 RMS(Int)=  0.00000184
 ClnCor:  largest displacement from symmetrization is 1.47D-09 for atom     1.
 Variable       Old X    -DE/DX   Delta X   Delta X   Delta X     New X
                                 (Linear)    (Quad)   (Total)
    R1        2.26874  -0.00544   0.00000  -0.00520  -0.00520   2.26354
    R2        2.00631  -0.00035   0.00000  -0.00090  -0.00090   2.00541
    R3        2.76798  -0.00057   0.00000  -0.00156  -0.00156   2.76641
    R4        2.76722  -0.00031   0.00000  -0.00085  -0.00085   2.76637
    R5        2.07682  -0.00271   0.00000  -0.00802  -0.00802   2.06880
    R6        2.07682  -0.00271   0.00000  -0.00802  -0.00802   2.06880
    R7        2.27252  -0.00612   0.00000  -0.00591  -0.00591   2.26661
    R8        2.75089  -0.00081   0.00000  -0.00216  -0.00216   2.74873
    R9        2.07023  -0.00271   0.00000  -0.00792  -0.00792   2.06231
   R10        2.07017  -0.00268   0.00000  -0.00784  -0.00784   2.06233
   R11        2.07023  -0.00271   0.00000  -0.00792  -0.00792   2.06231
    A1        1.98400   0.00081   0.00000   0.00299   0.00300   1.98700
    A2        1.90356  -0.00033   0.00000  -0.00241  -0.00241   1.90115
    A3        1.90356  -0.00033   0.00000  -0.00241  -0.00241   1.90115
    A4        1.91334  -0.00033   0.00000  -0.00145  -0.00145   1.91189
    A5        1.91334  -0.00033   0.00000  -0.00145  -0.00145   1.91189
    A6        1.84049   0.00050   0.00000   0.00489   0.00489   1.84538
    A7        1.94330  -0.00039   0.00000  -0.00245  -0.00246   1.94085
    A8        1.93907  -0.00036   0.00000  -0.00225  -0.00225   1.93682
    A9        1.94330  -0.00039   0.00000  -0.00245  -0.00246   1.94085
   A10        1.87815   0.00041   0.00000   0.00252   0.00252   1.88067
   A11        1.87880   0.00041   0.00000   0.00256   0.00255   1.88135
   A12        1.87815   0.00041   0.00000   0.00252   0.00252   1.88067
   A13        3.13613  -0.00004   0.00000  -0.00591  -0.00591   3.13022
   A14        3.15256   0.00000   0.00000   0.00025   0.00025   3.15281
   A15        3.14576   0.00018   0.00000   0.00163   0.00164   3.14740
   A16        3.13854  -0.00018   0.00000  -0.01768  -0.01767   3.12087
   A17        3.14159  -0.00000   0.00000  -0.00000   0.00000   3.14159
   A18        3.14159   0.00000   0.00000   0.00000   0.00000   3.14159
   A19        3.14159   0.00000   0.00000   0.00000   0.00000   3.14159
   A20        3.14159   0.00000   0.00000   0.00000   0.00000   3.14159
    D1        2.09300  -0.00001   0.00000  -0.00364  -0.00364   2.08936
    D2        0.00000   0.00000   0.00000   0.00000   0.00000   0.00000
    D3       -2.09300   0.00001   0.00000   0.00364   0.00364  -2.08936
    D4       -2.05436  -0.00011   0.00000  -0.00732  -0.00732  -2.06168
    D5        2.13582  -0.00010   0.00000  -0.00368  -0.00368   2.13214
    D6        0.04282  -0.00009   0.00000  -0.00004  -0.00004   0.04278
    D7       -0.04282   0.00009   0.00000   0.00004   0.00004  -0.04278
    D8       -2.13582   0.00010   0.00000   0.00368   0.00368  -2.13214
    D9        2.05436   0.00011   0.00000   0.00732   0.00732   2.06168
         Item               Value     Threshold  Converged?
 Maximum Force            0.006120     0.000450     NO 
 RMS     Force            0.001637     0.000300     NO 
 Maximum Displacement     0.036099     0.001800     NO 
 RMS     Displacement     0.009962     0.001200     NO 
 Predicted change in Energy=-9.735038D-05
 GradGradGradGradGradGradGradGradGradGradGradGradGradGradGradGradGradGrad

                          Input orientation:                          
 ---------------------------------------------------------------------
 Center     Atomic      Atomic             Coordinates (Angstroms)
 Number     Number       Type             X           Y           Z
 ---------------------------------------------------------------------
      1          6           0       -2.793978    0.897829    0.000000
      2          6           0       -1.943220    0.054639    0.000000
      3          6           0       -0.915082   -0.987473    0.000000
      4          6           0        0.453710   -0.468431    0.000000
      5          6           0        1.577674   -0.049670    0.000000
      6          6           0        2.929892    0.486302    0.000000
      7          1           0       -3.539173    1.653388    0.000000
      8          1           0       -1.062445   -1.631717   -0.872776
      9          1           0       -1.062445   -1.631717    0.872776
     10          1           0        3.483878    0.159777    0.881743
     11          1           0        2.917507    1.577571    0.000000
     12          1           0        3.483878    0.159777   -0.881743
 ---------------------------------------------------------------------
                    Distance matrix (angstroms):
                    1          2          3          4          5
     1  C    0.000000
     2  C    1.197814   0.000000
     3  C    2.661694   1.463922   0.000000
     4  C    3.523372   2.453341   1.463898   0.000000
     5  C    4.473153   3.522439   2.663326   1.199439   0.000000
     6  C    5.738644   4.892193   4.117746   2.653863   1.454565
     7  H    1.061219   2.258996   3.722902   4.521641   5.392822
     8  H    3.187248   2.093156   1.094762   2.100881   3.199194
     9  H    3.187248   2.093156   1.094762   2.100881   3.199194
    10  H    6.382294   5.499266   4.630821   3.217768   2.110676
    11  H    5.751793   5.093721   4.611745   3.202565   2.107859
    12  H    6.382294   5.499266   4.630821   3.217768   2.110676
                    6          7          8          9         10
     6  C    0.000000
     7  H    6.573499   0.000000
     8  H    4.602879   4.205691   0.000000
     9  H    4.602879   4.205691   1.745552   0.000000
    10  H    1.091325   7.234058   5.191998   4.886572   0.000000
    11  H    1.091339   6.457126   5.186646   5.186646   1.763062
    12  H    1.091325   7.234058   4.886572   5.191998   1.763487
                   11         12
    11  H    0.000000
    12  H    1.763062   0.000000
 Stoichiometry    C6H6
 Framework group  CS[SG(C6H2),X(H4)]
 Deg. of freedom    19
 Full point group                 CS      NOp   2
 Largest Abelian subgroup         CS      NOp   2
 Largest concise Abelian subgroup CS      NOp   2
                         Standard orientation:                         
 ---------------------------------------------------------------------
 Center     Atomic      Atomic             Coordinates (Angstroms)
 Number     Number       Type             X           Y           Z
 ---------------------------------------------------------------------
      1          6           0       -1.379286   -2.593233    0.000000
      2          6           0       -1.355922   -1.395647    0.000000
      3          6           0       -1.343786    0.068225    0.000000
      4          6           0        0.000000    0.648945    0.000000
      5          6           0        1.098247    1.131137    0.000000
      6          6           0        2.441928    1.688165    0.000000
      7          1           0       -1.387918   -3.654416    0.000000
      8          1           0       -1.898190    0.427951    0.872776
      9          1           0       -1.898190    0.427951   -0.872776
     10          1           0        2.612112    2.308292   -0.881743
     11          1           0        3.192992    0.896379    0.000000
     12          1           0        2.612112    2.308292    0.881743
 ---------------------------------------------------------------------
 Rotational constants (GHZ):          12.4332026           1.5073912           1.3669612
 Basis read from rwf:  (5D, 7F)
 There are   196 symmetry adapted cartesian basis functions of A'  symmetry.
 There are   104 symmetry adapted cartesian basis functions of A"  symmetry.
 There are   168 symmetry adapted basis functions of A'  symmetry.
 There are    96 symmetry adapted basis functions of A"  symmetry.
   264 basis functions,   414 primitive gaussians,   300 cartesian basis functions
    21 alpha electrons       21 beta electrons
       nuclear repulsion energy       175.2167113236 Hartrees.
 NAtoms=   12 NActive=   12 NUniq=   10 SFac= 1.44D+00 NAtFMM=   60 NAOKFM=F Big=F
 Integral buffers will be    131072 words long.
 Raffenetti 2 integral format.
 Two-electron integral symmetry is turned on.
 One-electron integrals computed using PRISM.
 NBasis=   264 RedAO= T EigKep=  2.30D-05  NBF=   168    96
 NBsUse=   264 1.00D-06 EigRej= -1.00D+00 NBFU=   168    96
 Initial guess from the checkpoint file:  "/wrk/irikura/Gau-12673.chk"
 B after Tr=    -0.000000    0.000000    0.000000
         Rot=    0.999999    0.000000    0.000000    0.001019 Ang=   0.12 deg.
 Initial guess orbital symmetries:
       Occupied  (A') (A') (A') (A') (A') (A') (A') (A') (A') (A')
                 (A') (A') (A') (A") (A') (A') (A") (A') (A") (A')
                 (A")
       Virtual   (A') (A') (A") (A') (A") (A') (A') (A") (A') (A')
                 (A") (A') (A') (A') (A") (A') (A") (A') (A') (A')
                 (A") (A') (A') (A') (A") (A') (A') (A") (A") (A')
                 (A") (A') (A') (A') (A") (A') (A') (A') (A') (A')
                 (A') (A') (A') (A") (A') (A") (A') (A") (A') (A')
                 (A') (A") (A") (A') (A") (A') (A') (A") (A") (A")
                 (A') (A") (A') (A") (A') (A') (A') (A") (A') (A')
                 (A") (A') (A') (A') (A") (A") (A') (A") (A') (A")
                 (A') (A') (A") (A') (A') (A') (A') (A") (A") (A')
                 (A') (A') (A') (A") (A") (A') (A') (A') (A") (A')
                 (A') (A') (A") (A') (A') (A') (A") (A') (A") (A')
                 (A') (A') (A") (A') (A') (A") (A') (A') (A') (A")
                 (A') (A") (A") (A') (A") (A') (A') (A") (A") (A')
                 (A') (A') (A") (A") (A') (A') (A') (A") (A') (A")
                 (A") (A') (A") (A') (A') (A') (A') (A") (A') (A")
                 (A") (A') (A') (A") (A") (A") (A') (A") (A") (A')
                 (A") (A") (A') (A') (A') (A") (A') (A") (A") (A')
                 (A") (A') (A') (A") (A') (A') (A') (A") (A') (A')
                 (A") (A') (A') (A") (A') (A') (A") (A') (A") (A")
                 (A') (A") (A') (A') (A') (A") (A") (A') (A") (A')
                 (A') (A") (A') (A') (A") (A') (A') (A") (A') (A')
                 (A') (A") (A') (A') (A") (A') (A') (A") (A') (A')
                 (A') (A") (A") (A') (A') (A") (A") (A") (A') (A")
                 (A') (A') (A') (A") (A') (A") (A') (A") (A') (A')
                 (A') (A') (A')
 ExpMin= 7.42D-02 ExpMax= 7.32D+03 ExpMxC= 2.50D+02 IAcc=3 IRadAn=         5 AccDes= 0.00D+00
 Harris functional with IExCor=  402 and IRadAn=       5 diagonalized for initial guess.
 HarFok:  IExCor=  402 AccDes= 0.00D+00 IRadAn=         5 IDoV= 1 UseB2=F ITyADJ=14
 ICtDFT=  3500011 ScaDFX=  1.000000  1.000000  1.000000  1.000000
 FoFCou: FMM=F IPFlag=           0 FMFlag=      100000 FMFlg1=           0
         NFxFlg=           0 DoJE=T BraDBF=F KetDBF=T FulRan=T
         wScrn=  0.000000 ICntrl=       500 IOpCl=  0 I1Cent=   200000004 NGrid=           0
         NMat0=    1 NMatS0=      1 NMatT0=    0 NMatD0=    1 NMtDS0=    0 NMtDT0=    0
 Petite list used in FoFCou.
 Keep R1 ints in memory in symmetry-blocked form, NReq=919665711.
 Requested convergence on RMS density matrix=1.00D-08 within 128 cycles.
 Requested convergence on MAX density matrix=1.00D-06.
 Requested convergence on             energy=1.00D-06.
 No special actions if energy rises.
 Integral accuracy reduced to 1.0D-05 until final iterations.
 Initial convergence to 1.0D-05 achieved.  Increase integral accuracy.
 SCF Done:  E(RB3LYP) =  -232.209107623     A.U. after   10 cycles
            NFock= 10  Conv=0.39D-08     -V/T= 2.0041
 Calling FoFJK, ICntrl=      2127 FMM=F ISym2X=1 I1Cent= 0 IOpClX= 0 NMat=1 NMatS=1 NMatT=0.
 ***** Axes restored to original set *****
 -------------------------------------------------------------------
 Center     Atomic                   Forces (Hartrees/Bohr)
 Number     Number              X              Y              Z
 -------------------------------------------------------------------
      1        6          -0.000017922    0.000343760    0.000000000
      2        6           0.000052788   -0.000012175   -0.000000000
      3        6          -0.000106803   -0.000800557   -0.000000000
      4        6           0.000005969   -0.000171543   -0.000000000
      5        6          -0.000568119    0.000770554   -0.000000000
      6        6           0.001020536   -0.000233516   -0.000000000
      7        1          -0.000123569   -0.000123433    0.000000000
      8        1           0.000031039    0.000178155    0.000022764
      9        1           0.000031039    0.000178155   -0.000022764
     10        1          -0.000045931   -0.000008405   -0.000052599
     11        1          -0.000233098   -0.000112590    0.000000000
     12        1          -0.000045931   -0.000008405    0.000052599
 -------------------------------------------------------------------
 Cartesian Forces:  Max     0.001020536 RMS     0.000288173

 GradGradGradGradGradGradGradGradGradGradGradGradGradGradGradGradGradGrad
 Berny optimization.
 Using GEDIIS/GDIIS optimizer.
 FormGI is forming the generalized inverse of G from B-inverse, IUseBI=4.
 Internal  Forces:  Max     0.001111111 RMS     0.000250779
 Search for a local minimum.
 Step number   2 out of a maximum of   50
 All quantities printed in internal units (Hartrees-Bohrs-Radians)
 Mixed Optimization -- En-DIIS/RFO-DIIS
 Update second derivatives using D2CorX and points    1    2
 DE= -8.72D-05 DEPred=-9.74D-05 R= 8.96D-01
 TightC=F SS=  1.41D+00  RLast= 3.13D-02 DXNew= 5.0454D-01 9.4010D-02
 Trust test= 8.96D-01 RLast= 3.13D-02 DXMaxT set to 3.00D-01
 ITU=  1  0
 Use linear search instead of GDIIS.
     Eigenvalues ---    0.00230   0.00609   0.00617   0.01177   0.01213
     Eigenvalues ---    0.01232   0.01259   0.03415   0.03482   0.05543
     Eigenvalues ---    0.05998   0.07330   0.08119   0.15592   0.16000
     Eigenvalues ---    0.16000   0.16000   0.16072   0.22317   0.31269
     Eigenvalues ---    0.33792   0.33987   0.34183   0.34189   0.36398
     Eigenvalues ---    0.36555   0.38220   0.38342   1.03449   1.04581
 RFO step:  Lambda=-1.06429367D-04 EMin= 2.30000000D-03
 Quartic linear search produced a step of -0.09574.
 Iteration  1 RMS(Cart)=  0.06085914 RMS(Int)=  0.00144892
 Iteration  2 RMS(Cart)=  0.00214962 RMS(Int)=  0.00013952
 Iteration  3 RMS(Cart)=  0.00000150 RMS(Int)=  0.00013952
 Iteration  4 RMS(Cart)=  0.00000000 RMS(Int)=  0.00013952
 ClnCor:  largest displacement from symmetrization is 3.43D-09 for atom     1.
 Variable       Old X    -DE/DX   Delta X   Delta X   Delta X     New X
                                 (Linear)    (Quad)   (Total)
    R1        2.26354   0.00026   0.00050  -0.00314  -0.00264   2.26090
    R2        2.00541  -0.00000   0.00009  -0.00059  -0.00050   2.00491
    R3        2.76641   0.00021   0.00015  -0.00049  -0.00034   2.76607
    R4        2.76637   0.00021   0.00008  -0.00003   0.00005   2.76642
    R5        2.06880  -0.00013   0.00077  -0.00553  -0.00476   2.06404
    R6        2.06880  -0.00013   0.00077  -0.00553  -0.00476   2.06404
    R7        2.26661   0.00026   0.00057  -0.00359  -0.00303   2.26358
    R8        2.74873   0.00051   0.00021  -0.00016   0.00005   2.74878
    R9        2.06231  -0.00006   0.00076  -0.00529  -0.00453   2.05777
   R10        2.06233  -0.00011   0.00075  -0.00536  -0.00461   2.05772
   R11        2.06231  -0.00006   0.00076  -0.00529  -0.00453   2.05777
    A1        1.98700  -0.00009  -0.00029   0.00160   0.00139   1.98839
    A2        1.90115  -0.00008   0.00023  -0.00202  -0.00172   1.89943
    A3        1.90115  -0.00008   0.00023  -0.00202  -0.00172   1.89943
    A4        1.91189  -0.00001   0.00014  -0.00105  -0.00095   1.91094
    A5        1.91189  -0.00001   0.00014  -0.00105  -0.00095   1.91094
    A6        1.84538   0.00029  -0.00047   0.00480   0.00417   1.84955
    A7        1.94085   0.00009   0.00024  -0.00116  -0.00104   1.93981
    A8        1.93682  -0.00046   0.00022  -0.00387  -0.00342   1.93340
    A9        1.94085   0.00009   0.00024  -0.00116  -0.00104   1.93981
   A10        1.88067   0.00002  -0.00024   0.00194   0.00192   1.88259
   A11        1.88135   0.00025  -0.00024   0.00268   0.00197   1.88332
   A12        1.88067   0.00002  -0.00024   0.00194   0.00192   1.88259
   A13        3.13022   0.00035   0.00057   0.04725   0.04782   3.17804
   A14        3.15281   0.00022  -0.00002   0.01640   0.01637   3.16918
   A15        3.14740   0.00037  -0.00016   0.00861   0.00865   3.15604
   A16        3.12087   0.00111   0.00169   0.06445   0.06640   3.18727
   A17        3.14159  -0.00000   0.00000  -0.00000   0.00000   3.14159
   A18        3.14159  -0.00000   0.00000   0.00000   0.00000   3.14159
   A19        3.14159  -0.00000   0.00000  -0.00000   0.00000   3.14159
   A20        3.14159  -0.00000   0.00000   0.00000   0.00000   3.14159
    D1        2.08936   0.00007   0.00035   0.01443   0.01459   2.10395
    D2        0.00000  -0.00000   0.00000  -0.00000   0.00000   0.00000
    D3       -2.08936  -0.00007  -0.00035  -0.01443  -0.01459  -2.10395
    D4       -2.06168   0.00009   0.00070   0.02070   0.02115  -2.04054
    D5        2.13214   0.00002   0.00035   0.00627   0.00656   2.13870
    D6        0.04278  -0.00005   0.00000  -0.00816  -0.00803   0.03475
    D7       -0.04278   0.00005  -0.00000   0.00816   0.00803  -0.03475
    D8       -2.13214  -0.00002  -0.00035  -0.00627  -0.00656  -2.13870
    D9        2.06168  -0.00009  -0.00070  -0.02070  -0.02115   2.04054
         Item               Value     Threshold  Converged?
 Maximum Force            0.001111     0.000450     NO 
 RMS     Force            0.000251     0.000300     YES
 Maximum Displacement     0.183667     0.001800     NO 
 RMS     Displacement     0.061143     0.001200     NO 
 Predicted change in Energy=-5.484671D-05
 GradGradGradGradGradGradGradGradGradGradGradGradGradGradGradGradGradGrad

                          Input orientation:                          
 ---------------------------------------------------------------------
 Center     Atomic      Atomic             Coordinates (Angstroms)
 Number     Number       Type             X           Y           Z
 ---------------------------------------------------------------------
      1          6           0       -2.832002    0.881259    0.000000
      2          6           0       -1.953968    0.068569    0.000000
      3          6           0       -0.907583   -0.954963    0.000000
      4          6           0        0.452539   -0.413535    0.000000
      5          6           0        1.571725    0.013356    0.000000
      6          6           0        2.953058    0.469153    0.000000
      7          1           0       -3.636365    1.573085    0.000000
      8          1           0       -1.043707   -1.598265   -0.872140
      9          1           0       -1.043707   -1.598265    0.872140
     10          1           0        3.484690    0.111438    0.880435
     11          1           0        3.000827    1.557005    0.000000
     12          1           0        3.484690    0.111438   -0.880435
 ---------------------------------------------------------------------
                    Distance matrix (angstroms):
                    1          2          3          4          5
     1  C    0.000000
     2  C    1.196414   0.000000
     3  C    2.659906   1.463742   0.000000
     4  C    3.530538   2.454323   1.463924   0.000000
     5  C    4.488438   3.526126   2.661693   1.197837   0.000000
     6  C    5.799720   4.923350   4.114930   2.651742   1.454589
     7  H    1.060954   2.256995   3.719849   4.545965   5.436632
     8  H    3.179098   2.089866   1.092243   2.098324   3.193499
     9  H    3.179098   2.089866   1.092243   2.098324   3.193499
    10  H    6.424048   5.509629   4.604827   3.200735   2.108132
    11  H    5.871842   5.173533   4.646036   3.221304   2.103612
    12  H    6.424048   5.509629   4.604827   3.200735   2.108132
                    6          7          8          9         10
     6  C    0.000000
     7  H    6.681255   0.000000
     8  H    4.583554   4.188074   0.000000
     9  H    4.583554   4.188074   1.744279   0.000000
    10  H    1.088926   7.322637   5.147910   4.840406   0.000000
    11  H    1.088900   6.637212   5.203327   5.203327   1.760384
    12  H    1.088926   7.322637   4.840406   5.147910   1.760871
                   11         12
    11  H    0.000000
    12  H    1.760384   0.000000
 Stoichiometry    C6H6
 Framework group  CS[SG(C6H2),X(H4)]
 Deg. of freedom    19
 Full point group                 CS      NOp   2
 Largest Abelian subgroup         CS      NOp   2
 Largest concise Abelian subgroup CS      NOp   2
                         Standard orientation:                         
 ---------------------------------------------------------------------
 Center     Atomic      Atomic             Coordinates (Angstroms)
 Number     Number       Type             X           Y           Z
 ---------------------------------------------------------------------
      1          6           0       -1.305626   -2.657602    0.000000
      2          6           0       -1.296607   -1.461222    0.000000
      3          6           0       -1.325953    0.002226    0.000000
      4          6           0        0.000000    0.622648    0.000000
      5          6           0        1.077496    1.145923    0.000000
      6          6           0        2.355571    1.840440    0.000000
      7          1           0       -1.352276   -3.717530    0.000000
      8          1           0       -1.887972    0.343550    0.872140
      9          1           0       -1.887972    0.343550   -0.872140
     10          1           0        2.458941    2.472822   -0.880435
     11          1           0        3.181050    1.130308    0.000000
     12          1           0        2.458941    2.472822    0.880435
 ---------------------------------------------------------------------
 Rotational constants (GHZ):          13.2392700           1.4835290           1.3562071
 Basis read from rwf:  (5D, 7F)
 There are   196 symmetry adapted cartesian basis functions of A'  symmetry.
 There are   104 symmetry adapted cartesian basis functions of A"  symmetry.
 There are   168 symmetry adapted basis functions of A'  symmetry.
 There are    96 symmetry adapted basis functions of A"  symmetry.
   264 basis functions,   414 primitive gaussians,   300 cartesian basis functions
    21 alpha electrons       21 beta electrons
       nuclear repulsion energy       175.2103332692 Hartrees.
 NAtoms=   12 NActive=   12 NUniq=   10 SFac= 1.44D+00 NAtFMM=   60 NAOKFM=F Big=F
 Integral buffers will be    131072 words long.
 Raffenetti 2 integral format.
 Two-electron integral symmetry is turned on.
 One-electron integrals computed using PRISM.
 NBasis=   264 RedAO= T EigKep=  2.30D-05  NBF=   168    96
 NBsUse=   264 1.00D-06 EigRej= -1.00D+00 NBFU=   168    96
 Initial guess from the checkpoint file:  "/wrk/irikura/Gau-12673.chk"
 B after Tr=     0.000000    0.000000   -0.000000
         Rot=    0.999759   -0.000000   -0.000000   -0.021975 Ang=  -2.52 deg.
 Initial guess orbital symmetries:
       Occupied  (A') (A') (A') (A') (A') (A') (A') (A') (A') (A')
                 (A') (A') (A') (A") (A') (A') (A") (A') (A") (A')
                 (A")
       Virtual   (A') (A') (A") (A') (A") (A') (A') (A") (A') (A')
                 (A") (A') (A') (A') (A") (A') (A") (A') (A') (A')
                 (A") (A') (A') (A') (A") (A') (A') (A") (A") (A')
                 (A") (A') (A') (A') (A") (A') (A') (A') (A') (A')
                 (A') (A') (A') (A") (A') (A") (A') (A") (A') (A')
                 (A") (A') (A") (A') (A") (A') (A') (A") (A") (A")
                 (A') (A") (A') (A") (A') (A') (A') (A") (A') (A')
                 (A") (A') (A') (A') (A") (A") (A') (A") (A') (A")
                 (A') (A') (A") (A') (A') (A') (A') (A") (A") (A')
                 (A') (A') (A') (A") (A") (A') (A') (A') (A") (A')
                 (A') (A') (A") (A') (A') (A') (A") (A') (A") (A')
                 (A') (A') (A") (A') (A') (A") (A') (A') (A') (A")
                 (A') (A") (A") (A') (A") (A') (A') (A") (A") (A')
                 (A') (A') (A") (A") (A') (A') (A') (A") (A') (A")
                 (A") (A') (A") (A') (A') (A') (A') (A") (A') (A")
                 (A') (A") (A') (A") (A") (A") (A') (A") (A") (A')
                 (A") (A") (A') (A') (A') (A") (A') (A") (A") (A')
                 (A") (A') (A') (A") (A') (A') (A') (A") (A') (A')
                 (A") (A') (A') (A") (A') (A') (A") (A') (A") (A')
                 (A") (A") (A') (A') (A') (A") (A') (A") (A") (A')
                 (A') (A") (A') (A') (A") (A') (A') (A") (A') (A')
                 (A') (A") (A') (A') (A") (A') (A') (A") (A') (A')
                 (A') (A") (A") (A') (A") (A') (A") (A") (A') (A")
                 (A') (A') (A') (A") (A') (A") (A') (A") (A') (A')
                 (A') (A') (A')
 ExpMin= 7.42D-02 ExpMax= 7.32D+03 ExpMxC= 2.50D+02 IAcc=3 IRadAn=         5 AccDes= 0.00D+00
 Harris functional with IExCor=  402 and IRadAn=       5 diagonalized for initial guess.
 HarFok:  IExCor=  402 AccDes= 0.00D+00 IRadAn=         5 IDoV= 1 UseB2=F ITyADJ=14
 ICtDFT=  3500011 ScaDFX=  1.000000  1.000000  1.000000  1.000000
 FoFCou: FMM=F IPFlag=           0 FMFlag=      100000 FMFlg1=           0
         NFxFlg=           0 DoJE=T BraDBF=F KetDBF=T FulRan=T
         wScrn=  0.000000 ICntrl=       500 IOpCl=  0 I1Cent=   200000004 NGrid=           0
         NMat0=    1 NMatS0=      1 NMatT0=    0 NMatD0=    1 NMtDS0=    0 NMtDT0=    0
 Petite list used in FoFCou.
 Keep R1 ints in memory in symmetry-blocked form, NReq=919665711.
 Requested convergence on RMS density matrix=1.00D-08 within 128 cycles.
 Requested convergence on MAX density matrix=1.00D-06.
 Requested convergence on             energy=1.00D-06.
 No special actions if energy rises.
 Integral accuracy reduced to 1.0D-05 until final iterations.
 Initial convergence to 1.0D-05 achieved.  Increase integral accuracy.
 SCF Done:  E(RB3LYP) =  -232.208887605     A.U. after   11 cycles
            NFock= 11  Conv=0.43D-08     -V/T= 2.0040
 Calling FoFJK, ICntrl=      2127 FMM=F ISym2X=1 I1Cent= 0 IOpClX= 0 NMat=1 NMatS=1 NMatT=0.
 ***** Axes restored to original set *****
 -------------------------------------------------------------------
 Center     Atomic                   Forces (Hartrees/Bohr)
 Number     Number              X              Y              Z
 -------------------------------------------------------------------
      1        6          -0.003341814    0.000755572    0.000000000
      2        6           0.001358819   -0.002286852    0.000000000
      3        6           0.000632460    0.002712834   -0.000000000
      4        6          -0.003028416   -0.000859321   -0.000000000
      5        6           0.003652574   -0.002300715    0.000000000
      6        6          -0.001599063    0.001747455    0.000000000
      7        1           0.000775488    0.001209935    0.000000000
      8        1          -0.000125400   -0.000831502   -0.001081931
      9        1          -0.000125400   -0.000831502    0.001081931
     10        1           0.000527850   -0.000431777    0.001211164
     11        1           0.000745051    0.001547650   -0.000000000
     12        1           0.000527850   -0.000431777   -0.001211164
 -------------------------------------------------------------------
 Cartesian Forces:  Max     0.003652574 RMS     0.001427547

 GradGradGradGradGradGradGradGradGradGradGradGradGradGradGradGradGradGrad
 Berny optimization.
 Using GEDIIS/GDIIS optimizer.
 FormGI is forming the generalized inverse of G from B-inverse, IUseBI=4.
 Internal  Forces:  Max     0.004199343 RMS     0.001352056
 Search for a local minimum.
 Step number   3 out of a maximum of   50
 All quantities printed in internal units (Hartrees-Bohrs-Radians)
 Mixed Optimization -- RFO/linear search
 Update second derivatives using D2CorX and points    1    3    2
 DE=  2.20D-04 DEPred=-5.48D-05 R=-4.01D+00
 Trust test=-4.01D+00 RLast= 9.35D-02 DXMaxT set to 1.50D-01
 ITU= -1  1  0
 Use linear search instead of GDIIS.
     Eigenvalues ---    0.00230   0.00609   0.00687   0.01173   0.01190
     Eigenvalues ---    0.01234   0.03426   0.03550   0.04649   0.05388
     Eigenvalues ---    0.06434   0.07242   0.10894   0.15650   0.16000
     Eigenvalues ---    0.16000   0.16002   0.16640   0.22667   0.32260
     Eigenvalues ---    0.33792   0.34013   0.34183   0.34194   0.36399
     Eigenvalues ---    0.36589   0.38139   0.38338   1.03989   1.06645
 RFO step:  Lambda=-1.46474030D-05 EMin= 2.30000000D-03
 Quartic linear search produced a step of -0.83355.
 Iteration  1 RMS(Cart)=  0.05049962 RMS(Int)=  0.00158417
 Iteration  2 RMS(Cart)=  0.00198191 RMS(Int)=  0.00007587
 Iteration  3 RMS(Cart)=  0.00000227 RMS(Int)=  0.00007585
 Iteration  4 RMS(Cart)=  0.00000000 RMS(Int)=  0.00007585
 ClnCor:  largest displacement from symmetrization is 1.50D-09 for atom    12.
 Variable       Old X    -DE/DX   Delta X   Delta X   Delta X     New X
                                 (Linear)    (Quad)   (Total)
    R1        2.26090   0.00322   0.00220   0.00039   0.00259   2.26349
    R2        2.00491   0.00020   0.00042   0.00003   0.00044   2.00536
    R3        2.76607   0.00064   0.00028   0.00069   0.00098   2.76705
    R4        2.76642   0.00050  -0.00004   0.00067   0.00063   2.76705
    R5        2.06404   0.00137   0.00397  -0.00018   0.00379   2.06783
    R6        2.06404   0.00137   0.00397  -0.00018   0.00379   2.06783
    R7        2.26358   0.00365   0.00252   0.00042   0.00295   2.26653
    R8        2.74878   0.00095  -0.00004   0.00148   0.00144   2.75021
    R9        2.05777   0.00138   0.00378  -0.00001   0.00377   2.06154
   R10        2.05772   0.00158   0.00384  -0.00002   0.00382   2.06154
   R11        2.05777   0.00138   0.00378  -0.00001   0.00377   2.06154
    A1        1.98839   0.00090  -0.00116   0.00047  -0.00073   1.98766
    A2        1.89943   0.00009   0.00143  -0.00051   0.00088   1.90031
    A3        1.89943   0.00009   0.00143  -0.00051   0.00088   1.90031
    A4        1.91094  -0.00029   0.00079  -0.00042   0.00039   1.91133
    A5        1.91094  -0.00029   0.00079  -0.00042   0.00039   1.91133
    A6        1.84955  -0.00061  -0.00347   0.00148  -0.00191   1.84764
    A7        1.93981  -0.00055   0.00087  -0.00027   0.00066   1.94047
    A8        1.93340   0.00151   0.00285  -0.00099   0.00172   1.93512
    A9        1.93981  -0.00055   0.00087  -0.00027   0.00066   1.94047
   A10        1.88259   0.00011  -0.00160   0.00049  -0.00123   1.88136
   A11        1.88332  -0.00064  -0.00164   0.00063  -0.00076   1.88256
   A12        1.88259   0.00011  -0.00160   0.00049  -0.00123   1.88136
   A13        3.17804  -0.00285  -0.03986  -0.02705  -0.06691   3.11113
   A14        3.16918  -0.00217  -0.01365  -0.01336  -0.02700   3.14218
   A15        3.15604  -0.00143  -0.00721   0.00192  -0.00540   3.15064
   A16        3.18727  -0.00420  -0.05535   0.01983  -0.03566   3.15160
   A17        3.14159  -0.00000   0.00000  -0.00000   0.00000   3.14159
   A18        3.14159   0.00000   0.00000   0.00000   0.00000   3.14159
   A19        3.14159   0.00000   0.00000   0.00000   0.00000   3.14159
   A20        3.14159   0.00000   0.00000   0.00000   0.00000   3.14159
    D1        2.10395  -0.00027  -0.01216   0.00404  -0.00803   2.09593
    D2        0.00000   0.00000   0.00000  -0.00000   0.00000   0.00000
    D3       -2.10395   0.00027   0.01216  -0.00404   0.00803  -2.09593
    D4       -2.04054  -0.00043  -0.01763   0.00574  -0.01176  -2.05229
    D5        2.13870  -0.00017  -0.00547   0.00170  -0.00373   2.13496
    D6        0.03475   0.00010   0.00670  -0.00234   0.00429   0.03904
    D7       -0.03475  -0.00010  -0.00670   0.00234  -0.00429  -0.03904
    D8       -2.13870   0.00017   0.00547  -0.00170   0.00373  -2.13496
    D9        2.04054   0.00043   0.01763  -0.00574   0.01176   2.05229
         Item               Value     Threshold  Converged?
 Maximum Force            0.004199     0.000450     NO 
 RMS     Force            0.001352     0.000300     NO 
 Maximum Displacement     0.182349     0.001800     NO 
 RMS     Displacement     0.051353     0.001200     NO 
 Predicted change in Energy=-1.772184D-05
 GradGradGradGradGradGradGradGradGradGradGradGradGradGradGradGradGradGrad

                          Input orientation:                          
 ---------------------------------------------------------------------
 Center     Atomic      Atomic             Coordinates (Angstroms)
 Number     Number       Type             X           Y           Z
 ---------------------------------------------------------------------
      1          6           0       -2.807766    0.885537    0.000000
      2          6           0       -1.955394    0.044019    0.000000
      3          6           0       -0.913996   -0.985324    0.000000
[...]
 Iteration  2 RMS(Cart)=  0.00000001 RMS(Int)=  0.00000000
 ClnCor:  largest displacement from symmetrization is 3.56D-09 for atom    12.
 Variable       Old X    -DE/DX   Delta X   Delta X   Delta X     New X
                                 (Linear)    (Quad)   (Total)
    R1        2.26376   0.00001   0.00000   0.00001   0.00001   2.26376
    R2        2.00541  -0.00000   0.00000  -0.00000  -0.00000   2.00541
    R3        2.76721   0.00000   0.00000   0.00000   0.00000   2.76721
    R4        2.76712   0.00000   0.00000   0.00000   0.00000   2.76713
    R5        2.06829  -0.00000   0.00000  -0.00000  -0.00000   2.06829
    R6        2.06829  -0.00000   0.00000  -0.00000  -0.00000   2.06829
    R7        2.26682   0.00001   0.00000   0.00001   0.00001   2.26683
    R8        2.75049   0.00001   0.00000   0.00003   0.00003   2.75052
    R9        2.06198  -0.00000   0.00000  -0.00001  -0.00001   2.06197
   R10        2.06202  -0.00000   0.00000  -0.00001  -0.00001   2.06201
   R11        2.06198  -0.00000   0.00000  -0.00001  -0.00001   2.06197
    A1        1.98742   0.00000   0.00000  -0.00000  -0.00000   1.98741
    A2        1.90056   0.00000   0.00000   0.00001   0.00001   1.90057
    A3        1.90056   0.00000   0.00000   0.00001   0.00001   1.90057
    A4        1.91126   0.00000   0.00000   0.00001   0.00001   1.91127
    A5        1.91126   0.00000   0.00000   0.00001   0.00001   1.91127
    A6        1.84753  -0.00000   0.00000  -0.00004  -0.00004   1.84750
    A7        1.94007   0.00000   0.00000   0.00001   0.00001   1.94008
    A8        1.93549   0.00000   0.00000   0.00001   0.00001   1.93550
    A9        1.94007   0.00000   0.00000   0.00001   0.00001   1.94008
   A10        1.88163  -0.00000   0.00000  -0.00001  -0.00001   1.88162
   A11        1.88249  -0.00000   0.00000  -0.00002  -0.00002   1.88247
   A12        1.88163  -0.00000   0.00000  -0.00001  -0.00001   1.88162
   A13        3.13567  -0.00000   0.00000  -0.00005  -0.00005   3.13562
   A14        3.15427  -0.00000   0.00000  -0.00003  -0.00003   3.15424
   A15        3.14933  -0.00001   0.00000  -0.00012  -0.00012   3.14921
   A16        3.13483  -0.00000   0.00000   0.00000   0.00000   3.13483
   A17        3.14159  -0.00000   0.00000  -0.00000   0.00000   3.14159
   A18        3.14159   0.00000   0.00000  -0.00000   0.00000   3.14159
   A19        3.14159   0.00000   0.00000  -0.00000   0.00000   3.14159
   A20        3.14159   0.00000   0.00000   0.00000   0.00000   3.14159
    D1        2.09247  -0.00000   0.00000  -0.00001  -0.00001   2.09245
    D2        0.00000   0.00000   0.00000   0.00000   0.00000   0.00000
    D3       -2.09247   0.00000   0.00000   0.00001   0.00001  -2.09245
    D4       -2.05766  -0.00000   0.00000  -0.00002  -0.00002  -2.05768
    D5        2.13306   0.00000   0.00000  -0.00001  -0.00001   2.13305
    D6        0.04059   0.00000   0.00000   0.00001   0.00001   0.04060
    D7       -0.04059  -0.00000   0.00000  -0.00001  -0.00001  -0.04060
    D8       -2.13306  -0.00000   0.00000   0.00001   0.00001  -2.13305
    D9        2.05766   0.00000   0.00000   0.00002   0.00002   2.05768
         Item               Value     Threshold  Converged?
 Maximum Force            0.000011     0.000450     YES
 RMS     Force            0.000003     0.000300     YES
 Maximum Displacement     0.000376     0.001800     YES
 RMS     Displacement     0.000121     0.001200     YES
 Predicted change in Energy=-1.125264D-09
 Optimization completed.
    -- Stationary point found.
                           ----------------------------
                           !   Optimized Parameters   !
                           ! (Angstroms and Degrees)  !
 --------------------------                            --------------------------
 ! Name  Definition              Value          Derivative Info.                !
 --------------------------------------------------------------------------------
 ! R1    R(1,2)                  1.1979         -DE/DX =    0.0                 !
 ! R2    R(1,7)                  1.0612         -DE/DX =    0.0                 !
 ! R3    R(2,3)                  1.4643         -DE/DX =    0.0                 !
 ! R4    R(3,4)                  1.4643         -DE/DX =    0.0                 !
 ! R5    R(3,8)                  1.0945         -DE/DX =    0.0                 !
 ! R6    R(3,9)                  1.0945         -DE/DX =    0.0                 !
 ! R7    R(4,5)                  1.1995         -DE/DX =    0.0                 !
 ! R8    R(5,6)                  1.4555         -DE/DX =    0.0                 !
 ! R9    R(6,10)                 1.0912         -DE/DX =    0.0                 !
 ! R10   R(6,11)                 1.0912         -DE/DX =    0.0                 !
 ! R11   R(6,12)                 1.0912         -DE/DX =    0.0                 !
 ! A1    A(2,3,4)              113.8706         -DE/DX =    0.0                 !
 ! A2    A(2,3,8)              108.8941         -DE/DX =    0.0                 !
 ! A3    A(2,3,9)              108.8941         -DE/DX =    0.0                 !
 ! A4    A(4,3,8)              109.5073         -DE/DX =    0.0                 !
 ! A5    A(4,3,9)              109.5073         -DE/DX =    0.0                 !
 ! A6    A(8,3,9)              105.8558         -DE/DX =    0.0                 !
 ! A7    A(5,6,10)             111.1577         -DE/DX =    0.0                 !
 ! A8    A(5,6,11)             110.8954         -DE/DX =    0.0                 !
 ! A9    A(5,6,12)             111.1577         -DE/DX =    0.0                 !
 ! A10   A(10,6,11)            107.8093         -DE/DX =    0.0                 !
 ! A11   A(10,6,12)            107.8587         -DE/DX =    0.0                 !
 ! A12   A(11,6,12)            107.8093         -DE/DX =    0.0                 !
 ! A13   L(2,1,7,11,-1)        179.6606         -DE/DX =    0.0                 !
 ! A14   L(1,2,3,11,-1)        180.7265         -DE/DX =    0.0                 !
 ! A15   L(3,4,5,7,-1)         180.4435         -DE/DX =    0.0                 !
 ! A16   L(4,5,6,7,-1)         179.6123         -DE/DX =    0.0                 !
 ! A17   L(2,1,7,11,-2)        180.0            -DE/DX =    0.0                 !
 ! A18   L(1,2,3,11,-2)        180.0            -DE/DX =    0.0                 !
 ! A19   L(3,4,5,7,-2)         180.0            -DE/DX =    0.0                 !
 ! A20   L(4,5,6,7,-2)         180.0            -DE/DX =    0.0                 !
 ! D1    D(2,3,6,10)           119.8894         -DE/DX =    0.0                 !
 ! D2    D(2,3,6,11)             0.0            -DE/DX =    0.0                 !
 ! D3    D(2,3,6,12)          -119.8894         -DE/DX =    0.0                 !
 ! D4    D(8,3,6,10)          -117.8954         -DE/DX =    0.0                 !
 ! D5    D(8,3,6,11)           122.2152         -DE/DX =    0.0                 !
 ! D6    D(8,3,6,12)             2.3258         -DE/DX =    0.0                 !
 ! D7    D(9,3,6,10)            -2.3258         -DE/DX =    0.0                 !
 ! D8    D(9,3,6,11)          -122.2152         -DE/DX =    0.0                 !
 ! D9    D(9,3,6,12)           117.8954         -DE/DX =    0.0                 !
 --------------------------------------------------------------------------------
 GradGradGradGradGradGradGradGradGradGradGradGradGradGradGradGradGradGrad


 ----------------------------------------------------------------------

 Electric dipole moment (input orientation):
 (Debye = 10**-18 statcoulomb cm , SI units = C m)
                  (au)            (Debye)         (10**-30 SI)
   Tot        0.333308D+00      0.847184D+00      0.282590D+01
   x          0.314556D+00      0.799521D+00      0.266692D+01
   y         -0.110222D+00     -0.280155D+00     -0.934498D+00
   z          0.000000D+00      0.000000D+00      0.000000D+00

 Dipole polarizability, Alpha (input orientation).
 (esu units = cm**3 , SI units = C**2 m**2 J**-1)
 Alpha(0;0):
               (au)            (10**-24 esu)      (10**-40 SI)
   iso        0.667431D+02      0.989031D+01      0.110045D+02
   aniso      0.474158D+02      0.702629D+01      0.781780D+01
   xx         0.970344D+02      0.143790D+02      0.159988D+02
   yx        -0.223065D+01     -0.330549D+00     -0.367785D+00
   yy         0.590991D+02      0.875759D+01      0.974413D+01
   zx         0.000000D+00      0.000000D+00      0.000000D+00
   zy         0.000000D+00      0.000000D+00      0.000000D+00
   zz         0.440959D+02      0.653434D+01      0.727044D+01

 ----------------------------------------------------------------------

 Dipole orientation:
     6         -0.05211008         -0.14871434         -5.55742413
     6         -0.36963500         -1.05488272         -3.50739240
     6         -0.76825292         -2.19247837         -1.01652336
     6         -0.17633370         -0.50322989          1.09370197
     6          0.30412478          0.86792642          2.83368768
     6          0.89181051          2.54509317          4.93295925
     1          0.23273082          0.66417879         -7.36843175
     1          0.37962882         -3.90689819         -0.87175602
     1         -2.73516946         -2.81546079         -0.87175602
     1         -0.76417191          2.85916896          6.12073990
     1          1.53516471          4.38112937          4.24958474
     1          2.38164699          1.75686182          6.12073990

 Electric dipole moment (dipole orientation):
 (Debye = 10**-18 statcoulomb cm , SI units = C m)
                  (au)            (Debye)         (10**-30 SI)
   Tot        0.333308D+00      0.847184D+00      0.282590D+01
   x          0.000000D+00      0.000000D+00      0.000000D+00
   y          0.000000D+00      0.000000D+00      0.000000D+00
   z          0.333308D+00      0.847184D+00      0.282590D+01

 Dipole polarizability, Alpha (dipole orientation).
 (esu units = cm**3 , SI units = C**2 m**2 J**-1)
 Alpha(0;0):
               (au)            (10**-24 esu)      (10**-40 SI)
   iso        0.667431D+02      0.989031D+01      0.110045D+02
   aniso      0.474158D+02      0.702629D+01      0.781780D+01
   xx         0.460380D+02      0.682213D+01      0.759065D+01
   yx         0.554242D+01      0.821302D+00      0.913822D+00
   yy         0.599132D+02      0.887822D+01      0.987835D+01
   zx         0.333872D+01      0.494748D+00      0.550481D+00
   zy         0.952822D+01      0.141194D+01      0.157099D+01
   zz         0.942782D+02      0.139706D+02      0.155444D+02

 ----------------------------------------------------------------------
 1\1\GINC-GAMBA\Freq\RB3LYP\Gen\C6H6\IRIKURA\16-Jun-2022\0\\#N Geom=All
 Check Guess=TCheck SCRF=Check GenChk RB3LYP/ChkBas Freq\\1,4-hexadiyne
 , B3LYP/pcseg-2\\0,1\C,-2.8029831429,0.8938173666,0.\C,-1.9472131575,0
 .0555512967,0.\C,-0.9141992024,-0.9823245129,0.\C,0.4528889003,-0.4576
 886255,0.\C,1.5760948619,-0.0365903014,0.\C,2.9354723341,0.4835690504,
 0.\H,-3.5566788294,1.6408966133,0.\H,-1.0586088871,-1.6261078715,-0.87
 32708317\H,-1.0586088871,-1.6261078715,0.8732708317\H,3.4846960933,0.1
 502588905,0.8819678315\H,2.9346397917,1.5747437244,0.\H,3.4846960933,0
 .1502588905,-0.8819678315\\Version=ES64L-G16RevB.01\State=1-A'\HF=-232
 .2091191\RMSD=3.209e-09\RMSF=3.285e-06\ZeroPoint=0.0938824\Thermal=0.1
 012024\Dipole=0.3145559,-0.1102216,0.\DipoleDeriv=-0.4835154,0.0977699
 ,0.,0.209616,-0.3217236,0.,0.,0.,-0.2578909,0.0510617,-0.2070347,0.,-0
 .2852858,0.0144327,0.,0.,0.,-0.121327,0.4622591,-0.0104719,0.,-0.01589
 91,0.2277127,0.,0.,0.,0.2434367,-0.1555546,0.0175747,0.,0.0518698,-0.2
 247107,0.,0.,0.,-0.1555299,0.0434817,0.1251976,0.,0.1078237,-0.1030826
 ,0.,0.,0.,-0.1721808,0.1493201,-0.0109233,0.,-0.01727,0.1372454,0.,0.,
 0.,0.1502632,0.2312161,0.0090016,0.,0.0069445,0.2115931,0.,0.,0.,0.226
 5088,-0.0745771,0.009738,-0.0093601,0.0054924,0.0106503,-0.0481708,-0.
 0269346,-0.0815175,0.0204107,-0.0745771,0.009738,0.0093601,0.0054924,0
 .0106503,0.0481708,0.0269346,0.0815175,0.0204107,-0.0639036,-0.0183717
 ,-0.0486894,-0.0010695,0.0617858,0.0508441,-0.0903247,0.0370641,-0.022
 517,-0.0213073,-0.0038465,0.,-0.0666449,-0.0863392,0.,0.,0.,0.0909325,
 -0.0639036,-0.0183717,0.0486894,-0.0010695,0.0617858,-0.0508441,0.0903
 247,-0.0370641,-0.022517\Polar=97.0343598,-2.230653,59.0991372,0.,0.,4
 4.0959428\Quadrupole=2.743332,0.035677,-2.7790091,0.1603141,0.,0.\PG=C
 S [SG(C6H2),X(H4)]\NImag=0\\0.79884387,-0.73743653,0.77438802,0.,0.,0.
 04718019,-0.57699147,0.53464009,0.,0.76816470,0.53368606,-0.55644320,0
 .,-0.66450769,0.74989127,0.,0.,-0.03229888,0.,0.,0.08905931,0.00185023
 ,0.00279744,0.,-0.15932912,0.10194895,0.,0.48879455,0.00474936,-0.0003
 0829,0.,0.10215202,-0.16664446,0.,0.00446127,0.49914354,0.,0.,0.005719
 74,0.,0.,-0.06382462,0.,0.,0.52032090,0.00139501,-0.00020325,0.,-0.038
 79174,-0.00071332,0.,-0.23880355,-0.07258998,0.,1.25359102,0.00096619,
 -0.00124990,0.,0.02172448,0.01172861,0.,-0.07189984,-0.08776813,0.,0.4
 3833966,0.25548775,0.,0.,0.00071213,0.,0.,-0.00048916,0.,0.,-0.0611743
 5,0.,0.,0.08513336,-0.00027650,0.00029773,0.,0.00121366,-0.00151437,0.
 ,-0.00394198,-0.00305702,0.,-0.94954031,-0.34216295,0.,1.25634173,0.00
 012037,0.00017925,0.,0.00032368,-0.00025130,0.,-0.00246998,0.00034007,
 0.,-0.34303323,-0.16410598,0.,0.43816824,0.25682663,0.,0.,0.00003055,0
 .,0.,0.00081042,0.,0.,0.00264553,0.,0.,-0.03559580,0.,0.,0.09015242,0.
 00016198,-0.00004836,0.,0.00051136,0.00032872,0.,0.00270177,-0.0014532
 9,0.,-0.00653443,-0.00434988,0.,-0.25148716,-0.07078590,0.,0.51288495,
 -0.00016137,0.00014341,0.,-0.00196540,-0.00032851,0.,-0.00081723,0.006
 06374,0.,-0.00458724,0.00248359,0.,-0.07094615,-0.09149407,0.,-0.00868
 776,0.52927753,0.,0.,0.00001898,0.,0.,-0.00020885,0.,0.,0.00685304,0.,
 0.,0.00402102,0.,0.,-0.06422921,0.,0.,0.53334032,-0.22169418,0.1971434
 8,0.,0.00317607,-0.00071619,0.,0.00291537,0.00238577,0.,0.00081091,-0.
 00073332,0.,0.00001643,-0.00007859,0.,-0.00005559,0.00008057,0.,0.2152
 0945,0.19762813,-0.21824349,0.,-0.00116584,0.00336317,0.,0.00226586,0.
 00328753,0.,0.00088000,-0.00054675,0.,-0.00005467,-0.00006499,0.,-0.00
 000445,0.00008853,0.,-0.19876115,0.21153208,0.,0.,-0.02153545,0.,0.,0.
 00196144,0.,0.,0.00556036,0.,0.,0.00005311,0.,0.,-0.00007094,0.,0.,0.0
 0000697,0.,0.,0.01412768,-0.00132286,0.00106381,-0.00111962,0.00101512
 ,0.01611857,0.02043055,-0.04714125,-0.01818966,-0.02612896,-0.01121420
 ,-0.02075761,-0.02590991,-0.00003120,-0.00000518,0.00061376,-0.0005018
 2,0.00078596,0.00153654,-0.00022256,-0.00036975,-0.00073798,0.05936715
 ,0.00029624,0.00070473,0.00075993,0.00426077,-0.02050057,-0.01961984,-
 0.01814058,-0.12689602,-0.11770779,-0.00904495,-0.00864010,-0.00878995
 ,0.00090322,0.00093528,-0.00003778,-0.00030929,0.00007611,0.00057492,0
 .00033278,0.00030661,0.00071499,0.01921696,0.14232542,-0.00128151,0.00
 078311,0.00011680,0.00460268,-0.00099267,0.00243513,-0.02555550,-0.116
 48930,-0.20785504,-0.00470660,0.00110638,0.00307944,0.00150515,0.00014
 655,0.00018698,-0.00018128,-0.00001523,-0.00006847,-0.00006066,-0.0001
 1453,-0.00005542,0.02858003,0.12995193,0.22459551,-0.00132286,0.001063
 81,0.00111962,0.00101512,0.01611857,-0.02043055,-0.04714125,-0.0181896
 6,0.02612897,-0.01121420,-0.02075761,0.02590991,-0.00003120,-0.0000051
 8,-0.00061376,-0.00050182,0.00078596,-0.00153654,-0.00022256,-0.000369
 75,0.00073798,0.00057750,0.00249711,-0.00301182,0.05936715,0.00029624,
 0.00070473,-0.00075993,0.00426077,-0.02050057,0.01961984,-0.01814058,-
 0.12689602,0.11770779,-0.00904495,-0.00864010,0.00878995,0.00090322,0.
 00093528,0.00003778,-0.00030929,0.00007611,-0.00057492,0.00033278,0.00
 030661,-0.00071499,0.00249711,0.01171395,-0.01430119,0.01921696,0.1423
 2542,0.00128151,-0.00078311,0.00011680,-0.00460268,0.00099267,0.002435
 13,0.02555550,0.11648930,-0.20785504,0.00470660,-0.00110638,0.00307944
 ,-0.00150515,-0.00014655,0.00018698,0.00018128,0.00001523,-0.00006847,
 0.00006066,0.00011453,-0.00005542,0.00301182,0.01430119,-0.02235994,-0
 .02858003,-0.12995193,0.22459551,-0.00019354,0.00018450,0.00002520,0.0
 0022669,-0.00018559,-0.00009710,0.00017705,-0.00084975,0.00143554,0.00
 071470,-0.00041490,0.00045172,-0.02384240,0.00704728,-0.02519370,-0.10
 643737,0.04063281,-0.10433957,0.00002142,-0.00002125,-0.00000237,0.000
 06202,0.00011063,-0.00003695,-0.00064150,-0.00011236,-0.00010403,0.121
 42384,-0.00001882,0.00002783,-0.00001167,0.00019914,-0.00007199,0.0000
 1654,0.00010467,-0.00037116,0.00051694,-0.00089375,0.00019522,0.000666
 33,-0.00724879,0.00362410,-0.01277865,0.03981543,-0.07027879,0.0667902
 3,-0.00000245,-0.00001089,0.00000391,-0.00008621,0.00003099,-0.0000517
 3,-0.00028475,-0.00004379,0.00004487,-0.04142441,0.07334052,-0.0000081
 3,-0.00000112,-0.00000751,0.00006347,-0.00002346,0.00001863,-0.0002154
 6,-0.00007934,-0.00011951,0.00157171,0.00109979,0.00013318,-0.00239887
 ,-0.00405766,0.00365880,-0.10298165,0.06735984,-0.21769900,0.00000563,
 -0.00000304,-0.00000089,-0.00008367,0.00000953,-0.00003596,0.00006517,
 0.00009855,-0.00004193,0.11518378,-0.07340067,0.23466511,-0.00025614,0
 .00031278,0.,-0.00043708,-0.00037810,0.,-0.00025887,0.00143071,0.,-0.0
 0112792,0.00046068,0.,-0.00457866,-0.03632878,0.,-0.04430452,0.0042470
 7,0.,0.00002380,-0.00000588,0.,0.00005361,-0.00001053,0.00004244,0.000
 05361,-0.00001053,-0.00004244,-0.00039131,0.01581034,0.00131101,0.0516
 1479,-0.00010704,0.00006907,0.,-0.00012113,-0.00017045,0.,-0.00021463,
 0.00042037,0.,0.00178475,0.00086056,0.,-0.00803967,-0.01054838,0.,0.00
 598864,-0.30582889,0.,0.00001877,-0.00000751,0.,0.00001075,-0.00001261
 ,0.00002157,0.00001075,-0.00001261,-0.00002157,0.00100346,-0.00930220,
 0.00022055,-0.00133810,0.33383482,0.,0.,-0.00004584,0.,0.,0.00008284,0
 .,0.,-0.00015151,0.,0.,0.00091446,0.,0.,-0.00143451,0.,0.,-0.04426733,
 0.,0.,0.00000946,-0.00012737,-0.00005858,0.00000289,0.00012737,0.00005
 858,0.00000289,0.00016450,0.02698091,0.00046512,0.,0.,0.04395642,-0.00
 019354,0.00018450,-0.00002520,0.00022669,-0.00018559,0.00009710,0.0001
 7705,-0.00084975,-0.00143554,0.00071470,-0.00041490,-0.00045172,-0.023
 84240,0.00704728,0.02519370,-0.10643737,0.04063281,0.10433957,0.000021
 42,-0.00002125,0.00000237,-0.00064150,-0.00011236,0.00010403,0.0000620
 2,0.00011063,0.00003695,0.00888040,-0.00597040,-0.01251299,-0.00039131
 ,0.00100346,-0.00016450,0.12142384,-0.00001882,0.00002783,0.00001167,0
 .00019914,-0.00007199,-0.00001654,0.00010466,-0.00037116,-0.00051694,-
 0.00089375,0.00019523,-0.00066633,-0.00724879,0.00362410,0.01277865,0.
 03981543,-0.07027879,-0.06679023,-0.00000245,-0.00001089,-0.00000391,-
 0.00028475,-0.00004379,-0.00004487,-0.00008621,0.00003099,0.00005173,-
 0.00597040,0.00286017,0.00877701,0.01581034,-0.00930220,-0.02698091,-0
 .04142441,0.07334052,0.00000813,0.00000112,-0.00000751,-0.00006347,0.0
 0002346,0.00001863,0.00021546,0.00007934,-0.00011951,-0.00157171,-0.00
 109979,0.00013318,0.00239887,0.00405766,0.00365880,0.10298165,-0.06735
 984,-0.21769900,-0.00000563,0.00000304,-0.00000089,-0.00006517,-0.0000
 9855,-0.00004193,0.00008367,-0.00000953,-0.00003596,0.01251299,-0.0087
 7701,-0.02103603,-0.00131101,-0.00022055,0.00046512,-0.11518378,0.0734
 0067,0.23466511\\0.00000697,-0.00000414,0.,-0.00000292,0.00000432,0.,0
 .00000132,-0.00000459,0.,0.00000647,0.00000923,0.,0.00000002,-0.000001
 68,0.,-0.00000632,-0.00000583,0.,-0.00000178,-0.00000116,0.,-0.0000002
 3,0.00000105,-0.00000279,-0.00000023,0.00000105,0.00000279,-0.00000058
 ,-0.00000148,0.00000274,-0.00000213,0.00000469,0.,-0.00000058,-0.00000
 148,-0.00000274\\\@


 BE CAREFUL NOT TO BECOME TOO GOOD OF A SONGBIRD OR 
 THEY'LL THROW YOU INTO A CAGE.

                                    -- SNOOPY TO WOODSTOCK
 Job cpu time:       0 days  0 hours 25 minutes 28.6 seconds.
 Elapsed time:       0 days  0 hours  2 minutes  7.6 seconds.
 File lengths (MBytes):  RWF=     63 Int=      0 D2E=      0 Chk=      7 Scr=      1
 Normal termination of Gaussian 16 at Thu Jun 16 17:17:03 2022.
