 Entering Gaussian System, Link 0=g16
 AtFile(1): pcseg2.gbs
            -H     0
            S   4   1.00
                  0.754732D+02           0.427821D-02
                  0.113575D+02           0.328672D-01
                  0.260081D+01           0.159578D+00
                  0.735503D+00           0.500000D+00
            S   1   1.00
                  0.231761D+00           1.0000000
            S   1   1.00
                  0.741675D-01           1.0000000
            P   1   1.00
                  0.160000D+01           1.0000000
            P   1   1.00
                  0.450000D+00           1.0000000
            D   1   1.00
                  0.125000D+01           1.0000000
            ****
            -C     0
            S   7   1.00
                  0.731999D+04           0.695369D-03
                  0.109818D+04           0.537138D-02
                  0.250014D+03           0.274734D-01
                  0.707586D+02           0.105078D+00
                  0.228595D+02           0.291262D+00
                  0.803936D+01           0.500000D+00
                  0.289309D+01           0.362224D+00
            S   2   1.00
                  0.521640D+01          -0.957844D-01
                  0.556124D+00           0.500000D+00
            S   1   1.00
                  0.228813D+00           1.0000000
            S   1   1.00
                  0.936338D-01           1.0000000
            P   4   1.00
                  0.339855D+02           0.818395D-02
                  0.772957D+01           0.586921D-01
                  0.224954D+01           0.222514D+00
                  0.767681D+00           0.500000D+00
            P   1   1.00
                  0.263283D+00           1.0000000
            P   1   1.00
                  0.848744D-01           1.0000000
            D   1   1.00
                  0.140000D+01           1.0000000
            D   1   1.00
                  0.450000D+00           1.0000000
            F   1   1.00
                  0.950000D+00           1.0000000
            ****
            -O     0
            S   7   1.00
                  0.135887D+05           0.665492D-03
                  0.203847D+04           0.514222D-02
                  0.464041D+03           0.263472D-01
                  0.131339D+03           0.101500D+00
                  0.425340D+02           0.285877D+00
                  0.150429D+02           0.500000D+00
                  0.546616D+01           0.368211D+00
            S   2   1.00
                  0.100915D+02          -0.100084D+00
                  0.110429D+01           0.500000D+00
            S   1   1.00
                  0.448082D+00           1.0000000
            S   1   1.00
                  0.175325D+00           1.0000000
            P   4   1.00
                  0.608220D+02           0.908253D-02
                  0.140332D+02           0.645878D-01
                  0.418244D+01           0.241502D+00
                  0.142490D+01           0.500000D+00
            P   1   1.00
                  0.478741D+00           1.0000000
            P   1   1.00
                  0.146257D+00           1.0000000
            D   1   1.00
                  0.220000D+01           1.0000000
            D   1   1.00
                  0.650000D+00           1.0000000
            F   1   1.00
                  0.110000D+01           1.0000000
            ****
            -N     0
            S   7   1.00
                  0.101643D+05           0.682757D-03
                  0.152481D+04           0.527488D-02
                  0.347119D+03           0.270037D-01
                  0.982389D+02           0.103673D+00
                  0.317799D+02           0.289575D+00
                  0.112240D+02           0.500000D+00
                  0.406611D+01           0.364621D+00
            S   2   1.00
                  0.747898D+01          -0.975681D-01
                  0.805040D+00           0.500000D+00
            S   1   1.00
                  0.324626D+00           1.0000000
            S   1   1.00
                  0.128132D+00           1.0000000
            P   4   1.00
                  0.482704D+02           0.829547D-02
                  0.110815D+02           0.596223D-01
                  0.326643D+01           0.227889D+00
                  0.111680D+01           0.500000D+00
            P   1   1.00
                  0.382049D+00           1.0000000
            P   1   1.00
                  0.121222D+00           1.0000000
            D   1   1.00
                  0.180000D+01           1.0000000
            D   1   1.00
                  0.550000D+00           1.0000000
            F   1   1.00
                  0.102000D+01           1.0000000
            ****
            -F     0
            S   7   1.00
                  0.174507D+05           0.655972D-03
                  0.261768D+04           0.506944D-02
                  0.595857D+03           0.259899D-01
                  0.168651D+03           0.100353D+00
                  0.546654D+02           0.284095D+00
                  0.193717D+02           0.500000D+00
                  0.706202D+01           0.370721D+00
            S   2   1.00
                  0.131197D+02          -0.101997D+00
                  0.145046D+01           0.500000D+00
            S   1   1.00
                  0.588255D+00           1.0000000
            S   1   1.00
                  0.227960D+00           1.0000000
            P   4   1.00
                  0.779407D+02           0.931135D-02
                  0.180425D+02           0.663964D-01
                  0.542342D+01           0.246386D+00
                  0.184876D+01           0.500000D+00
            P   1   1.00
                  0.617455D+00           1.0000000
            P   1   1.00
                  0.185496D+00           1.0000000
            D   1   1.00
                  0.280000D+01           1.0000000
            D   1   1.00
                  0.800000D+00           1.0000000
            F   1   1.00
                  0.120000D+01           1.0000000
            ****
            -Cl     0
            S   8   1.00
                  0.154272D+06           0.222473D-03
                  0.231232D+05           0.172590D-02
                  0.526257D+04           0.899286D-02
                  0.148995D+04           0.367724D-01
                  0.485417D+03           0.121446D+00
                  0.174634D+03           0.304148D+00
                  0.672393D+02           0.500000D+00
                  0.265780D+02           0.360252D+00
            S   3   1.00
                  0.131826D+03          -0.531330D-01
                  0.400703D+02          -0.233346D+00
                  0.789448D+01           0.500000D+00
            S   2   1.00
                  0.427711D+01           0.500000D+00
                  0.196233D+01           0.370517D+00
            S   1   1.00
                  0.520793D+00           1.0000000
            S   1   1.00
                  0.181633D+00           1.0000000
            P   7   1.00
                  0.124440D+04           0.988206D-03
                  0.295109D+03           0.829674D-02
                  0.947224D+02           0.430906D-01
                  0.352588D+02           0.148443D+00
                  0.144211D+02           0.344744D+00
                  0.610371D+01           0.500000D+00
                  0.258886D+01           0.348278D+00
            P   2   1.00
                  0.109447D+02          -0.196768D-01
                  0.104413D+01           0.500000D+00
            P   1   1.00
                  0.376184D+00           1.0000000
            P   1   1.00
                  0.120613D+00           1.0000000
            D   1   1.00
                  0.231000D+01           1.0000000
            D   1   1.00
                  0.520000D+00           1.0000000
            F   1   1.00
                  0.720000D+00           1.0000000
            ****
            -S     0
            S   8   1.00
                  0.134700D+06           0.226231D-03
                  0.201904D+05           0.175488D-02
                  0.459528D+04           0.914190D-02
                  0.130109D+04           0.373551D-01
                  0.423902D+03           0.123121D+00
                  0.152485D+03           0.306801D+00
                  0.586925D+02           0.500000D+00
                  0.231461D+02           0.354358D+00
            S   3   1.00
                  0.116327D+03          -0.491772D-01
                  0.352841D+02          -0.215962D+00
                  0.677831D+01           0.500000D+00
            S   2   1.00
                  0.360404D+01           0.500000D+00
                  0.164871D+01           0.366278D+00
            S   1   1.00
                  0.421821D+00           1.0000000
            S   1   1.00
                  0.147554D+00           1.0000000
            P   7   1.00
                  0.104863D+04           0.105273D-02
                  0.248717D+03           0.879338D-02
                  0.797887D+02           0.453358D-01
                  0.296023D+02           0.154476D+00
                  0.120627D+02           0.352366D+00
                  0.507628D+01           0.500000D+00
                  0.213375D+01           0.346429D+00
            P   2   1.00
                  0.928958D+01          -0.185932D-01
                  0.837819D+00           0.500000D+00
            P   1   1.00
                  0.301495D+00           1.0000000
            P   1   1.00
                  0.974740D-01           1.0000000
            D   1   1.00
                  0.210000D+01           1.0000000
            D   1   1.00
                  0.480000D+00           1.0000000
            F   1   1.00
                  0.660000D+00           1.0000000
            ****
            -Br     0
            S    10   1.00
                  0.233625D+07           0.532336D-04
                  0.349961D+06           0.413715D-03
                  0.796444D+05           0.217123D-02
                  0.225555D+05           0.910109D-02
                  0.735546D+04           0.323789D-01
                  0.265352D+04           0.988755D-01
                  0.103517D+04           0.248138D+00
                  0.422205D+03           0.474328D+00
                  0.180035D+03           0.500000D+00
                  0.793308D+02           0.187769D+00
            S    4   1.00
                  0.620834D+03          -0.226511D-01
                  0.190829D+03          -0.109497D+00
                  0.312505D+02           0.500000D+00
                  0.135270D+02           0.492812D+00
            S    2   1.00
                  0.216097D+02          -0.165418D+00
                  0.372566D+01           0.500000D+00
            S    1   1.00
                  0.169770D+01           1.0000000
            S    1   1.00
                  0.489332D+00           1.0000000
            S    1   1.00
                  0.175712D+00           1.0000000
            P    8   1.00
                  0.960829D+04           0.478974D-03
                  0.227618D+04           0.417853D-02
                  0.736723D+03           0.229315D-01
                  0.281579D+03           0.892653D-01
                  0.118395D+03           0.255288D+00
                  0.527481D+02           0.479074D+00
                  0.245098D+02           0.500000D+00
                  0.112009D+02           0.200944D+00
            P    4   1.00
                  0.587849D+02          -0.189674D-01
                  0.918962D+01           0.264104D+00
                  0.413895D+01           0.500000D+00
                  0.184225D+01           0.319316D+00
            P    1   1.00
                  0.713862D+00           1.0000000
            P    1   1.00
                  0.274232D+00           1.0000000
            P    1   1.00
                  0.944411D-01           1.0000000
            D    7   1.00
                  0.398470D+03           0.204066D-02
                  0.118967D+03           0.175171D-01
                  0.450197D+02           0.829708D-01
                  0.190320D+02           0.236284D+00
                  0.855686D+01           0.428468D+00
                  0.382950D+01           0.500000D+00
                  0.166291D+01           0.349360D+00
            D    1   1.00
                  0.672953D+00           1.0000000
            D    1   1.00
                  0.252000D+00           1.0000000
            F    1   1.00
                  0.530000D+00           1.0000000
            ****
            -Si     0
            S    8   1.00
                  0.996133D+05           0.235546D-03
                  0.149311D+05           0.182707D-02
                  0.339820D+04           0.951425D-02
                  0.962140D+03           0.388172D-01
                  0.313430D+03           0.127328D+00
                  0.112683D+03           0.313522D+00
                  0.433372D+02           0.500000D+00
                  0.170029D+02           0.340347D+00
            S    3   1.00
                  0.884208D+02          -0.404451D-01
                  0.266756D+02          -0.178059D+00
                  0.479640D+01           0.500000D+00
            S    2   1.00
                  0.239385D+01           0.500000D+00
                  0.108333D+01           0.338016D+00
            S    1   1.00
                  0.252420D+00           1.0000000
            S    1   1.00
                  0.891210D-01           1.0000000
            P    7   1.00
                  0.709901D+03           0.123028D-02
                  0.168426D+03           0.101366D-01
                  0.539946D+02           0.511840D-01
                  0.198646D+02           0.169967D+00
                  0.801369D+01           0.370717D+00
                  0.331870D+01           0.500000D+00
                  0.136112D+01           0.344128D+00
            P    2   1.00
                  0.622158D+01          -0.166609D-01
                  0.503049D+00           0.500000D+00
            P    1   1.00
                  0.179848D+00           1.0000000
            P    1   1.00
                  0.591912D-01           1.0000000
            D    1   1.00
                  0.168000D+01           1.0000000
            D    1   1.00
                  0.380000D+00           1.0000000
            F    1   1.00
                  0.540000D+00           1.0000000
            ****
            -P     0
            S    8   1.00
                  0.116416D+06           0.230715D-03
                  0.174500D+05           0.178960D-02
                  0.397149D+04           0.932116D-02
                  0.112447D+04           0.380591D-01
                  0.366347D+03           0.125148D+00
                  0.131757D+03           0.310022D+00
                  0.506988D+02           0.500000D+00
                  0.199436D+02           0.347528D+00
            S    3   1.00
                  0.101878D+03          -0.446755D-01
                  0.308249D+02          -0.196376D+00
                  0.573688D+01           0.500000D+00
            S    2   1.00
                  0.296868D+01           0.500000D+00
                  0.135315D+01           0.355098D+00
            S    1   1.00
                  0.332196D+00           1.0000000
            S    1   1.00
                  0.116229D+00           1.0000000
            P    7   1.00
                  0.873928D+03           0.112375D-02
                  0.207298D+03           0.933330D-02
                  0.664628D+02           0.477213D-01
                  0.245665D+02           0.160733D+00
                  0.996820D+01           0.359760D+00
                  0.416536D+01           0.500000D+00
                  0.173022D+01           0.346593D+00
            P    2   1.00
                  0.772530D+01          -0.175718D-01
                  0.657252D+00           0.500000D+00
            P    1   1.00
                  0.239903D+00           1.0000000
            P    1   1.00
                  0.800988D-01           1.0000000
            D    1   1.00
                  0.189000D+01           1.0000000
            D    1   1.00
                  0.430000D+00           1.0000000
            F    1   1.00
                  0.600000D+00           1.0000000
            ****
            
 Initial command:
 /usr/local/apps/g16_b01_avx/g16/l1.exe "/wrk/irikura/Gau-1839257.inp" -scrdir="/wrk/irikura/"
 Entering Link 1 = /usr/local/apps/g16_b01_avx/g16/l1.exe PID=   1839259.
  
 Copyright (c) 1988-2017, Gaussian, Inc.  All Rights Reserved.
  
 This is part of the Gaussian(R) 16 program.  It is based on
 the Gaussian(R) 09 system (copyright 2009, Gaussian, Inc.),
 the Gaussian(R) 03 system (copyright 2003, Gaussian, Inc.),
 the Gaussian(R) 98 system (copyright 1998, Gaussian, Inc.),
 the Gaussian(R) 94 system (copyright 1995, Gaussian, Inc.),
 the Gaussian 92(TM) system (copyright 1992, Gaussian, Inc.),
 the Gaussian 90(TM) system (copyright 1990, Gaussian, Inc.),
 the Gaussian 88(TM) system (copyright 1988, Gaussian, Inc.),
 the Gaussian 86(TM) system (copyright 1986, Carnegie Mellon
 University), and the Gaussian 82(TM) system (copyright 1983,
 Carnegie Mellon University). Gaussian is a federally registered
 trademark of Gaussian, Inc.
  
 This software contains proprietary and confidential information,
 including trade secrets, belonging to Gaussian, Inc.
  
 This software is provided under written license and may be
 used, copied, transmitted, or stored only in accord with that
 written license.
  
 The following legend is applicable only to US Government
 contracts under FAR:
  
                    RESTRICTED RIGHTS LEGEND
  
 Use, reproduction and disclosure by the US Government is
 subject to restrictions as set forth in subparagraphs (a)
 and (c) of the Commercial Computer Software - Restricted
 Rights clause in FAR 52.227-19.
  
 Gaussian, Inc.
 340 Quinnipiac St., Bldg. 40, Wallingford CT 06492
  
  
 ---------------------------------------------------------------
 Warning -- This program may not be used in any manner that
 competes with the business of Gaussian, Inc. or will provide
 assistance to any competitor of Gaussian, Inc.  The licensee
 of this program is prohibited from giving any competitor of
 Gaussian, Inc. access to this program.  By using this program,
 the user acknowledges that Gaussian, Inc. is engaged in the
 business of creating and licensing software in the field of
 computational chemistry and represents and warrants to the
 licensee that it is not a competitor of Gaussian, Inc. and that
 it will not use this program in any manner prohibited above.
 ---------------------------------------------------------------
  

 Cite this work as:
 Gaussian 16, Revision B.01,
 M. J. Frisch, G. W. Trucks, H. B. Schlegel, G. E. Scuseria, 
 M. A. Robb, J. R. Cheeseman, G. Scalmani, V. Barone, 
 G. A. Petersson, H. Nakatsuji, X. Li, M. Caricato, A. V. Marenich, 
 J. Bloino, B. G. Janesko, R. Gomperts, B. Mennucci, H. P. Hratchian, 
 J. V. Ortiz, A. F. Izmaylov, J. L. Sonnenberg, D. Williams-Young, 
 F. Ding, F. Lipparini, F. Egidi, J. Goings, B. Peng, A. Petrone, 
 T. Henderson, D. Ranasinghe, V. G. Zakrzewski, J. Gao, N. Rega, 
 G. Zheng, W. Liang, M. Hada, M. Ehara, K. Toyota, R. Fukuda, 
 J. Hasegawa, M. Ishida, T. Nakajima, Y. Honda, O. Kitao, H. Nakai, 
 T. Vreven, K. Throssell, J. A. Montgomery, Jr., J. E. Peralta, 
 F. Ogliaro, M. J. Bearpark, J. J. Heyd, E. N. Brothers, K. N. Kudin, 
 V. N. Staroverov, T. A. Keith, R. Kobayashi, J. Normand, 
 K. Raghavachari, A. P. Rendell, J. C. Burant, S. S. Iyengar, 
 J. Tomasi, M. Cossi, J. M. Millam, M. Klene, C. Adamo, R. Cammi, 
 J. W. Ochterski, R. L. Martin, K. Morokuma, O. Farkas, 
 J. B. Foresman, and D. J. Fox, Gaussian, Inc., Wallingford CT, 2016.
 
 ******************************************
 Gaussian 16:  ES64L-G16RevB.01 20-Dec-2017
                27-Sep-2023 
 ******************************************
 %chk=hexadiyne14.chk
 %mem=500mw
 %nprocs=4
 Will use up to    4 processors via shared memory.
 ---------------------------------------
 # b3lyp/gen opt freq CPHF(Grid=OneStep)
 ---------------------------------------
 1/18=20,19=15,26=3,38=1/1,3;
 2/9=110,12=2,17=6,18=5,40=1/2;
 3/5=7,11=2,25=1,30=1,71=1,74=-5/1,2,3;
 4//1;
 5/5=2,38=5/2;
 6/7=2,8=2,9=2,10=2,28=1/1;
 7//1,2,3,16;
 1/18=20,19=15,26=3/3(2);
 2/9=110/2;
 99//99;
 2/9=110/2;
 3/5=7,6=1,11=2,25=1,30=1,71=1,74=-5,82=7/1,2,3;
 4/5=5,16=3,69=1/1;
 5/5=2,38=5/2;
 7//1,2,3,16;
 1/18=20,19=15,26=3/3(-5);
 2/9=110/2;
 6/7=2,8=2,9=2,10=2,19=2,28=1/1;
 99/9=1/99;
 ----------------------------
 1,4-hexadiyne, B3LYP/pcseg-2
 ----------------------------
 Symbolic Z-matrix:
 Charge =  0 Multiplicity = 1
 C                    -1.36652  -2.60619   0. 
 C                    -1.3468   -1.40843   0. 
 C                    -1.34127   0.05591   0. 
 C                     0.        0.64341   0. 
 C                     1.09501   1.13318   0. 
 C                     2.42765   1.71844   0. 
 H                    -1.37769  -3.66735   0. 
 H                    -1.89644   0.41242   0.87327 
 H                    -1.89644   0.41242  -0.87327 
 H                     2.58414   2.34154  -0.88197 
 H                     3.19389   0.94157   0. 
 H                     2.58414   2.34154   0.88197 
 

 GradGradGradGradGradGradGradGradGradGradGradGradGradGradGradGradGradGrad
 Berny optimization.
 Initialization pass.
                           ----------------------------
                           !    Initial Parameters    !
                           ! (Angstroms and Degrees)  !
 --------------------------                            --------------------------
 ! Name  Definition              Value          Derivative Info.                !
 --------------------------------------------------------------------------------
 ! R1    R(1,2)                  1.1979         estimate D2E/DX2                !
 ! R2    R(1,7)                  1.0612         estimate D2E/DX2                !
 ! R3    R(2,3)                  1.4643         estimate D2E/DX2                !
 ! R4    R(3,4)                  1.4643         estimate D2E/DX2                !
 ! R5    R(3,8)                  1.0945         estimate D2E/DX2                !
 ! R6    R(3,9)                  1.0945         estimate D2E/DX2                !
 ! R7    R(4,5)                  1.1995         estimate D2E/DX2                !
 ! R8    R(5,6)                  1.4555         estimate D2E/DX2                !
 ! R9    R(6,10)                 1.0912         estimate D2E/DX2                !
 ! R10   R(6,11)                 1.0912         estimate D2E/DX2                !
 ! R11   R(6,12)                 1.0912         estimate D2E/DX2                !
 ! A1    A(2,3,4)              113.8706         estimate D2E/DX2                !
 ! A2    A(2,3,8)              108.8941         estimate D2E/DX2                !
 ! A3    A(2,3,9)              108.8941         estimate D2E/DX2                !
 ! A4    A(4,3,8)              109.5073         estimate D2E/DX2                !
 ! A5    A(4,3,9)              109.5073         estimate D2E/DX2                !
 ! A6    A(8,3,9)              105.8558         estimate D2E/DX2                !
 ! A7    A(5,6,10)             111.1578         estimate D2E/DX2                !
 ! A8    A(5,6,11)             110.8954         estimate D2E/DX2                !
 ! A9    A(5,6,12)             111.1578         estimate D2E/DX2                !
 ! A10   A(10,6,11)            107.8093         estimate D2E/DX2                !
 ! A11   A(10,6,12)            107.8587         estimate D2E/DX2                !
 ! A12   A(11,6,12)            107.8093         estimate D2E/DX2                !
 ! A13   L(2,1,7,11,-1)        179.6606         estimate D2E/DX2                !
 ! A14   L(1,2,3,11,-1)        180.7265         estimate D2E/DX2                !
 ! A15   L(3,4,5,7,-1)         180.4435         estimate D2E/DX2                !
 ! A16   L(4,5,6,7,-1)         179.6123         estimate D2E/DX2                !
 ! A17   L(2,1,7,11,-2)        180.0            estimate D2E/DX2                !
 ! A18   L(1,2,3,11,-2)        180.0            estimate D2E/DX2                !
 ! A19   L(3,4,5,7,-2)         180.0            estimate D2E/DX2                !
 ! A20   L(4,5,6,7,-2)         180.0            estimate D2E/DX2                !
 ! D1    D(2,3,6,10)           119.8894         estimate D2E/DX2                !
 ! D2    D(2,3,6,11)             0.0            estimate D2E/DX2                !
 ! D3    D(2,3,6,12)          -119.8894         estimate D2E/DX2                !
 ! D4    D(8,3,6,10)          -117.8954         estimate D2E/DX2                !
 ! D5    D(8,3,6,11)           122.2152         estimate D2E/DX2                !
 ! D6    D(8,3,6,12)             2.3258         estimate D2E/DX2                !
 ! D7    D(9,3,6,10)            -2.3258         estimate D2E/DX2                !
 ! D8    D(9,3,6,11)          -122.2152         estimate D2E/DX2                !
 ! D9    D(9,3,6,12)           117.8954         estimate D2E/DX2                !
 --------------------------------------------------------------------------------
 Trust Radius=3.00D-01 FncErr=1.00D-07 GrdErr=1.00D-06 EigMax=2.50D+02 EigMin=1.00D-04
 Number of steps in this run=     50 maximum allowed number of steps=    100.
 GradGradGradGradGradGradGradGradGradGradGradGradGradGradGradGradGradGrad

                          Input orientation:                          
 ---------------------------------------------------------------------
 Center     Atomic      Atomic             Coordinates (Angstroms)
 Number     Number       Type             X           Y           Z
 ---------------------------------------------------------------------
      1          6           0       -1.366516   -2.606194    0.000000
      2          6           0       -1.346804   -1.408428    0.000000
      3          6           0       -1.341274    0.055906    0.000000
      4          6           0        0.000000    0.643407    0.000000
      5          6           0        1.095008    1.133175    0.000000
      6          6           0        2.427650    1.718442    0.000000
      7          1           0       -1.377693   -3.667353    0.000000
      8          1           0       -1.896438    0.412423    0.873271
      9          1           0       -1.896438    0.412423   -0.873271
     10          1           0        2.584143    2.341541   -0.881968
     11          1           0        3.193895    0.941569    0.000000
     12          1           0        2.584143    2.341541    0.881968
 ---------------------------------------------------------------------
                    Distance matrix (angstroms):
                    1          2          3          4          5
     1  C    0.000000
     2  C    1.197928   0.000000
     3  C    2.662220   1.464344   0.000000
     4  C    3.525234   2.454365   1.464300   0.000000
     5  C    4.476827   3.524513   2.663828   1.199548   0.000000
     6  C    5.753101   4.901410   4.119322   2.655030   1.455497
     7  H    1.061218   2.259136   3.723437   4.525560   5.399937
     8  H    3.186765   2.092892   1.094492   2.100579   3.198568
     9  H    3.186765   2.092892   1.094492   2.100579   3.198568
    10  H    6.392625   5.503860   4.627191   3.215482   2.110815
    11  H    5.777886   5.112772   4.620839   3.207782   2.107615
    12  H    6.392625   5.503860   4.627191   3.215482   2.110815
                    6          7          8          9         10
     6  C    0.000000
     7  H    6.594499   0.000000
     8  H    4.600655   4.204316   0.000000
     9  H    4.600655   4.204316   1.746542   0.000000
    10  H    1.091151   7.251263   5.184396   4.878235   0.000000
    11  H    1.091175   6.491655   5.191733   5.191733   1.763402
    12  H    1.091151   7.251263   4.878235   5.184396   1.763936
                   11         12
    11  H    0.000000
    12  H    1.763402   0.000000
 Stoichiometry    C6H6
 Framework group  CS[SG(C6H2),X(H4)]
 Deg. of freedom    19
 Full point group                 CS      NOp   2
 Largest Abelian subgroup         CS      NOp   2
 Largest concise Abelian subgroup CS      NOp   2
                         Standard orientation:                         
 ---------------------------------------------------------------------
 Center     Atomic      Atomic             Coordinates (Angstroms)
 Number     Number       Type             X           Y           Z
 ---------------------------------------------------------------------
      1          6           0       -1.366516   -2.606194    0.000000
      2          6           0       -1.346804   -1.408428    0.000000
      3          6           0       -1.341274    0.055906    0.000000
      4          6           0        0.000000    0.643407    0.000000
      5          6           0        1.095008    1.133175    0.000000
      6          6           0        2.427650    1.718443    0.000000
      7          1           0       -1.377692   -3.667353    0.000000
      8          1           0       -1.896438    0.412423    0.873271
      9          1           0       -1.896438    0.412423   -0.873271
     10          1           0        2.584143    2.341542   -0.881968
     11          1           0        3.193895    0.941570    0.000000
     12          1           0        2.584143    2.341542    0.881968
 ---------------------------------------------------------------------
 Rotational constants (GHZ):          12.5742076           1.5015437           1.3638449
 General basis read from cards:  (5D, 7F)
 There are   196 symmetry adapted cartesian basis functions of A'  symmetry.
 There are   104 symmetry adapted cartesian basis functions of A"  symmetry.
 There are   168 symmetry adapted basis functions of A'  symmetry.
 There are    96 symmetry adapted basis functions of A"  symmetry.
   264 basis functions,   414 primitive gaussians,   300 cartesian basis functions
    21 alpha electrons       21 beta electrons
       nuclear repulsion energy       175.1552666581 Hartrees.
 NAtoms=   12 NActive=   12 NUniq=   10 SFac= 1.44D+00 NAtFMM=   60 NAOKFM=F Big=F
 Integral buffers will be    131072 words long.
 Raffenetti 2 integral format.
 Two-electron integral symmetry is turned on.
 One-electron integrals computed using PRISM.
 NBasis=   264 RedAO= T EigKep=  2.30D-05  NBF=   168    96
 NBsUse=   264 1.00D-06 EigRej= -1.00D+00 NBFU=   168    96
 ExpMin= 7.42D-02 ExpMax= 7.32D+03 ExpMxC= 2.50D+02 IAcc=3 IRadAn=         5 AccDes= 0.00D+00
 Harris functional with IExCor=  402 and IRadAn=       5 diagonalized for initial guess.
 HarFok:  IExCor=  402 AccDes= 0.00D+00 IRadAn=         5 IDoV= 1 UseB2=F ITyADJ=14
 ICtDFT=  3500011 ScaDFX=  1.000000  1.000000  1.000000  1.000000
 FoFCou: FMM=F IPFlag=           0 FMFlag=      100000 FMFlg1=           0
         NFxFlg=           0 DoJE=T BraDBF=F KetDBF=T FulRan=T
         wScrn=  0.000000 ICntrl=       500 IOpCl=  0 I1Cent=   200000004 NGrid=           0
         NMat0=    1 NMatS0=      1 NMatT0=    0 NMatD0=    1 NMtDS0=    0 NMtDT0=    0
 Petite list used in FoFCou.
 Initial guess orbital symmetries:
       Occupied  (A') (A') (A') (A') (A') (A') (A') (A') (A') (A')
                 (A') (A') (A') (A') (A") (A') (A") (A') (A") (A')
                 (A")
       Virtual   (A') (A") (A") (A') (A') (A') (A') (A") (A') (A")
                 (A') (A') (A') (A') (A') (A') (A") (A') (A") (A')
                 (A') (A") (A') (A') (A") (A') (A") (A') (A') (A")
                 (A") (A') (A') (A') (A') (A") (A') (A') (A') (A')
                 (A') (A') (A') (A") (A') (A') (A") (A') (A") (A')
                 (A") (A') (A') (A") (A') (A") (A') (A") (A") (A")
                 (A') (A") (A') (A') (A') (A") (A') (A") (A') (A')
                 (A") (A') (A') (A") (A') (A') (A") (A") (A') (A")
                 (A') (A') (A") (A') (A') (A') (A') (A") (A') (A")
                 (A') (A') (A') (A") (A") (A') (A') (A') (A") (A')
                 (A') (A') (A") (A') (A') (A') (A") (A') (A') (A")
                 (A') (A') (A") (A') (A') (A") (A') (A') (A') (A")
                 (A') (A") (A") (A') (A") (A') (A') (A") (A') (A")
                 (A') (A') (A") (A") (A') (A') (A') (A") (A') (A")
                 (A") (A') (A") (A') (A') (A') (A') (A') (A") (A")
                 (A") (A') (A') (A") (A") (A") (A') (A") (A") (A')
                 (A") (A') (A") (A') (A') (A") (A') (A") (A') (A")
                 (A') (A") (A') (A") (A') (A') (A') (A") (A') (A')
                 (A") (A') (A") (A') (A') (A') (A") (A') (A') (A")
                 (A") (A") (A') (A') (A') (A") (A') (A") (A') (A")
                 (A') (A") (A') (A") (A') (A') (A') (A") (A') (A')
                 (A') (A") (A') (A') (A") (A') (A') (A") (A') (A')
                 (A') (A") (A") (A') (A') (A") (A") (A') (A") (A")
                 (A') (A') (A') (A") (A") (A') (A') (A") (A') (A')
                 (A') (A') (A')
 The electronic state of the initial guess is 1-A'.
 Requested convergence on RMS density matrix=1.00D-08 within 128 cycles.
 Requested convergence on MAX density matrix=1.00D-06.
 Requested convergence on             energy=1.00D-06.
 No special actions if energy rises.
 Integral accuracy reduced to 1.0D-05 until final iterations.
 Initial convergence to 1.0D-05 achieved.  Increase integral accuracy.
 SCF Done:  E(RB3LYP) =  -232.209119145     A.U. after   14 cycles
            NFock= 14  Conv=0.64D-08     -V/T= 2.0041

 **********************************************************************

            Population analysis using the SCF Density.

 **********************************************************************

 Orbital symmetries:
       Occupied  (A') (A') (A') (A') (A') (A') (A') (A') (A') (A')
                 (A') (A') (A') (A") (A') (A') (A") (A') (A") (A')
                 (A")
       Virtual   (A') (A') (A") (A') (A") (A') (A') (A") (A') (A')
                 (A") (A') (A') (A') (A") (A') (A") (A') (A') (A')
                 (A") (A') (A') (A') (A") (A') (A') (A") (A") (A')
                 (A") (A') (A') (A') (A") (A') (A') (A') (A') (A')
                 (A') (A') (A') (A") (A') (A") (A') (A") (A') (A')
                 (A') (A") (A") (A') (A") (A') (A') (A") (A") (A")
                 (A') (A") (A') (A") (A') (A') (A') (A") (A') (A')
                 (A") (A') (A') (A') (A") (A") (A') (A") (A') (A")
                 (A') (A') (A") (A') (A') (A') (A') (A") (A") (A')
                 (A') (A') (A') (A") (A") (A') (A') (A') (A") (A')
                 (A') (A') (A") (A') (A') (A') (A") (A') (A") (A')
                 (A') (A') (A") (A') (A') (A") (A') (A') (A') (A")
                 (A') (A") (A") (A') (A") (A') (A') (A") (A") (A')
                 (A') (A') (A") (A") (A') (A') (A') (A") (A') (A")
                 (A") (A') (A") (A') (A') (A') (A') (A") (A') (A")
                 (A') (A") (A') (A") (A") (A") (A') (A") (A") (A")
                 (A') (A") (A') (A') (A') (A") (A') (A") (A") (A')
                 (A") (A') (A') (A") (A') (A') (A') (A") (A') (A')
                 (A") (A') (A') (A") (A') (A') (A") (A') (A") (A")
                 (A') (A") (A') (A') (A') (A") (A") (A') (A") (A')
                 (A') (A") (A') (A') (A") (A') (A') (A") (A') (A')
                 (A') (A") (A') (A') (A") (A') (A') (A") (A') (A')
                 (A') (A") (A") (A') (A") (A') (A") (A") (A') (A")
                 (A') (A') (A') (A") (A') (A") (A') (A") (A') (A')
                 (A') (A') (A')
 The electronic state is 1-A'.
 Alpha  occ. eigenvalues --  -10.22494 -10.19256 -10.17986 -10.16945 -10.16626
 Alpha  occ. eigenvalues --  -10.16614  -0.81852  -0.77563  -0.73123  -0.68478
 Alpha  occ. eigenvalues --   -0.54432  -0.50294  -0.47589  -0.46231  -0.45574
 Alpha  occ. eigenvalues --   -0.43376  -0.43329  -0.28756  -0.28601  -0.26630
 Alpha  occ. eigenvalues --   -0.26189
 Alpha virt. eigenvalues --    0.00956   0.02129   0.02597   0.03303   0.04482
 Alpha virt. eigenvalues --    0.04815   0.05064   0.07194   0.08772   0.09825
 Alpha virt. eigenvalues --    0.10190   0.11407   0.14008   0.16873   0.17555
 Alpha virt. eigenvalues --    0.18092   0.19158   0.20019   0.20785   0.21931
 Alpha virt. eigenvalues --    0.23429   0.24741   0.25831   0.28306   0.29687
 Alpha virt. eigenvalues --    0.30922   0.32165   0.33235   0.33746   0.34032
 Alpha virt. eigenvalues --    0.36884   0.37111   0.37932   0.40358   0.41753
 Alpha virt. eigenvalues --    0.43237   0.46416   0.48570   0.50515   0.52897
 Alpha virt. eigenvalues --    0.54636   0.62216   0.62785   0.65396   0.70484
 Alpha virt. eigenvalues --    0.78749   0.79136   0.81466   0.82089   0.84862
 Alpha virt. eigenvalues --    0.86631   0.86695   0.91008   0.92791   0.93146
 Alpha virt. eigenvalues --    0.93990   0.95206   0.96826   0.99549   1.04679
 Alpha virt. eigenvalues --    1.06022   1.06172   1.07351   1.10938   1.11334
 Alpha virt. eigenvalues --    1.11807   1.13009   1.13684   1.14292   1.19679
 Alpha virt. eigenvalues --    1.21136   1.21887   1.22376   1.24715   1.26156
 Alpha virt. eigenvalues --    1.28559   1.28861   1.30323   1.31887   1.32957
 Alpha virt. eigenvalues --    1.35241   1.36489   1.39593   1.40081   1.47523
 Alpha virt. eigenvalues --    1.50044   1.50389   1.51320   1.56357   1.56976
 Alpha virt. eigenvalues --    1.60844   1.65467   1.65954   1.67579   1.69549
 Alpha virt. eigenvalues --    1.69579   1.70596   1.76306   1.77295   1.79784
 Alpha virt. eigenvalues --    1.83407   1.84957   1.86710   1.88034   2.02554
 Alpha virt. eigenvalues --    2.13548   2.18185   2.27419   2.30975   2.32531
 Alpha virt. eigenvalues --    2.34505   2.44645   2.49261   2.53462   2.57085
 Alpha virt. eigenvalues --    2.57631   2.65718   2.87239   3.00419   3.03837
 Alpha virt. eigenvalues --    3.08782   3.13414   3.17415   3.17699   3.18580
 Alpha virt. eigenvalues --    3.20412   3.22654   3.26500   3.27734   3.27953
 Alpha virt. eigenvalues --    3.28448   3.32279   3.34340   3.37064   3.39818
 Alpha virt. eigenvalues --    3.43893   3.48266   3.50276   3.53856   3.57348
 Alpha virt. eigenvalues --    3.57971   3.58488   3.61041   3.64366   3.66034
 Alpha virt. eigenvalues --    3.68785   3.73110   3.74661   3.76121   3.76869
 Alpha virt. eigenvalues --    3.81417   3.81542   3.82336   3.82583   3.83777
 Alpha virt. eigenvalues --    3.85646   3.93210   3.95330   3.96173   3.97252
 Alpha virt. eigenvalues --    3.97279   3.98361   4.00018   4.00327   4.03192
 Alpha virt. eigenvalues --    4.07108   4.08293   4.10913   4.13586   4.13885
 Alpha virt. eigenvalues --    4.15875   4.18389   4.19351   4.21790   4.22771
 Alpha virt. eigenvalues --    4.26254   4.28939   4.29618   4.35002   4.36862
 Alpha virt. eigenvalues --    4.37254   4.43092   4.45681   4.45776   4.46521
 Alpha virt. eigenvalues --    4.54879   4.55626   4.58154   4.61417   4.62107
 Alpha virt. eigenvalues --    4.62186   4.63929   4.65652   4.66504   4.67870
 Alpha virt. eigenvalues --    4.70555   4.72674   4.72791   4.74355   4.75567
 Alpha virt. eigenvalues --    4.82178   4.83645   4.86187   4.87582   4.88354
 Alpha virt. eigenvalues --    4.92135   4.99774   5.02297   5.04077   5.05125
 Alpha virt. eigenvalues --    5.17656   5.22140   5.34628   5.36477   5.39383
 Alpha virt. eigenvalues --    5.46350   5.53060   5.61258   5.65110   5.68194
 Alpha virt. eigenvalues --    5.73745   5.76425   5.78769   5.81150   5.81601
 Alpha virt. eigenvalues --    5.81603   5.85327   5.85793   5.86118   5.89655
 Alpha virt. eigenvalues --    5.97506   5.98947   5.99867   6.00534   6.01621
 Alpha virt. eigenvalues --    6.05511   6.14160   6.14861   6.49743   6.94698
 Alpha virt. eigenvalues --    7.12067   8.13954   8.38291
          Condensed to atoms (all electrons):
               1          2          3          4          5          6
     1  C    5.197953   0.737552  -0.079050  -0.013916  -0.017967  -0.000624
     2  C    0.737552   4.944356   0.379360  -0.045357  -0.023791  -0.001735
     3  C   -0.079050   0.379360   4.506528   0.353417  -0.039849   0.003958
     4  C   -0.013916  -0.045357   0.353417   5.032257   0.914867  -0.068230
     5  C   -0.017967  -0.023791  -0.039849   0.914867   5.072708   0.308179
     6  C   -0.000624  -0.001735   0.003958  -0.068230   0.308179   4.556733
     7  H    0.516524  -0.095893  -0.001977  -0.000790  -0.000347   0.000002
     8  H   -0.003017  -0.052846   0.438985  -0.056108  -0.002005   0.000023
     9  H   -0.003017  -0.052846   0.438985  -0.056108  -0.002005   0.000023
    10  H   -0.000029  -0.000216   0.000042  -0.002663  -0.051402   0.429100
    11  H    0.000042   0.000542   0.000152  -0.000794  -0.051363   0.427407
    12  H   -0.000029  -0.000216   0.000042  -0.002663  -0.051402   0.429100
               7          8          9         10         11         12
     1  C    0.516524  -0.003017  -0.003017  -0.000029   0.000042  -0.000029
     2  C   -0.095893  -0.052846  -0.052846  -0.000216   0.000542  -0.000216
     3  C   -0.001977   0.438985   0.438985   0.000042   0.000152   0.000042
     4  C   -0.000790  -0.056108  -0.056108  -0.002663  -0.000794  -0.002663
     5  C   -0.000347  -0.002005  -0.002005  -0.051402  -0.051363  -0.051402
     6  C    0.000002   0.000023   0.000023   0.429100   0.427407   0.429100
     7  H    0.547623  -0.000146  -0.000146  -0.000001   0.000004  -0.000001
     8  H   -0.000146   0.654090  -0.043752  -0.000154  -0.000101   0.000440
     9  H   -0.000146  -0.043752   0.654090   0.000440  -0.000101  -0.000154
    10  H   -0.000001  -0.000154   0.000440   0.634436  -0.029022  -0.030296
    11  H    0.000004  -0.000101  -0.000101  -0.029022   0.628720  -0.029022
    12  H   -0.000001   0.000440  -0.000154  -0.030296  -0.029022   0.634436
 Mulliken charges:
               1
     1  C   -0.334422
     2  C    0.211089
     3  C   -0.000592
     4  C   -0.053913
     5  C   -0.055621
     6  C   -0.083934
     7  H    0.035147
     8  H    0.064590
     9  H    0.064590
    10  H    0.049765
    11  H    0.053536
    12  H    0.049765
 Sum of Mulliken charges =  -0.00000
 Mulliken charges with hydrogens summed into heavy atoms:
               1
     1  C   -0.299276
     2  C    0.211089
     3  C    0.128588
     4  C   -0.053913
     5  C   -0.055621
     6  C    0.069133
 Electronic spatial extent (au):  <R**2>=            850.9953
 Charge=             -0.0000 electrons
 Dipole moment (field-independent basis, Debye):
    X=              0.3719    Y=              0.7612    Z=             -0.0000  Tot=              0.8472
 Quadrupole moment (field-independent basis, Debye-Ang):
   XX=            -31.3796   YY=            -31.8554   ZZ=            -37.2243
   XY=              1.8182   XZ=              0.0000   YZ=             -0.0000
 Traceless Quadrupole moment (field-independent basis, Debye-Ang):
   XX=              2.1068   YY=              1.6310   ZZ=             -3.7379
   XY=              1.8182   XZ=              0.0000   YZ=             -0.0000
 Octapole moment (field-independent basis, Debye-Ang**2):
  XXX=             15.5222  YYY=            -20.6603  ZZZ=             -0.0000  XYY=              1.6319
  XXY=             12.8354  XXZ=              0.0000  XZZ=              1.0156  YZZ=              4.8962
  YYZ=              0.0000  XYZ=              0.0000
 Hexadecapole moment (field-independent basis, Debye-Ang**3):
 XXXX=           -562.7506 YYYY=           -452.8474 ZZZZ=            -56.9948 XXXY=           -214.0036
 XXXZ=              0.0000 YYYX=           -165.2492 YYYZ=              0.0000 ZZZX=             -0.0000
 ZZZY=             -0.0000 XXYY=           -180.7518 XXZZ=           -103.9726 YYZZ=           -110.8836
 XXYZ=              0.0000 YYXZ=              0.0000 ZZXY=            -72.9755
 N-N= 1.751552666581D+02 E-N=-8.887238091669D+02  KE= 2.312566631027D+02
 Symmetry A'   KE= 2.226076520536D+02
 Symmetry A"   KE= 8.649011049115D+00
 Calling FoFJK, ICntrl=      2127 FMM=F ISym2X=1 I1Cent= 0 IOpClX= 0 NMat=1 NMatS=1 NMatT=0.
 ***** Axes restored to original set *****
 -------------------------------------------------------------------
 Center     Atomic                   Forces (Hartrees/Bohr)
 Number     Number              X              Y              Z
 -------------------------------------------------------------------
      1        6          -0.000002066   -0.000007627    0.000000000
      2        6          -0.000000877    0.000005446    0.000000000
      3        6           0.000002248   -0.000004120    0.000000000
      4        6          -0.000011540    0.000001760    0.000000000
      5        6           0.000001136   -0.000001102   -0.000000000
      6        6           0.000008845    0.000000342   -0.000000000
      7        1           0.000002073    0.000000030    0.000000000
      8        1          -0.000000465    0.000000876   -0.000002929
      9        1          -0.000000465    0.000000876    0.000002929
     10        1           0.000001428   -0.000000674    0.000002793
     11        1          -0.000001746    0.000004867    0.000000000
     12        1           0.000001428   -0.000000674   -0.000002793
 -------------------------------------------------------------------
 Cartesian Forces:  Max     0.000011540 RMS     0.000003345

 GradGradGradGradGradGradGradGradGradGradGradGradGradGradGradGradGradGrad
 Berny optimization.
 FormGI is forming the generalized inverse of G from B-inverse, IUseBI=4.
 Internal  Forces:  Max     0.000011370 RMS     0.000003542
 Search for a local minimum.
 Step number   1 out of a maximum of   50
 All quantities printed in internal units (Hartrees-Bohrs-Radians)
 Mixed Optimization -- En-DIIS/RFO-DIIS
 Second derivative matrix not updated -- first step.
 ITU=  0
     Eigenvalues ---    0.00230   0.00616   0.00616   0.01025   0.01182
     Eigenvalues ---    0.01238   0.01238   0.03436   0.03522   0.05519
     Eigenvalues ---    0.05948   0.07334   0.08459   0.16000   0.16000
     Eigenvalues ---    0.16000   0.16000   0.16000   0.22324   0.34299
     Eigenvalues ---    0.34299   0.34677   0.34680   0.34680   0.36426
     Eigenvalues ---    0.36431   0.37534   0.38362   1.05051   1.05871
 RFO step:  Lambda= 0.00000000D+00 EMin= 2.30000000D-03
 Linear search not attempted -- first point.
 Iteration  1 RMS(Cart)=  0.00049010 RMS(Int)=  0.00000014
 Iteration  2 RMS(Cart)=  0.00000016 RMS(Int)=  0.00000000
 ClnCor:  largest displacement from symmetrization is 1.43D-11 for atom     1.
 Variable       Old X    -DE/DX   Delta X   Delta X   Delta X     New X
                                 (Linear)    (Quad)   (Total)
    R1        2.26376   0.00001   0.00000   0.00001   0.00001   2.26376
    R2        2.00541  -0.00000   0.00000  -0.00000  -0.00000   2.00541
    R3        2.76721   0.00000   0.00000   0.00001   0.00001   2.76722
    R4        2.76713   0.00000   0.00000   0.00000   0.00000   2.76713
    R5        2.06829  -0.00000   0.00000  -0.00001  -0.00001   2.06829
    R6        2.06829  -0.00000   0.00000  -0.00001  -0.00001   2.06829
    R7        2.26682   0.00001   0.00000   0.00001   0.00001   2.26683
    R8        2.75049   0.00001   0.00000   0.00003   0.00003   2.75052
    R9        2.06198  -0.00000   0.00000  -0.00001  -0.00001   2.06197
   R10        2.06202  -0.00000   0.00000  -0.00001  -0.00001   2.06201
   R11        2.06198  -0.00000   0.00000  -0.00001  -0.00001   2.06197
    A1        1.98742   0.00000   0.00000   0.00001   0.00001   1.98742
    A2        1.90056   0.00000   0.00000   0.00001   0.00001   1.90057
    A3        1.90056   0.00000   0.00000   0.00001   0.00001   1.90057
    A4        1.91126   0.00000   0.00000   0.00000   0.00000   1.91126
    A5        1.91126   0.00000   0.00000   0.00000   0.00000   1.91126
    A6        1.84753  -0.00000   0.00000  -0.00003  -0.00003   1.84750
    A7        1.94007   0.00000   0.00000   0.00001   0.00001   1.94008
    A8        1.93549   0.00000   0.00000   0.00002   0.00002   1.93550
    A9        1.94007   0.00000   0.00000   0.00001   0.00001   1.94008
   A10        1.88163  -0.00000   0.00000  -0.00001  -0.00001   1.88162
   A11        1.88249  -0.00000   0.00000  -0.00002  -0.00002   1.88247
   A12        1.88163  -0.00000   0.00000  -0.00001  -0.00001   1.88162
   A13        3.13567  -0.00000   0.00000  -0.00061  -0.00061   3.13506
   A14        3.15427  -0.00000   0.00000  -0.00027  -0.00027   3.15400
   A15        3.14933  -0.00001   0.00000  -0.00018  -0.00018   3.14916
   A16        3.13483  -0.00000   0.00000  -0.00018  -0.00018   3.13465
   A17        3.14159  -0.00000   0.00000  -0.00000   0.00000   3.14159
   A18        3.14159   0.00000   0.00000   0.00000   0.00000   3.14159
   A19        3.14159   0.00000   0.00000   0.00000   0.00000   3.14159
   A20        3.14159   0.00000   0.00000   0.00000   0.00000   3.14159
    D1        2.09246  -0.00000   0.00000  -0.00006  -0.00006   2.09241
    D2        0.00000   0.00000   0.00000   0.00000   0.00000   0.00000
    D3       -2.09246   0.00000   0.00000   0.00006   0.00006  -2.09241
    D4       -2.05766  -0.00000   0.00000  -0.00009  -0.00009  -2.05775
    D5        2.13306   0.00000   0.00000  -0.00004  -0.00004   2.13302
    D6        0.04059   0.00000   0.00000   0.00002   0.00002   0.04061
    D7       -0.04059  -0.00000   0.00000  -0.00002  -0.00002  -0.04061
    D8       -2.13306  -0.00000   0.00000   0.00004   0.00004  -2.13302
    D9        2.05766   0.00000   0.00000   0.00009   0.00009   2.05775
         Item               Value     Threshold  Converged?
 Maximum Force            0.000011     0.000450     YES
 RMS     Force            0.000004     0.000300     YES
 Maximum Displacement     0.002288     0.001800     NO 
 RMS     Displacement     0.000490     0.001200     YES
 Predicted change in Energy=-3.080053D-09
 GradGradGradGradGradGradGradGradGradGradGradGradGradGradGradGradGradGrad

                          Input orientation:                          
 ---------------------------------------------------------------------
 Center     Atomic      Atomic             Coordinates (Angstroms)
 Number     Number       Type             X           Y           Z
 ---------------------------------------------------------------------
      1          6           0       -1.366299   -2.606036    0.000000
      2          6           0       -1.346973   -1.408260    0.000000
      3          6           0       -1.341521    0.056077    0.000000
      4          6           0       -0.000281    0.643660    0.000000
      5          6           0        1.094790    1.133302    0.000000
      6          6           0        2.427618    1.718184    0.000000
      7          1           0       -1.376482   -3.667205    0.000000
      8          1           0       -1.896712    0.412573    0.873259
      9          1           0       -1.896712    0.412573   -0.873259
     10          1           0        2.584304    2.341240   -0.881959
     11          1           0        3.193641    0.941103    0.000000
     12          1           0        2.584304    2.341240    0.881959
 ---------------------------------------------------------------------
                    Distance matrix (angstroms):
                    1          2          3          4          5
     1  C    0.000000
     2  C    1.197932   0.000000
     3  C    2.662228   1.464347   0.000000
     4  C    3.525128   2.454375   1.464302   0.000000
     5  C    4.476562   3.524450   2.663837   1.199554   0.000000
     6  C    5.752624   4.901244   4.119345   2.655050   1.455512
     7  H    1.061218   2.259138   3.723446   4.525206   5.399264
     8  H    3.186836   2.092900   1.094490   2.100579   3.198611
     9  H    3.186836   2.092900   1.094490   2.100579   3.198611
    10  H    6.392234   5.503775   4.627302   3.215542   2.110833
    11  H    5.777131   5.112405   4.620711   3.207742   2.107633
    12  H    6.392234   5.503775   4.627302   3.215542   2.110833
                    6          7          8          9         10
     6  C    0.000000
     7  H    6.593451   0.000000
     8  H    4.600763   4.204499   0.000000
     9  H    4.600763   4.204499   1.746518   0.000000
    10  H    1.091147   7.250317   5.184597   4.878456   0.000000
    11  H    1.091168   6.490187   5.191687   5.191687   1.763386
    12  H    1.091147   7.250317   4.878456   5.184597   1.763918
                   11         12
    11  H    0.000000
    12  H    1.763386   0.000000
 Stoichiometry    C6H6
 Framework group  CS[SG(C6H2),X(H4)]
 Deg. of freedom    19
 Full point group                 CS      NOp   2
 Largest Abelian subgroup         CS      NOp   2
 Largest concise Abelian subgroup CS      NOp   2
                         Standard orientation:                         
 ---------------------------------------------------------------------
 Center     Atomic      Atomic             Coordinates (Angstroms)
 Number     Number       Type             X           Y           Z
 ---------------------------------------------------------------------
      1          6           0       -1.366996   -2.605699    0.000000
      2          6           0       -1.347310   -1.407928    0.000000
      3          6           0       -1.341417    0.056407    0.000000
      4          6           0        0.000000    0.643586    0.000000
      5          6           0        1.095218    1.132899    0.000000
      6          6           0        2.428221    1.717380    0.000000
      7          1           0       -1.377498   -3.666864    0.000000
      8          1           0       -1.896500    0.413070    0.873259
      9          1           0       -1.896500    0.413070   -0.873259
     10          1           0        2.585095    2.340389   -0.881959
     11          1           0        3.194011    0.940068    0.000000
     12          1           0        2.585095    2.340389    0.881959
 ---------------------------------------------------------------------
 Rotational constants (GHZ):          12.5682871           1.5017442           1.3639402
 Basis read from rwf:  (5D, 7F)
 There are   196 symmetry adapted cartesian basis functions of A'  symmetry.
 There are   104 symmetry adapted cartesian basis functions of A"  symmetry.
 There are   168 symmetry adapted basis functions of A'  symmetry.
 There are    96 symmetry adapted basis functions of A"  symmetry.
   264 basis functions,   414 primitive gaussians,   300 cartesian basis functions
    21 alpha electrons       21 beta electrons
       nuclear repulsion energy       175.1559984390 Hartrees.
 NAtoms=   12 NActive=   12 NUniq=   10 SFac= 1.44D+00 NAtFMM=   60 NAOKFM=F Big=F
 Integral buffers will be    131072 words long.
 Raffenetti 2 integral format.
 Two-electron integral symmetry is turned on.
 One-electron integrals computed using PRISM.
 NBasis=   264 RedAO= T EigKep=  2.30D-05  NBF=   168    96
 NBsUse=   264 1.00D-06 EigRej= -1.00D+00 NBFU=   168    96
 Initial guess from the checkpoint file:  "hexadiyne14.chk"
 B after Tr=     0.000000   -0.000000    0.000000
         Rot=    1.000000    0.000000    0.000000    0.000154 Ang=   0.02 deg.
 Initial guess orbital symmetries:
       Occupied  (A') (A') (A') (A') (A') (A') (A') (A') (A') (A')
                 (A') (A') (A') (A") (A') (A') (A") (A') (A") (A')
                 (A")
       Virtual   (A') (A') (A") (A') (A") (A') (A') (A") (A') (A')
                 (A") (A') (A') (A') (A") (A') (A") (A') (A') (A')
                 (A") (A') (A') (A') (A") (A') (A') (A") (A") (A')
                 (A") (A') (A') (A') (A") (A') (A') (A') (A') (A')
                 (A') (A') (A') (A") (A') (A") (A') (A") (A') (A')
                 (A') (A") (A") (A') (A") (A') (A') (A") (A") (A")
                 (A') (A") (A') (A") (A') (A') (A') (A") (A') (A')
                 (A") (A') (A') (A') (A") (A") (A') (A") (A') (A")
                 (A') (A') (A") (A') (A') (A') (A') (A") (A") (A')
                 (A') (A') (A') (A") (A") (A') (A') (A') (A") (A')
                 (A') (A') (A") (A') (A') (A') (A") (A') (A") (A')
                 (A') (A') (A") (A') (A') (A") (A') (A') (A') (A")
                 (A') (A") (A") (A') (A") (A') (A') (A") (A") (A')
                 (A') (A') (A") (A") (A') (A') (A') (A") (A') (A")
                 (A") (A') (A") (A') (A') (A') (A') (A") (A') (A")
                 (A') (A") (A') (A") (A") (A") (A') (A") (A") (A")
                 (A') (A") (A') (A') (A') (A") (A') (A") (A") (A')
                 (A") (A') (A') (A") (A') (A') (A') (A") (A') (A')
                 (A") (A') (A') (A") (A') (A') (A") (A') (A") (A")
                 (A') (A") (A') (A') (A') (A") (A") (A') (A") (A')
                 (A') (A") (A') (A') (A") (A') (A') (A") (A') (A')
                 (A') (A") (A') (A') (A") (A') (A') (A") (A') (A')
                 (A') (A") (A") (A') (A") (A') (A") (A") (A') (A")
                 (A') (A') (A') (A") (A') (A") (A') (A") (A') (A')
                 (A') (A') (A')
 Requested convergence on RMS density matrix=1.00D-08 within 128 cycles.
 Requested convergence on MAX density matrix=1.00D-06.
 Requested convergence on             energy=1.00D-06.
 No special actions if energy rises.
 SCF Done:  E(RB3LYP) =  -232.209119127     A.U. after    6 cycles
            NFock=  6  Conv=0.60D-08     -V/T= 2.0041
 Calling FoFJK, ICntrl=      2127 FMM=F ISym2X=1 I1Cent= 0 IOpClX= 0 NMat=1 NMatS=1 NMatT=0.
 ***** Axes restored to original set *****
 -------------------------------------------------------------------
 Center     Atomic                   Forces (Hartrees/Bohr)
 Number     Number              X              Y              Z
 -------------------------------------------------------------------
      1        6           0.000021943    0.000000186   -0.000000000
      2        6           0.000014890    0.000001328   -0.000000000
      3        6          -0.000015837    0.000003416   -0.000000000
      4        6           0.000000335   -0.000005157    0.000000000
      5        6           0.000004595   -0.000010672    0.000000000
      6        6          -0.000002998    0.000007582    0.000000000
      7        1          -0.000019019   -0.000000135   -0.000000000
      8        1          -0.000001313    0.000001625   -0.000000724
      9        1          -0.000001313    0.000001625    0.000000724
     10        1           0.000000435    0.000000592    0.000000178
     11        1          -0.000002154   -0.000000983   -0.000000000
     12        1           0.000000435    0.000000592   -0.000000178
 -------------------------------------------------------------------
 Cartesian Forces:  Max     0.000021943 RMS     0.000006612

 GradGradGradGradGradGradGradGradGradGradGradGradGradGradGradGradGradGrad
 Berny optimization.
 Using GEDIIS/GDIIS optimizer.
 FormGI is forming the generalized inverse of G from B-inverse, IUseBI=4.
 Internal  Forces:  Max     0.000038523 RMS     0.000008789
 Search for a local minimum.
 Step number   2 out of a maximum of   50
 All quantities printed in internal units (Hartrees-Bohrs-Radians)
 Mixed Optimization -- En-DIIS/RFO-DIIS
 Swapping is turned off.
 Update second derivatives using D2CorX and points    2
 DE=  1.78D-08 DEPred=-3.08D-09 R=-5.78D+00
 Trust test=-5.78D+00 RLast= 7.36D-04 DXMaxT set to 1.50D-01
 ITU= -1  0
     Eigenvalues ---    0.00230   0.00616   0.00616   0.01025   0.01182
     Eigenvalues ---    0.01238   0.01238   0.03436   0.03521   0.05519
     Eigenvalues ---    0.05947   0.07335   0.08459   0.16000   0.16000
     Eigenvalues ---    0.16000   0.16000   0.16000   0.22324   0.34299
     Eigenvalues ---    0.34299   0.34677   0.34680   0.34680   0.36426
     Eigenvalues ---    0.36431   0.37534   0.38362   1.05051   1.05871
 En-DIIS/RFO-DIIS/Sim-DIIS IScMMF=       -3 using points:     2    1
 RFO step:  Lambda=-3.49920023D-07.
 DidBck=T Rises=F RFO-DIIS coefs:    0.09326    0.90674
 Iteration  1 RMS(Cart)=  0.00033661 RMS(Int)=  0.00000010
 Iteration  2 RMS(Cart)=  0.00000010 RMS(Int)=  0.00000000
 ClnCor:  largest displacement from symmetrization is 7.42D-12 for atom    12.
 Variable       Old X    -DE/DX   Delta X   Delta X   Delta X     New X
                                 (Linear)    (Quad)   (Total)
    R1        2.26376  -0.00000  -0.00001   0.00001  -0.00000   2.26376
    R2        2.00541   0.00000   0.00000  -0.00000   0.00000   2.00541
    R3        2.76722  -0.00000  -0.00000   0.00000  -0.00000   2.76721
    R4        2.76713  -0.00000  -0.00000   0.00000  -0.00000   2.76713
    R5        2.06829   0.00000   0.00000  -0.00000   0.00000   2.06829
    R6        2.06829   0.00000   0.00000  -0.00000   0.00000   2.06829
    R7        2.26683  -0.00000  -0.00001   0.00001  -0.00000   2.26683
    R8        2.75052  -0.00000  -0.00003   0.00003  -0.00000   2.75052
    R9        2.06197   0.00000   0.00001  -0.00001   0.00000   2.06197
   R10        2.06201  -0.00000   0.00001  -0.00001  -0.00000   2.06201
   R11        2.06197   0.00000   0.00001  -0.00001   0.00000   2.06197
    A1        1.98742  -0.00001  -0.00001   0.00000  -0.00000   1.98742
    A2        1.90057   0.00000  -0.00001   0.00001   0.00000   1.90057
    A3        1.90057   0.00000  -0.00001   0.00001   0.00000   1.90057
    A4        1.91126   0.00000  -0.00000   0.00000   0.00000   1.91126
    A5        1.91126   0.00000  -0.00000   0.00000   0.00000   1.91126
    A6        1.84750   0.00000   0.00003  -0.00003  -0.00000   1.84750
    A7        1.94008   0.00000  -0.00001   0.00001   0.00000   1.94008
    A8        1.93550  -0.00001  -0.00001   0.00001  -0.00000   1.93550
    A9        1.94008   0.00000  -0.00001   0.00001   0.00000   1.94008
   A10        1.88162  -0.00000   0.00001  -0.00001  -0.00000   1.88162
   A11        1.88247   0.00000   0.00002  -0.00002   0.00000   1.88247
   A12        1.88162  -0.00000   0.00001  -0.00001  -0.00000   1.88162
   A13        3.13506   0.00004   0.00056   0.00003   0.00058   3.13564
   A14        3.15400   0.00003   0.00024   0.00000   0.00025   3.15425
   A15        3.14916   0.00001   0.00016  -0.00014   0.00002   3.14917
   A16        3.13465   0.00002   0.00016  -0.00005   0.00011   3.13476
   A17        3.14159   0.00000   0.00000  -0.00000   0.00000   3.14159
   A18        3.14159  -0.00000   0.00000   0.00000   0.00000   3.14159
   A19        3.14159   0.00000   0.00000   0.00000   0.00000   3.14159
   A20        3.14159  -0.00000   0.00000   0.00000   0.00000   3.14159
    D1        2.09241   0.00000   0.00005  -0.00003   0.00002   2.09243
    D2        0.00000   0.00000   0.00000   0.00000   0.00000   0.00000
    D3       -2.09241  -0.00000  -0.00005   0.00003  -0.00002  -2.09243
    D4       -2.05775   0.00000   0.00008  -0.00004   0.00004  -2.05771
    D5        2.13302   0.00000   0.00003  -0.00002   0.00001   2.13304
    D6        0.04061  -0.00000  -0.00002   0.00001  -0.00001   0.04060
    D7       -0.04061   0.00000   0.00002  -0.00001   0.00001  -0.04060
    D8       -2.13302  -0.00000  -0.00003   0.00002  -0.00001  -2.13304
    D9        2.05775  -0.00000  -0.00008   0.00004  -0.00004   2.05771
         Item               Value     Threshold  Converged?
 Maximum Force            0.000039     0.000450     YES
 RMS     Force            0.000009     0.000300     YES
 Maximum Displacement     0.001704     0.001800     YES
 RMS     Displacement     0.000337     0.001200     YES
 Predicted change in Energy=-3.111342D-08
 Optimization completed.
    -- Stationary point found.
                           ----------------------------
                           !   Optimized Parameters   !
                           ! (Angstroms and Degrees)  !
 --------------------------                            --------------------------
 ! Name  Definition              Value          Derivative Info.                !
 --------------------------------------------------------------------------------
 ! R1    R(1,2)                  1.1979         -DE/DX =    0.0                 !
 ! R2    R(1,7)                  1.0612         -DE/DX =    0.0                 !
 ! R3    R(2,3)                  1.4643         -DE/DX =    0.0                 !
 ! R4    R(3,4)                  1.4643         -DE/DX =    0.0                 !
 ! R5    R(3,8)                  1.0945         -DE/DX =    0.0                 !
 ! R6    R(3,9)                  1.0945         -DE/DX =    0.0                 !
 ! R7    R(4,5)                  1.1996         -DE/DX =    0.0                 !
 ! R8    R(5,6)                  1.4555         -DE/DX =    0.0                 !
 ! R9    R(6,10)                 1.0911         -DE/DX =    0.0                 !
 ! R10   R(6,11)                 1.0912         -DE/DX =    0.0                 !
 ! R11   R(6,12)                 1.0911         -DE/DX =    0.0                 !
 ! A1    A(2,3,4)              113.871          -DE/DX =    0.0                 !
 ! A2    A(2,3,8)              108.8946         -DE/DX =    0.0                 !
 ! A3    A(2,3,9)              108.8946         -DE/DX =    0.0                 !
 ! A4    A(4,3,8)              109.5073         -DE/DX =    0.0                 !
 ! A5    A(4,3,9)              109.5073         -DE/DX =    0.0                 !
 ! A6    A(8,3,9)              105.8541         -DE/DX =    0.0                 !
 ! A7    A(5,6,10)             111.1584         -DE/DX =    0.0                 !
 ! A8    A(5,6,11)             110.8962         -DE/DX =    0.0                 !
 ! A9    A(5,6,12)             111.1584         -DE/DX =    0.0                 !
 ! A10   A(10,6,11)            107.8087         -DE/DX =    0.0                 !
 ! A11   A(10,6,12)            107.8577         -DE/DX =    0.0                 !
 ! A12   A(11,6,12)            107.8087         -DE/DX =    0.0                 !
 ! A13   L(2,1,7,11,-1)        179.6255         -DE/DX =    0.0                 !
 ! A14   L(1,2,3,11,-1)        180.711          -DE/DX =    0.0                 !
 ! A15   L(3,4,5,7,-1)         180.4333         -DE/DX =    0.0                 !
 ! A16   L(4,5,6,7,-1)         179.6022         -DE/DX =    0.0                 !
 ! A17   L(2,1,7,11,-2)        180.0            -DE/DX =    0.0                 !
 ! A18   L(1,2,3,11,-2)        180.0            -DE/DX =    0.0                 !
 ! A19   L(3,4,5,7,-2)         180.0            -DE/DX =    0.0                 !
 ! A20   L(4,5,6,7,-2)         180.0            -DE/DX =    0.0                 !
 ! D1    D(2,3,6,10)           119.8862         -DE/DX =    0.0                 !
 ! D2    D(2,3,6,11)             0.0            -DE/DX =    0.0                 !
 ! D3    D(2,3,6,12)          -119.8862         -DE/DX =    0.0                 !
 ! D4    D(8,3,6,10)          -117.9006         -DE/DX =    0.0                 !
 ! D5    D(8,3,6,11)           122.2132         -DE/DX =    0.0                 !
 ! D6    D(8,3,6,12)             2.327          -DE/DX =    0.0                 !
 ! D7    D(9,3,6,10)            -2.327          -DE/DX =    0.0                 !
 ! D8    D(9,3,6,11)          -122.2132         -DE/DX =    0.0                 !
 ! D9    D(9,3,6,12)           117.9006         -DE/DX =    0.0                 !
 --------------------------------------------------------------------------------
 GradGradGradGradGradGradGradGradGradGradGradGradGradGradGradGradGradGrad

                          Input orientation:                          
 ---------------------------------------------------------------------
 Center     Atomic      Atomic             Coordinates (Angstroms)
 Number     Number       Type             X           Y           Z
 ---------------------------------------------------------------------
      1          6           0       -1.366299   -2.606036    0.000000
      2          6           0       -1.346973   -1.408260    0.000000
      3          6           0       -1.341521    0.056077    0.000000
      4          6           0       -0.000281    0.643660    0.000000
      5          6           0        1.094790    1.133302    0.000000
      6          6           0        2.427618    1.718184    0.000000
      7          1           0       -1.376482   -3.667205    0.000000
      8          1           0       -1.896712    0.412573    0.873259
      9          1           0       -1.896712    0.412573   -0.873259
     10          1           0        2.584304    2.341240   -0.881959
     11          1           0        3.193641    0.941103    0.000000
     12          1           0        2.584304    2.341240    0.881959
 ---------------------------------------------------------------------
                    Distance matrix (angstroms):
                    1          2          3          4          5
     1  C    0.000000
     2  C    1.197932   0.000000
     3  C    2.662228   1.464347   0.000000
     4  C    3.525128   2.454375   1.464302   0.000000
     5  C    4.476562   3.524450   2.663837   1.199554   0.000000
     6  C    5.752624   4.901244   4.119345   2.655050   1.455512
     7  H    1.061218   2.259138   3.723446   4.525206   5.399264
     8  H    3.186836   2.092900   1.094490   2.100579   3.198611
     9  H    3.186836   2.092900   1.094490   2.100579   3.198611
    10  H    6.392234   5.503775   4.627302   3.215542   2.110833
    11  H    5.777131   5.112405   4.620711   3.207742   2.107633
    12  H    6.392234   5.503775   4.627302   3.215542   2.110833
                    6          7          8          9         10
     6  C    0.000000
     7  H    6.593451   0.000000
     8  H    4.600763   4.204499   0.000000
     9  H    4.600763   4.204499   1.746518   0.000000
    10  H    1.091147   7.250317   5.184597   4.878456   0.000000
    11  H    1.091168   6.490187   5.191687   5.191687   1.763386
    12  H    1.091147   7.250317   4.878456   5.184597   1.763918
                   11         12
    11  H    0.000000
    12  H    1.763386   0.000000
 Stoichiometry    C6H6
 Framework group  CS[SG(C6H2),X(H4)]
 Deg. of freedom    19
 Full point group                 CS      NOp   2
 Largest Abelian subgroup         CS      NOp   2
 Largest concise Abelian subgroup CS      NOp   2
                         Standard orientation:                         
 ---------------------------------------------------------------------
 Center     Atomic      Atomic             Coordinates (Angstroms)
 Number     Number       Type             X           Y           Z
 ---------------------------------------------------------------------
      1          6           0       -1.366996   -2.605699    0.000000
      2          6           0       -1.347310   -1.407928    0.000000
      3          6           0       -1.341417    0.056407    0.000000
      4          6           0        0.000000    0.643586    0.000000
      5          6           0        1.095218    1.132899    0.000000
      6          6           0        2.428221    1.717380    0.000000
      7          1           0       -1.377498   -3.666864    0.000000
      8          1           0       -1.896500    0.413070    0.873259
      9          1           0       -1.896500    0.413070   -0.873259
     10          1           0        2.585095    2.340389   -0.881959
     11          1           0        3.194011    0.940068    0.000000
     12          1           0        2.585095    2.340389    0.881959
 ---------------------------------------------------------------------
 Rotational constants (GHZ):          12.5682871           1.5017442           1.3639402

 **********************************************************************

            Population analysis using the SCF Density.

 **********************************************************************

 Orbital symmetries:
       Occupied  (A') (A') (A') (A') (A') (A') (A') (A') (A') (A')
                 (A') (A') (A') (A") (A') (A') (A") (A') (A") (A')
                 (A")
       Virtual   (A') (A') (A") (A') (A") (A') (A') (A") (A') (A')
                 (A") (A') (A') (A') (A") (A') (A") (A') (A') (A')
                 (A") (A') (A') (A') (A") (A') (A') (A") (A") (A')
                 (A") (A') (A') (A') (A") (A') (A') (A') (A') (A')
                 (A') (A') (A') (A") (A') (A") (A') (A") (A') (A')
                 (A') (A") (A") (A') (A") (A') (A') (A") (A") (A")
                 (A') (A") (A') (A") (A') (A') (A') (A") (A') (A')
                 (A") (A') (A') (A') (A") (A") (A') (A") (A') (A")
                 (A') (A') (A") (A') (A') (A') (A') (A") (A") (A')
                 (A') (A') (A') (A") (A") (A') (A') (A') (A") (A')
                 (A') (A') (A") (A') (A') (A') (A") (A') (A") (A')
                 (A') (A') (A") (A') (A') (A") (A') (A') (A') (A")
                 (A') (A") (A") (A') (A") (A') (A') (A") (A") (A')
                 (A') (A') (A") (A") (A') (A') (A') (A") (A') (A")
                 (A") (A') (A") (A') (A') (A') (A') (A") (A') (A")
                 (A') (A") (A') (A") (A") (A") (A') (A") (A") (A")
                 (A') (A") (A') (A') (A') (A") (A') (A") (A") (A')
                 (A") (A') (A') (A") (A') (A') (A') (A") (A') (A')
                 (A") (A') (A') (A") (A') (A') (A") (A') (A") (A")
                 (A') (A") (A') (A') (A') (A") (A") (A') (A") (A')
                 (A') (A") (A') (A') (A") (A') (A') (A") (A') (A')
                 (A') (A") (A') (A') (A") (A') (A') (A") (A') (A')
                 (A') (A") (A") (A') (A") (A') (A") (A") (A') (A")
                 (A') (A') (A') (A") (A') (A") (A') (A") (A') (A')
                 (A') (A') (A')
 The electronic state is 1-A'.
 Alpha  occ. eigenvalues --  -10.22494 -10.19256 -10.17987 -10.16946 -10.16627
 Alpha  occ. eigenvalues --  -10.16614  -0.81852  -0.77563  -0.73123  -0.68478
 Alpha  occ. eigenvalues --   -0.54432  -0.50294  -0.47589  -0.46231  -0.45574
 Alpha  occ. eigenvalues --   -0.43376  -0.43329  -0.28756  -0.28601  -0.26630
 Alpha  occ. eigenvalues --   -0.26189
 Alpha virt. eigenvalues --    0.00956   0.02129   0.02598   0.03300   0.04482
 Alpha virt. eigenvalues --    0.04815   0.05064   0.07194   0.08772   0.09825
 Alpha virt. eigenvalues --    0.10190   0.11406   0.14008   0.16875   0.17554
 Alpha virt. eigenvalues --    0.18093   0.19157   0.20022   0.20787   0.21931
 Alpha virt. eigenvalues --    0.23429   0.24738   0.25825   0.28308   0.29687
 Alpha virt. eigenvalues --    0.30922   0.32166   0.33235   0.33746   0.34033
 Alpha virt. eigenvalues --    0.36884   0.37108   0.37936   0.40357   0.41753
 Alpha virt. eigenvalues --    0.43236   0.46413   0.48570   0.50513   0.52898
 Alpha virt. eigenvalues --    0.54636   0.62216   0.62784   0.65397   0.70483
 Alpha virt. eigenvalues --    0.78749   0.79134   0.81466   0.82094   0.84864
 Alpha virt. eigenvalues --    0.86633   0.86692   0.91011   0.92786   0.93146
 Alpha virt. eigenvalues --    0.93984   0.95201   0.96827   0.99550   1.04674
 Alpha virt. eigenvalues --    1.06024   1.06172   1.07351   1.10938   1.11339
 Alpha virt. eigenvalues --    1.11806   1.13008   1.13685   1.14292   1.19680
 Alpha virt. eigenvalues --    1.21130   1.21883   1.22377   1.24711   1.26163
 Alpha virt. eigenvalues --    1.28559   1.28865   1.30324   1.31888   1.32956
 Alpha virt. eigenvalues --    1.35243   1.36487   1.39593   1.40071   1.47526
 Alpha virt. eigenvalues --    1.50041   1.50391   1.51319   1.56360   1.56976
 Alpha virt. eigenvalues --    1.60840   1.65475   1.65952   1.67578   1.69548
 Alpha virt. eigenvalues --    1.69580   1.70597   1.76300   1.77295   1.79783
 Alpha virt. eigenvalues --    1.83408   1.84956   1.86710   1.88035   2.02550
 Alpha virt. eigenvalues --    2.13550   2.18183   2.27419   2.30975   2.32540
 Alpha virt. eigenvalues --    2.34508   2.44641   2.49261   2.53461   2.57082
 Alpha virt. eigenvalues --    2.57631   2.65715   2.87240   3.00419   3.03836
 Alpha virt. eigenvalues --    3.08780   3.13415   3.17415   3.17700   3.18580
 Alpha virt. eigenvalues --    3.20413   3.22653   3.26499   3.27734   3.27949
 Alpha virt. eigenvalues --    3.28442   3.32275   3.34339   3.37065   3.39816
 Alpha virt. eigenvalues --    3.43891   3.48276   3.50277   3.53862   3.57352
 Alpha virt. eigenvalues --    3.57971   3.58486   3.61039   3.64363   3.66028
 Alpha virt. eigenvalues --    3.68782   3.73106   3.74659   3.76123   3.76870
 Alpha virt. eigenvalues --    3.81424   3.81541   3.82331   3.82585   3.83778
 Alpha virt. eigenvalues --    3.85647   3.93213   3.95331   3.96174   3.97252
 Alpha virt. eigenvalues --    3.97278   3.98361   4.00017   4.00325   4.03185
 Alpha virt. eigenvalues --    4.07109   4.08288   4.10912   4.13585   4.13883
 Alpha virt. eigenvalues --    4.15870   4.18393   4.19353   4.21790   4.22766
 Alpha virt. eigenvalues --    4.26257   4.28948   4.29617   4.35010   4.36862
 Alpha virt. eigenvalues --    4.37254   4.43095   4.45678   4.45773   4.46513
 Alpha virt. eigenvalues --    4.54880   4.55627   4.58160   4.61419   4.62117
 Alpha virt. eigenvalues --    4.62174   4.63929   4.65654   4.66500   4.67872
 Alpha virt. eigenvalues --    4.70556   4.72677   4.72786   4.74363   4.75569
 Alpha virt. eigenvalues --    4.82175   4.83629   4.86184   4.87588   4.88343
 Alpha virt. eigenvalues --    4.92144   4.99769   5.02299   5.04074   5.05125
 Alpha virt. eigenvalues --    5.17658   5.22141   5.34634   5.36472   5.39385
 Alpha virt. eigenvalues --    5.46353   5.53069   5.61257   5.65102   5.68189
 Alpha virt. eigenvalues --    5.73750   5.76422   5.78768   5.81151   5.81601
 Alpha virt. eigenvalues --    5.81606   5.85331   5.85794   5.86121   5.89653
 Alpha virt. eigenvalues --    5.97506   5.98948   5.99869   6.00530   6.01624
 Alpha virt. eigenvalues --    6.05511   6.14162   6.14863   6.49737   6.94685
 Alpha virt. eigenvalues --    7.12057   8.13958   8.38259
          Condensed to atoms (all electrons):
               1          2          3          4          5          6
     1  C    5.197904   0.737570  -0.079038  -0.013937  -0.017972  -0.000624
     2  C    0.737570   4.944371   0.379334  -0.045305  -0.023802  -0.001735
     3  C   -0.079038   0.379334   4.506523   0.353403  -0.039841   0.003959
     4  C   -0.013937  -0.045305   0.353403   5.032227   0.914897  -0.068233
     5  C   -0.017972  -0.023802  -0.039841   0.914897   5.072679   0.308183
     6  C   -0.000624  -0.001735   0.003959  -0.068233   0.308183   4.556727
     7  H    0.516517  -0.095893  -0.001976  -0.000790  -0.000347   0.000002
     8  H   -0.003011  -0.052852   0.438993  -0.056112  -0.002004   0.000023
     9  H   -0.003011  -0.052852   0.438993  -0.056112  -0.002004   0.000023
    10  H   -0.000029  -0.000216   0.000043  -0.002663  -0.051405   0.429105
    11  H    0.000042   0.000542   0.000151  -0.000793  -0.051349   0.427397
    12  H   -0.000029  -0.000216   0.000043  -0.002663  -0.051405   0.429105
               7          8          9         10         11         12
     1  C    0.516517  -0.003011  -0.003011  -0.000029   0.000042  -0.000029
     2  C   -0.095893  -0.052852  -0.052852  -0.000216   0.000542  -0.000216
     3  C   -0.001976   0.438993   0.438993   0.000043   0.000151   0.000043
     4  C   -0.000790  -0.056112  -0.056112  -0.002663  -0.000793  -0.002663
     5  C   -0.000347  -0.002004  -0.002004  -0.051405  -0.051349  -0.051405
     6  C    0.000002   0.000023   0.000023   0.429105   0.427397   0.429105
     7  H    0.547620  -0.000145  -0.000145  -0.000001   0.000004  -0.000001
     8  H   -0.000145   0.654093  -0.043756  -0.000154  -0.000101   0.000440
     9  H   -0.000145  -0.043756   0.654093   0.000440  -0.000101  -0.000154
    10  H   -0.000001  -0.000154   0.000440   0.634438  -0.029022  -0.030298
    11  H    0.000004  -0.000101  -0.000101  -0.029022   0.628712  -0.029022
[...]
 Alpha virt. eigenvalues --    0.26648   0.28443   0.28554   0.30984   0.34250
 Alpha virt. eigenvalues --    0.35546   0.35766   0.36545   0.39582   0.41334
 Alpha virt. eigenvalues --    0.43688   0.43802   0.44392   0.47833   0.48665
 Alpha virt. eigenvalues --    0.48722   0.49246   0.49513   0.49877   0.51811
 Alpha virt. eigenvalues --    0.52150   0.52153   0.52561   0.53973   0.54448
 Alpha virt. eigenvalues --    0.55733   0.56774   0.57407   0.58680   0.59989
 Alpha virt. eigenvalues --    0.60905   0.61293   0.61319   0.64127   0.65129
 Alpha virt. eigenvalues --    0.66611   0.67458   0.68453   0.68492   0.71474
 Alpha virt. eigenvalues --    0.71550   0.74498   0.74558   0.75936   0.78883
 Alpha virt. eigenvalues --    0.79072   0.81760   0.82910   0.84395   0.84432
 Alpha virt. eigenvalues --    0.87732   0.89063   0.91110   0.92563   0.92818
 Alpha virt. eigenvalues --    0.94248   0.98576   0.99151   1.00720   1.01541
 Alpha virt. eigenvalues --    1.01877   1.02833   1.04850   1.05146   1.06167
 Alpha virt. eigenvalues --    1.06462   1.07058   1.10035   1.12218   1.13296
 Alpha virt. eigenvalues --    1.14004   1.17338   1.19946   1.20885   1.21560
 Alpha virt. eigenvalues --    1.23823   1.28273   1.30213   1.31418   1.32409
 Alpha virt. eigenvalues --    1.35415   1.35733   1.36776   1.37436   1.38572
 Alpha virt. eigenvalues --    1.40640   1.41870   1.42502   1.44878   1.46159
 Alpha virt. eigenvalues --    1.48804   1.48823   1.50789   1.51895   1.53037
 Alpha virt. eigenvalues --    1.53208   1.54666   1.57882   1.59795   1.60797
 Alpha virt. eigenvalues --    1.61111   1.62632   1.63647   1.63736   1.65194
 Alpha virt. eigenvalues --    1.65194   1.68962   1.71168   1.71593   1.72260
 Alpha virt. eigenvalues --    1.72578   1.75513   1.77357   1.78626   1.80852
 Alpha virt. eigenvalues --    1.82713   1.83162   1.88314   1.89867   1.90758
 Alpha virt. eigenvalues --    1.91262   1.92529   1.93766   1.94969   1.95673
 Alpha virt. eigenvalues --    1.98249   1.99725   1.99911   2.01012   2.01461
 Alpha virt. eigenvalues --    2.02992   2.03848   2.04119   2.06643   2.09738
 Alpha virt. eigenvalues --    2.09812   2.12673   2.13200   2.13762   2.17735
 Alpha virt. eigenvalues --    2.18417   2.20291   2.22828   2.24283   2.25850
 Alpha virt. eigenvalues --    2.26852   2.27401   2.28408   2.31479   2.32928
 Alpha virt. eigenvalues --    2.33036   2.34388   2.35386   2.37246   2.38524
 Alpha virt. eigenvalues --    2.41011   2.41270   2.42558   2.44459   2.46412
 Alpha virt. eigenvalues --    2.47134   2.49169   2.53868   2.54494   2.55622
 Alpha virt. eigenvalues --    2.55714   2.57748   2.59040   2.61300   2.64149
 Alpha virt. eigenvalues --    2.65702   2.65935   2.66858   2.69071   2.70310
 Alpha virt. eigenvalues --    2.71414   2.73026   2.74390   2.76458   2.77083
 Alpha virt. eigenvalues --    2.79995   2.81514   2.86008   2.86466   2.87749
 Alpha virt. eigenvalues --    2.93495   2.94628   2.95800   2.97701   3.00644
 Alpha virt. eigenvalues --    3.02872   3.05510   3.06257   3.09029   3.12557
 Alpha virt. eigenvalues --    3.14012   3.16201   3.17586   3.18573   3.20176
 Alpha virt. eigenvalues --    3.24718   3.25813   3.26819   3.28800   3.31648
 Alpha virt. eigenvalues --    3.32764   3.34242   3.36767   3.36887   3.39092
 Alpha virt. eigenvalues --    3.42074   3.46330   3.49896   3.55919   3.56348
 Alpha virt. eigenvalues --    3.59993   3.60470   3.62171   3.63239   3.63610
 Alpha virt. eigenvalues --    3.66248   3.69912   3.74443   3.80120   3.81184
 Alpha virt. eigenvalues --    3.82990   3.85172   3.90304   3.92139   3.94298
 Alpha virt. eigenvalues --    4.06068   4.08038   4.09995   4.26883   4.31172
 Alpha virt. eigenvalues --    4.48029   4.53841   4.53910   4.55753   4.56098
 Alpha virt. eigenvalues --    4.58223   4.60243   4.60413   4.61052   4.74182
 Alpha virt. eigenvalues --    4.75542   4.82254   4.82619   4.85009   4.87225
 Alpha virt. eigenvalues --    4.88467   4.91601   4.95779   4.96615   4.97653
 Alpha virt. eigenvalues --    5.03957   5.09901   5.12194   5.25688   5.31374
 Alpha virt. eigenvalues --    5.35022   5.38903   5.39938   5.51735   5.51891
 Alpha virt. eigenvalues --    5.56448   5.63169   5.63328   5.65850   5.71822
 Alpha virt. eigenvalues --    5.74735   5.75187   5.80911   5.81359   5.82818
 Alpha virt. eigenvalues --    5.90737   5.96531   5.97146   5.98549   6.04150
 Alpha virt. eigenvalues --    6.04500   6.06774   6.07751   6.10139   6.15927
 Alpha virt. eigenvalues --    6.17743   6.18780   6.21084   6.22820   6.23174
 Alpha virt. eigenvalues --    6.27349   6.29281   6.31160   6.31298   6.34441
 Alpha virt. eigenvalues --    6.36254   6.39964   6.48729   6.63596   6.88290
 Alpha virt. eigenvalues --    6.95930   7.03953   7.04028   7.10454   7.10506
 Alpha virt. eigenvalues --    7.16779   7.18685   7.19509   7.24587   7.26152
 Alpha virt. eigenvalues --    7.32605   7.47298   7.54758   7.86002   7.88767
 Alpha virt. eigenvalues --    7.94523   7.96184   8.00817   8.06499   8.09860
 Alpha virt. eigenvalues --    8.14488   8.27604   8.35020   8.46146   8.48978
 Alpha virt. eigenvalues --    8.52839   8.61433   8.63027   8.73312   8.75454
 Alpha virt. eigenvalues --    8.83080   8.91479   8.92055   8.94451   8.97202
 Alpha virt. eigenvalues --    9.10022   9.19708   9.20712   9.25777   9.34498
 Alpha virt. eigenvalues --    9.37892   9.43407   9.53838   9.59147   9.63213
 Alpha virt. eigenvalues --    9.63618   9.72676   9.77574   9.81367  10.12006
 Alpha virt. eigenvalues --   10.20295  21.22350  21.26127  21.35630  21.38300
 Alpha virt. eigenvalues --   21.38886  21.40234  21.41063  21.44582  21.54816
 Alpha virt. eigenvalues --   21.58297  21.62378  21.62932  21.63981  21.74063
 Alpha virt. eigenvalues --   22.06369  22.31971  22.57359  22.69305  22.73236
 Alpha virt. eigenvalues --   23.22584  23.46829  23.79826  26.69924  26.82951
          Condensed to atoms (all electrons):
               1          2          3          4          5          6
     1  C    4.894234   1.012672  -0.009852  -0.009174   0.012007  -0.000622
     2  C    1.012672   4.923495   0.239986  -0.091095   0.000251  -0.000019
     3  C   -0.009852   0.239986   4.829195   0.314551  -0.052605  -0.008663
     4  C   -0.009174  -0.091095   0.314551   5.308111   0.662476  -0.125862
     5  C    0.012007   0.000251  -0.052605   0.662476   5.222359   0.367034
     6  C   -0.000622  -0.000019  -0.008663  -0.125862   0.367034   4.844219
     7  H    0.417835   0.006563  -0.001424   0.000052   0.000403   0.000058
     8  H   -0.013173  -0.058342   0.459769  -0.059938   0.002664   0.000998
     9  H   -0.013173  -0.058342   0.459769  -0.059938   0.002664   0.000998
    10  H    0.000039   0.000266  -0.000178  -0.001766  -0.061719   0.420966
    11  H   -0.000061  -0.000609   0.001117  -0.000018  -0.058149   0.412472
    12  H    0.000039   0.000266  -0.000178  -0.001766  -0.061719   0.420966
               7          8          9         10         11         12
     1  C    0.417835  -0.013173  -0.013173   0.000039  -0.000061   0.000039
     2  C    0.006563  -0.058342  -0.058342   0.000266  -0.000609   0.000266
     3  C   -0.001424   0.459769   0.459769  -0.000178   0.001117  -0.000178
     4  C    0.000052  -0.059938  -0.059938  -0.001766  -0.000018  -0.001766
     5  C    0.000403   0.002664   0.002664  -0.061719  -0.058149  -0.061719
     6  C    0.000058   0.000998   0.000998   0.420966   0.412472   0.420966
     7  H    0.348398   0.000056   0.000056  -0.000000   0.000001  -0.000000
     8  H    0.000056   0.571196  -0.030460  -0.000054  -0.000028   0.000117
     9  H    0.000056  -0.030460   0.571196   0.000117  -0.000028  -0.000054
    10  H   -0.000000  -0.000054   0.000117   0.618161  -0.039863  -0.040874
    11  H    0.000001  -0.000028  -0.000028  -0.039863   0.616036  -0.039863
    12  H   -0.000000   0.000117  -0.000054  -0.040874  -0.039863   0.618161
          Atomic-Atomic Spin Densities.
               1          2          3          4          5          6
     1  C    0.000000   0.000000   0.000000   0.000000   0.000000   0.000000
     2  C    0.000000   0.000000   0.000000   0.000000   0.000000   0.000000
     3  C    0.000000   0.000000   0.000000   0.000000   0.000000   0.000000
     4  C    0.000000   0.000000   0.000000   0.000000   0.000000   0.000000
     5  C    0.000000   0.000000   0.000000   0.000000   0.000000   0.000000
     6  C    0.000000   0.000000   0.000000   0.000000   0.000000   0.000000
     7  H    0.000000   0.000000   0.000000   0.000000   0.000000   0.000000
     8  H    0.000000   0.000000   0.000000   0.000000   0.000000   0.000000
     9  H    0.000000   0.000000   0.000000   0.000000   0.000000   0.000000
    10  H    0.000000   0.000000   0.000000   0.000000   0.000000   0.000000
    11  H    0.000000   0.000000   0.000000   0.000000   0.000000   0.000000
    12  H    0.000000   0.000000   0.000000   0.000000   0.000000   0.000000
               7          8          9         10         11         12
     1  C    0.000000   0.000000   0.000000   0.000000   0.000000   0.000000
     2  C    0.000000   0.000000   0.000000   0.000000   0.000000   0.000000
     3  C    0.000000   0.000000   0.000000   0.000000   0.000000   0.000000
     4  C    0.000000   0.000000   0.000000   0.000000   0.000000   0.000000
     5  C    0.000000   0.000000   0.000000   0.000000   0.000000   0.000000
     6  C    0.000000   0.000000   0.000000   0.000000   0.000000   0.000000
     7  H    0.000000   0.000000   0.000000   0.000000   0.000000   0.000000
     8  H    0.000000   0.000000   0.000000   0.000000   0.000000   0.000000
     9  H    0.000000   0.000000   0.000000   0.000000   0.000000   0.000000
    10  H    0.000000   0.000000   0.000000   0.000000   0.000000   0.000000
    11  H    0.000000   0.000000   0.000000   0.000000   0.000000   0.000000
    12  H    0.000000   0.000000   0.000000   0.000000   0.000000   0.000000
 Mulliken charges and spin densities:
               1          2
     1  C   -0.290769   0.000000
     2  C    0.024907   0.000000
     3  C   -0.231488   0.000000
     4  C    0.064366   0.000000
     5  C   -0.035666   0.000000
     6  C   -0.332545   0.000000
     7  H    0.228002   0.000000
     8  H    0.127196   0.000000
     9  H    0.127196   0.000000
    10  H    0.104905   0.000000
    11  H    0.108991   0.000000
    12  H    0.104905   0.000000
 Sum of Mulliken charges =  -0.00000   0.00000
 Mulliken charges and spin densities with hydrogens summed into heavy atoms:
               1          2
     1  C   -0.062767   0.000000
     2  C    0.024907   0.000000
     3  C    0.022904   0.000000
     4  C    0.064366   0.000000
     5  C   -0.035666   0.000000
     6  C   -0.013743   0.000000
 Electronic spatial extent (au):  <R**2>=            850.9262
 Charge=              0.0000 electrons
 Dipole moment (field-independent basis, Debye):
    X=              0.3674    Y=              0.6981    Z=             -0.0000  Tot=              0.7889
 Quadrupole moment (field-independent basis, Debye-Ang):
   XX=            -31.3763   YY=            -31.4626   ZZ=            -37.6031
   XY=              2.0036   XZ=             -0.0000   YZ=              0.0000
 Traceless Quadrupole moment (field-independent basis, Debye-Ang):
   XX=              2.1044   YY=              2.0181   ZZ=             -4.1224
   XY=              2.0036   XZ=             -0.0000   YZ=              0.0000
 Octapole moment (field-independent basis, Debye-Ang**2):
  XXX=             16.9210  YYY=            -23.7107  ZZZ=              0.0000  XYY=              1.2690
  XXY=             13.6309  XXZ=             -0.0000  XZZ=              1.2511  YZZ=              5.2422
  YYZ=             -0.0000  XYZ=             -0.0000
 Hexadecapole moment (field-independent basis, Debye-Ang**3):
 XXXX=           -560.4817 YYYY=           -437.2700 ZZZZ=            -56.3633 XXXY=           -214.6109
 XXXZ=             -0.0000 YYYX=           -160.1398 YYYZ=             -0.0000 ZZZX=              0.0000
 ZZZY=              0.0000 XXYY=           -178.8314 XXZZ=           -103.4302 YYZZ=           -111.0549
 XXYZ=             -0.0000 YYXZ=             -0.0000 ZZXY=            -73.3139
 N-N= 1.751559984390D+02 E-N=-8.870563737692D+02  KE= 2.304167849813D+02
 Symmetry A'   KE= 2.221497729784D+02
 Symmetry A"   KE= 8.267012002888D+00
 Symmetry A'   SP= 0.000000000000D+00
 Symmetry A"   SP= 0.000000000000D+00
                          Isotropic Fermi Contact Couplings
        Atom                 a.u.       MegaHertz       Gauss      10(-4) cm-1
     1  C(13)              0.00000       0.00000       0.00000       0.00000
     2  C(13)              0.00000       0.00000       0.00000       0.00000
     3  C(13)              0.00000       0.00000       0.00000       0.00000
     4  C(13)              0.00000       0.00000       0.00000       0.00000
     5  C(13)              0.00000       0.00000       0.00000       0.00000
     6  C(13)              0.00000       0.00000       0.00000       0.00000
     7  H(1)               0.00000       0.00000       0.00000       0.00000
     8  H(1)               0.00000       0.00000       0.00000       0.00000
     9  H(1)               0.00000       0.00000       0.00000       0.00000
    10  H(1)               0.00000       0.00000       0.00000       0.00000
    11  H(1)               0.00000       0.00000       0.00000       0.00000
    12  H(1)               0.00000       0.00000       0.00000       0.00000
 --------------------------------------------------------
       Center         ----  Spin Dipole Couplings  ----
                      3XX-RR        3YY-RR        3ZZ-RR
 --------------------------------------------------------
     1   Atom        0.000000      0.000000      0.000000
     2   Atom        0.000000      0.000000      0.000000
     3   Atom        0.000000      0.000000      0.000000
     4   Atom        0.000000      0.000000      0.000000
     5   Atom        0.000000      0.000000      0.000000
     6   Atom        0.000000      0.000000      0.000000
     7   Atom        0.000000      0.000000      0.000000
     8   Atom        0.000000      0.000000      0.000000
     9   Atom        0.000000      0.000000      0.000000
    10   Atom        0.000000      0.000000      0.000000
    11   Atom        0.000000      0.000000      0.000000
    12   Atom        0.000000      0.000000      0.000000
 --------------------------------------------------------
                        XY            XZ            YZ
 --------------------------------------------------------
     1   Atom        0.000000      0.000000      0.000000
     2   Atom        0.000000      0.000000      0.000000
     3   Atom        0.000000      0.000000      0.000000
     4   Atom        0.000000      0.000000      0.000000
     5   Atom        0.000000      0.000000      0.000000
     6   Atom        0.000000      0.000000      0.000000
     7   Atom        0.000000      0.000000      0.000000
     8   Atom        0.000000      0.000000      0.000000
     9   Atom        0.000000      0.000000      0.000000
    10   Atom        0.000000      0.000000      0.000000
    11   Atom        0.000000      0.000000      0.000000
    12   Atom        0.000000      0.000000      0.000000
 --------------------------------------------------------


 ---------------------------------------------------------------------------------
              Anisotropic Spin Dipole Couplings in Principal Axis System
 ---------------------------------------------------------------------------------

       Atom             a.u.   MegaHertz   Gauss  10(-4) cm-1        Axes

              Baa     0.0000     0.000     0.000     0.000  1.0000  0.0000  0.0000
     1 C(13)  Bbb     0.0000     0.000     0.000     0.000 -0.0000  1.0000  0.0000
              Bcc     0.0000     0.000     0.000     0.000  0.0000  0.0000  1.0000
 
              Baa     0.0000     0.000     0.000     0.000  1.0000  0.0000  0.0000
     2 C(13)  Bbb     0.0000     0.000     0.000     0.000 -0.0000  1.0000  0.0000
              Bcc     0.0000     0.000     0.000     0.000  0.0000  0.0000  1.0000
 
              Baa     0.0000     0.000     0.000     0.000  1.0000  0.0000  0.0000
     3 C(13)  Bbb     0.0000     0.000     0.000     0.000 -0.0000  1.0000  0.0000
              Bcc     0.0000     0.000     0.000     0.000  0.0000  0.0000  1.0000
 
              Baa     0.0000     0.000     0.000     0.000  1.0000  0.0000  0.0000
     4 C(13)  Bbb     0.0000     0.000     0.000     0.000 -0.0000  1.0000  0.0000
              Bcc     0.0000     0.000     0.000     0.000  0.0000  0.0000  1.0000
 
              Baa     0.0000     0.000     0.000     0.000  1.0000  0.0000  0.0000
     5 C(13)  Bbb     0.0000     0.000     0.000     0.000 -0.0000  1.0000  0.0000
              Bcc     0.0000     0.000     0.000     0.000  0.0000  0.0000  1.0000
 
              Baa     0.0000     0.000     0.000     0.000  1.0000  0.0000  0.0000
     6 C(13)  Bbb     0.0000     0.000     0.000     0.000 -0.0000  1.0000  0.0000
              Bcc     0.0000     0.000     0.000     0.000  0.0000  0.0000  1.0000
 
              Baa     0.0000     0.000     0.000     0.000  1.0000  0.0000  0.0000
     7 H(1)   Bbb     0.0000     0.000     0.000     0.000 -0.0000  1.0000  0.0000
              Bcc     0.0000     0.000     0.000     0.000  0.0000  0.0000  1.0000
 
              Baa     0.0000     0.000     0.000     0.000  1.0000  0.0000  0.0000
     8 H(1)   Bbb     0.0000     0.000     0.000     0.000 -0.0000  1.0000  0.0000
              Bcc     0.0000     0.000     0.000     0.000  0.0000  0.0000  1.0000
 
              Baa     0.0000     0.000     0.000     0.000  1.0000  0.0000  0.0000
     9 H(1)   Bbb     0.0000     0.000     0.000     0.000 -0.0000  1.0000  0.0000
              Bcc     0.0000     0.000     0.000     0.000  0.0000  0.0000  1.0000
 
              Baa     0.0000     0.000     0.000     0.000  1.0000  0.0000  0.0000
    10 H(1)   Bbb     0.0000     0.000     0.000     0.000 -0.0000  1.0000  0.0000
              Bcc     0.0000     0.000     0.000     0.000  0.0000  0.0000  1.0000
 
              Baa     0.0000     0.000     0.000     0.000  1.0000  0.0000  0.0000
    11 H(1)   Bbb     0.0000     0.000     0.000     0.000 -0.0000  1.0000  0.0000
              Bcc     0.0000     0.000     0.000     0.000  0.0000  0.0000  1.0000
 
              Baa     0.0000     0.000     0.000     0.000  1.0000  0.0000  0.0000
    12 H(1)   Bbb     0.0000     0.000     0.000     0.000 -0.0000  1.0000  0.0000
              Bcc     0.0000     0.000     0.000     0.000  0.0000  0.0000  1.0000
 

 ---------------------------------------------------------------------------------

 1\1\GINC-GAMBA\SP\ROHF\Gen\C6H6\IRIKURA\27-Sep-2023\0\\# rohf/gen geom
 =check guess=check\\1,4-hexadiyne, ROHF/cc-pVTZ-F12\\0,1\C,0,-1.366298
 9343,-2.6060360952,0.\C,0,-1.3469733073,-1.4082600768,0.\C,0,-1.341521
 2291,0.0560770098,0.\C,0,-0.0002806594,0.6436599403,0.\C,0,1.094789877
 9,1.1333021297,0.\C,0,2.4276175374,1.7181839793,0.\H,0,-1.376482419,-3
 .6672049184,0.\H,0,-1.8967116734,0.4125734024,0.8732591442\H,0,-1.8967
 116734,0.4125734024,-0.8732591442\H,0,2.5843036352,2.3412403545,-0.881
 9591305\H,0,3.1936412102,0.9411025175,0.\H,0,2.5843036352,2.3412403545
 ,0.8819591305\\Version=ES64L-G16RevB.01\State=1-A'\HF=-230.6694779\RMS
 D=6.335e-09\Dipole=0.1444449,0.2747133,0.\Quadrupole=1.5636472,1.50126
 82,-3.0649154,1.4896738,0.,0.\PG=CS [SG(C6H2),X(H4)]\\@


 NATURE WILL TELL YOU A DIRECT LIE IF SHE CAN.

                                -- CHARLES DARWIN
 Job cpu time:       0 days  0 hours 14 minutes 55.0 seconds.
 Elapsed time:       0 days  0 hours  3 minutes 44.0 seconds.
 File lengths (MBytes):  RWF=    134 Int=      0 D2E=      0 Chk=     16 Scr=      1
 Normal termination of Gaussian 16 at Wed Sep 27 22:28:09 2023.
